
                                 *****************
                                 * O   R   C   A *
                                 *****************

           --- An Ab Initio, DFT and Semiempirical electronic structure package ---

                  #######################################################
                  #                        -***-                        #
                  #          Department of theory and spectroscopy      #
                  #               Directorship: Frank Neese             #
                  #        Max Planck Institute fuer Kohlenforschung    #
                  #                Kaiser Wilhelm Platz 1               #
                  #                 D-45470 Muelheim/Ruhr               #
                  #                      Germany                        #
                  #                                                     #
                  #                  All rights reserved                #
                  #                        -***-                        #
                  #######################################################


                         Program Version 4.2.1 -  RELEASE  -


 With contributions from (in alphabetic order):
   Daniel Aravena         : Magnetic Suceptibility
   Michael Atanasov       : Ab Initio Ligand Field Theory (pilot matlab implementation)
   Alexander A. Auer      : GIAO ZORA, VPT2
   Ute Becker             : Parallelization
   Giovanni Bistoni       : ED, misc. LED, open-shell LED, HFLD
   Martin Brehm           : Molecular dynamics
   Dmytro Bykov           : SCF Hessian
   Vijay G. Chilkuri      : MRCI spin determinant printing, contributions to CSF-ICE
   Dipayan Datta          : RHF DLPNO-CCSD density
   Achintya Kumar Dutta   : EOM-CC, STEOM-CC
   Dmitry Ganyushin       : Spin-Orbit,Spin-Spin,Magnetic field MRCI
   Miquel Garcia          : C-PCM Hessian, Gaussian charge scheme
   Yang Guo               : DLPNO-NEVPT2, CIM, IAO-localization
   Andreas Hansen         : Spin unrestricted coupled pair/coupled cluster methods
   Benjamin Helmich-Paris : CASSCF linear response (MC-RPA)
   Lee Huntington         : MR-EOM, pCC
   Robert Izsak           : Overlap fitted RIJCOSX, COSX-SCS-MP3, EOM
   Christian Kollmar      : KDIIS, OOCD, Brueckner-CCSD(T), CCSD density
   Simone Kossmann        : Meta GGA functionals, TD-DFT gradient, OOMP2, MP2 Hessian
   Martin Krupicka        : AUTO-CI
   Lucas Lang             : DCDCAS
   Dagmar Lenk            : GEPOL surface, SMD
   Dimitrios Liakos       : Extrapolation schemes; Compound Job, initial MDCI parallelization
   Dimitrios Manganas     : Further ROCIS development; embedding schemes
   Dimitrios Pantazis     : SARC Basis sets
   Taras Petrenko         : DFT Hessian,TD-DFT gradient, ASA, ECA, R-Raman, ABS, FL, XAS/XES, NRVS
   Peter Pinski           : DLPNO-MP2, DLPNO-MP2 Gradient
   Christoph Reimann      : Effective Core Potentials
   Marius Retegan         : Local ZFS, SOC
   Christoph Riplinger    : Optimizer, TS searches, QM/MM, DLPNO-CCSD(T), (RO)-DLPNO pert. Triples
   Tobias Risthaus        : Range-separated hybrids, TD-DFT gradient, RPA, STAB
   Michael Roemelt        : Original ROCIS implementation
   Masaaki Saitow         : Open-shell DLPNO-CCSD energy and density
   Barbara Sandhoefer     : DKH picture change effects
   Avijit Sen             : IP-ROCIS
   Kantharuban Sivalingam : CASSCF convergence, NEVPT2, FIC-MRCI
   Bernardo de Souza      : ESD, SOC TD-DFT
   Georgi Stoychev        : AutoAux, RI-MP2 NMR
   Willem Van den Heuvel  : Paramagnetic NMR
   Boris Wezisla          : Elementary symmetry handling
   Frank Wennmohs         : Technical directorship


 We gratefully acknowledge several colleagues who have allowed us to
 interface, adapt or use parts of their codes:
   Stefan Grimme, W. Hujo, H. Kruse,             : VdW corrections, initial TS optimization,
                  C. Bannwarth                     DFT functionals, gCP, sTDA/sTD-DF
   Ed Valeev, F. Pavosevic, A. Kumar             : LibInt (2-el integral package), F12 methods
   Garnet Chan, S. Sharma, J. Yang, R. Olivares  : DMRG
   Ulf Ekstrom                                   : XCFun DFT Library
   Mihaly Kallay                                 : mrcc  (arbitrary order and MRCC methods)
   Andreas Klamt, Michael Diedenhofen            : otool_cosmo (COSMO solvation model)
   Jiri Pittner, Ondrej Demel                    : Mk-CCSD
   Frank Weinhold                                : gennbo (NPA and NBO analysis)
   Christopher J. Cramer and Donald G. Truhlar   : smd solvation model
   Lars Goerigk                                  : TD-DFT with DH, B97 family of functionals
   V. Asgeirsson, H. Jonsson                     : NEB implementation
   FAccTs GmbH                                   : IRC, NEB, NEB-TS, Multilevel, MM, QM/MM, CI optimization
   S Lehtola, MJT Oliveira, MAL Marques          : LibXC Library


 Your calculation uses the libint2 library for the computation of 2-el integrals
 For citations please refer to: http://libint.valeyev.net

 Your ORCA version has been built with support for libXC version: 4.2.3
 For citations please refer to: https://tddft.org/programs/libxc/

 This ORCA versions uses:
   CBLAS   interface :  Fast vector & matrix operations
   LAPACKE interface :  Fast linear algebra routines
   SCALAPACK package :  Parallel linear algebra routines




***************************************
The coordinates will be read from file: init.xyz
***************************************


Your calculation utilizes the SMD solvation module
Please cite in your paper:
A.V. Marenich, C.J. Cramer, D.G. Truhlar J. Phys. Chem. B, 113, (2009), 6378 

Your calculation utilizes the semiempirical GFN2-xTB method
Please cite in your paper:
C. Bannwarth, Ehlert S., S. Grimme,  J. Chem. Theory Comput., 15, (2019), 1652.
   

----- Orbital basis set information -----
Your calculation utilizes the basis: def2-SVP
   F. Weigend and R. Ahlrichs, Phys. Chem. Chem. Phys. 7, 3297 (2005).

================================================================================
                                        WARNINGS
                       Please study these warnings very carefully!
================================================================================


WARNING: Found dipole moment calculation with XTB calculation
  ===> : Switching off dipole moment calculation


INFO   : the flag for use of LIBINT has been found!

================================================================================
                                       INPUT FILE
================================================================================
NAME = singlepoint.inp
|  1> ! xTB2
|  2> 
|  3> *xyzfile -1 1 init.xyz
|  4> 
|  5> %cpcm
|  6>  smd true
|  7>  SMDsolvent "METHANOL"
|  8> end
|  9> 
| 10> %pal
| 11>  nprocs 2
| 12> end
| 13> 
| 14>                          ****END OF INPUT****
================================================================================

                       ****************************
                       * Single Point Calculation *
                       ****************************

      -----------------------------------------------------------      
     |                   =====================                   |     
     |                           x T B                           |     
     |                   =====================                   |     
     |                         S. Grimme                         |     
     |          Mulliken Center for Theoretical Chemistry        |     
     |                    University of Bonn                     |     
      -----------------------------------------------------------      

   * xtb version 6.3.2 (30e43eb) compiled by 'schneider@apollo14' on 2020-08-08

   xtb is free software: you can redistribute it and/or modify it under
   the terms of the GNU Lesser General Public License as published by
   the Free Software Foundation, either version 3 of the License, or
   (at your option) any later version.
   
   xtb is distributed in the hope that it will be useful,
   but WITHOUT ANY WARRANTY; without even the implied warranty of
   MERCHANTABILITY or FITNESS FOR A PARTICULAR PURPOSE.  See the
   GNU Lesser General Public License for more details.
   
   Cite this work as:
   * S. Grimme, C. Bannwarth, P. Shushkov, J. Chem. Theory Comput., 2017,
     13, 1989-2009. DOI: 10.1021/acs.jctc.7b00118
   * C. Bannwarth, S. Ehlert and S. Grimme., J. Chem. Theory Comput., 2019,
     15, 1652-1671. DOI: 10.1021/acs.jctc.8b01176
   * P. Pracht, E. Caldeweyher, S. Ehlert, S. Grimme, ChemRxiv, 2019, preprint.
     DOI: 10.26434/chemrxiv.8326202.v1
   
   for GFN-FF:
   * S. Spicher and S. Grimme, Angew. Chem. Int. Ed., 2020,
     DOI: 10.1002/anie.202004239
   
   for DFT-D4:
   * E. Caldeweyher, C. Bannwarth and S. Grimme, J. Chem. Phys., 2017,
     147, 034112. DOI: 10.1063/1.4993215
   * E. Caldeweyher, S. Ehlert, A. Hansen, H. Neugebauer, S. Spicher,
     C. Bannwarth and S. Grimme, J. Chem. Phys., 2019, 150, 154122.
     DOI: 10.1063/1.5090222
   
   for sTDA-xTB:
   * S. Grimme and C. Bannwarth, J. Chem. Phys., 2016, 145, 054103.
     DOI: 10.1063/1.4959605
   
   in the mass-spec context:
   * V. Asgeirsson, C. Bauer and S. Grimme, Chem. Sci., 2017, 8, 4879.
     DOI: 10.1039/c7sc00601b
   * J. Koopman and S. Grimme, ACS Omega 2019, 4, 12, 15120-15133.
     DOI: 10.1021/acsomega.9b02011
   
   for metadynamics refer to:
   * S. Grimme, J. Chem. Theory Comput., 2019, 155, 2847-2862
     DOI: 10.1021/acs.jctc.9b00143
   
   with help from (in alphabetical order)
   C. Bannwarth, F. Bohle, G. Brandenburg, E. Caldeweyher, M. Checinski,
   S. Dohm, S. Ehlert, S. Ehrlich, F. März, H. Neugebauer, J. Pisarek,
   P. Pracht, P. Shushkov, and S. Spicher.
   
 * started run on 2021/11/10 at 03:39:43.370     

           -------------------------------------------------
          |                Calculation Setup                |
           -------------------------------------------------

          program call               : /opt/orca/otool_xtb singlepoint_XTB.xyz --grad -c -1 -u 0 -P 2 --namespace singlepoint --gbsa methanol
          calculation namespace      : singlepoint
          coordinate file            : singlepoint_XTB.xyz
          omp threads                :                     2
          number of atoms            :                     1
          number of electrons        :                     8
          charge                     :                    -1
          spin                       :                   0.0
          first test random number   :      0.36244397483960

   ID    Z sym.   atoms
    1   35 Br     1
########################################################################
[WARNING] Please study the warnings concerning your input carefully
-1- prog_main_parseArguments: Process number higher than OMP_NUM_THREADS, I hope you know what you are doing.
########################################################################

           -------------------------------------------------
          |                 G F N 2 - x T B                 |
           -------------------------------------------------

        Reference                      10.1021/acs.jctc.8b01176
      * Hamiltonian:
        H0-scaling (s, p, d)           1.850000    2.230000    2.230000
        zeta-weighting                 0.500000
      * Dispersion:
        s8                             2.700000
        a1                             0.520000
        a2                             5.000000
        s9                             5.000000
      * Repulsion:
        kExp                           1.500000    1.000000
        rExp                           1.000000
      * Coulomb:
        alpha                          2.000000
        third order                    shell-resolved
        anisotropic                    true
        a3                             3.000000
        a5                             4.000000
        cn-shift                       1.200000
        cn-exp                         4.000000
        max-rad                        5.000000

      * Solvation model:               GBSA
        Solvent                        methanol
        Parameter file                 internal GFN2-xTB/GBSA
        Dielectric constant                3.2700E+01
        Reference state                gsolv [1 M gas/solution]
        Free energy shift                  3.3569E-03 Eh       2.1065E+00 kcal/mol
        Temperature                        2.9815E+02 K
        Density                            7.9200E-01 kg/L
        Solvent mass                       3.2040E+01 g/mol
        Interaction kernel             Still
        Born radius scaling (c1)           1.6087E+00
        Born radii integrator          GBOBC
        Born offset                        5.6550E-04 a0       1.0686E-03 AA
        H-bond correction              true
        Ion screening                  false
        Surface tension                    1.0000E-05 Eh       1.5569E+01 dyn/cm
        Grid points                               230 per atom

          ...................................................
          :                      SETUP                      :
          :.................................................:
          :  # basis functions                  10          :
          :  # atomic orbitals                   9          :
          :  # shells                            3          :
          :  # electrons                         8          :
          :  max. iterations                   250          :
          :  Hamiltonian                  GFN2-xTB          :
          :  restarted?                      false          :
          :  GBSA solvation                   true          :
          :  PC potential                    false          :
          :  electronic temp.          300.0000000     K    :
          :  accuracy                    1.0000000          :
          :  -> integral cutoff          0.2500000E+02      :
          :  -> integral neglect         0.1000000E-07      :
          :  -> SCF convergence          0.1000000E-05 Eh   :
          :  -> wf. convergence          0.1000000E-03 e    :
          :  Broyden damping             0.4000000          :
          ...................................................

 iter      E             dE          RMSdq      gap      omega  full diag
   1     -4.4353713 -0.443537E+01  0.404E+00   13.11      13.1  T
   2     -4.4353713  0.000000E+00  0.323E+00   13.26      13.3  T
   3     -4.4353713 -0.177636E-14  0.249E+00   13.41      13.4  T
   4     -4.4353713  0.177636E-14  0.199E+00   13.51      13.5  T
   5     -4.4353713 -0.888178E-15  0.153E+00   13.62      13.6  T
   6     -4.4353713 -0.888178E-15  0.123E+00   13.68      13.7  T
   7     -4.4353713  0.177636E-14  0.944E-01   13.75      13.7  T
   8     -4.4353713 -0.266454E-14  0.695E-01   13.81      13.8  T
   9     -4.4353713  0.266454E-14  0.556E-01   13.84      13.8  T
  10     -4.4353713 -0.177636E-14  0.428E-01   13.87      13.9  T
  11     -4.4353713  0.000000E+00  0.342E-01   13.89      13.9  T
  12     -4.4353713  0.177636E-14  0.264E-01   13.91      13.9  T
  13     -4.4353713 -0.177636E-14  0.211E-01   13.93      13.9  T
  14     -4.4353713 -0.888178E-15  0.169E-01   13.94      13.9  T
  15     -4.4353713  0.266454E-14  0.130E-01   13.95      13.9  T
  16     -4.4353713  0.000000E+00  0.955E-02   13.95      14.0  T
  17     -4.4353713 -0.888178E-15  0.764E-02   13.96      14.0  T
  18     -4.4353713 -0.177636E-14  0.611E-02   13.96      14.0  T
  19     -4.4353713  0.888178E-15  0.471E-02   13.97      14.0  T
  20     -4.4353713  0.177636E-14  0.346E-02   13.97      14.0  T
  21     -4.4353713 -0.888178E-15  0.277E-02   13.97      14.0  T
  22     -4.4353713  0.000000E+00  0.222E-02   13.97      14.0  T
  23     -4.4353713  0.000000E+00  0.171E-02   13.97      14.0  T
  24     -4.4353713 -0.888178E-15  0.137E-02   13.97      14.0  T
  25     -4.4353713  0.355271E-14  0.109E-02   13.98      14.0  T
  26     -4.4353713 -0.444089E-14  0.841E-03   13.98      14.0  T
  27     -4.4353713  0.266454E-14  0.673E-03   13.98      14.0  T
  28     -4.4353713 -0.888178E-15  0.518E-03   13.98      14.0  T
  29     -4.4353713 -0.888178E-15  0.414E-03   13.98      14.0  T
  30     -4.4353713  0.177636E-14  0.319E-03   13.98      14.0  T
  31     -4.4353713 -0.888178E-15  0.235E-03   13.98      14.0  T
  32     -4.4353713  0.000000E+00  0.188E-03   13.98      14.0  T
  33     -4.4353713  0.000000E+00  0.145E-03   13.98      14.0  T
  34     -4.4353713  0.888178E-15  0.116E-03   13.98      14.0  T
  35     -4.4353713 -0.177636E-14  0.925E-04   13.98      14.0  T
  36     -4.4353713  0.888178E-15  0.740E-04   13.98      14.0  T

   *** convergence criteria satisfied after 36 iterations ***

         #    Occupation            Energy/Eh            Energy/eV
      -------------------------------------------------------------
         1        2.0000           -0.7401891             -20.1416
         2        2.0000           -0.3331624              -9.0658
         3        2.0000           -0.3331624              -9.0658
         4        2.0000           -0.3331624              -9.0658 (HOMO)
         5                          0.1805105               4.9119 (LUMO)
         6                          0.1805105               4.9119
         7                          0.1805105               4.9119
         8                          0.1805105               4.9119
         9                          0.1805105               4.9119
      -------------------------------------------------------------
                  HL-Gap            0.5136728 Eh           13.9777 eV
             Fermi-level           -0.0763259 Eh           -2.0769 eV

 SCC (total)                   0 d,  0 h,  0 min,  0.003 sec
 SCC setup                      ...        0 min,  0.000 sec (  4.157%)
 Dispersion                     ...        0 min,  0.000 sec (  0.286%)
 classical contributions        ...        0 min,  0.000 sec (  0.204%)
 integral evaluation            ...        0 min,  0.000 sec ( 14.332%)
 iterations                     ...        0 min,  0.002 sec ( 75.282%)
 molecular gradient             ...        0 min,  0.000 sec (  2.413%)
 printout                       ...        0 min,  0.000 sec (  3.001%)

         :::::::::::::::::::::::::::::::::::::::::::::::::::::
         ::                     SUMMARY                     ::
         :::::::::::::::::::::::::::::::::::::::::::::::::::::
         :: total energy              -4.435371316772 Eh    ::
         :: total w/o Gsasa/hb        -4.426978019982 Eh    ::
         :: gradient norm              0.000000000000 Eh/a0 ::
         :: HOMO-LUMO gap             13.977748441697 eV    ::
         ::.................................................::
         :: SCC energy                -4.435371316772 Eh    ::
         :: -> isotropic ES            0.176924827409 Eh    ::
         :: -> anisotropic ES          0.000000000000 Eh    ::
         :: -> anisotropic XC         -0.000000000000 Eh    ::
         :: -> dispersion              0.000000000000 Eh    ::
         :: -> Gsolv                  -0.103140150300 Eh    ::
         ::    -> Gborn               -0.094746853510 Eh    ::
         ::    -> Gsasa               -0.005138171918 Eh    ::
         ::    -> Ghb                 -0.006612054396 Eh    ::
         ::    -> Gshift               0.003356929523 Eh    ::
         :: repulsion energy           0.000000000000 Eh    ::
         :: add. restraining           0.000000000000 Eh    ::
         :: total charge              -1.000000000000 e     ::
         :::::::::::::::::::::::::::::::::::::::::::::::::::::

           -------------------------------------------------
          |                Property Printout                |
           -------------------------------------------------

    * Orbital Energies and Occupations

         #    Occupation            Energy/Eh            Energy/eV
      -------------------------------------------------------------
         1        2.0000           -0.7401891             -20.1416
         2        2.0000           -0.3331624              -9.0658
         3        2.0000           -0.3331624              -9.0658
         4        2.0000           -0.3331624              -9.0658 (HOMO)
         5                          0.1805105               4.9119 (LUMO)
         6                          0.1805105               4.9119
         7                          0.1805105               4.9119
         8                          0.1805105               4.9119
         9                          0.1805105               4.9119
      -------------------------------------------------------------
                  HL-Gap            0.5136728 Eh           13.9777 eV
             Fermi-level           -0.0763259 Eh           -2.0769 eV

     #   Z          covCN         q      C6AA      α(0)
     1  35 Br       0.000    -1.000   195.297    22.457

 Mol. C6AA /au·bohr⁶  :        195.297271
 Mol. C8AA /au·bohr⁸  :      12348.449238
 Mol. α(0) /au        :         22.457172


Wiberg/Mayer (AO) data.
largest (>0.10) Wiberg bond orders for each atom

 ---------------------------------------------------------------------------
     #   Z sym  total        # sym  WBO       # sym  WBO       # sym  WBO
 ---------------------------------------------------------------------------
     1  35 Br   0.000 -- ---------------------------------------------------------------------------


molecular dipole:
                 x           y           z       tot (Debye)
 q only:        0.000       0.000       0.000
   full:       -0.000      -0.000      -0.000       0.000
molecular quadrupole (traceless):
                xx          xy          yy          xz          yz          zz
 q only:        0.000       0.000       0.000       0.000       0.000       0.000
  q+dip:        0.000       0.000       0.000       0.000       0.000       0.000
   full:        0.000       0.000      -0.000      -0.000       0.000      -0.000


           -------------------------------------------------
          | TOTAL ENERGY               -4.435371316772 Eh   |
          | GRADIENT NORM               0.000000000000 Eh/α |
          | HOMO-LUMO GAP              13.977748441697 eV   |
           -------------------------------------------------

------------------------------------------------------------------------
 * finished run on 2021/11/10 at 03:39:43.385     
------------------------------------------------------------------------
 total:
 * wall-time:     0 d,  0 h,  0 min,  0.015 sec
 *  cpu-time:     0 d,  0 h,  0 min,  0.091 sec
 * ratio c/w:     6.152 speedup
 SCF:
 * wall-time:     0 d,  0 h,  0 min,  0.003 sec
 *  cpu-time:     0 d,  0 h,  0 min,  0.018 sec
 * ratio c/w:     6.386 speedup


-------------------------   --------------------
FINAL SINGLE POINT ENERGY        -4.435371316770
-------------------------   --------------------


Timings for individual modules:

Sum of individual times         ...        0.025 sec (=   0.000 min)
XTB module                      ...        0.025 sec (=   0.000 min) 100.0 %
                             ****ORCA TERMINATED NORMALLY****
TOTAL RUN TIME: 0 days 0 hours 0 minutes 0 seconds 877 msec
