(SLURM) JOB ID:         176

                                 *****************
                                 * O   R   C   A *
                                 *****************

           --- An Ab Initio, DFT and Semiempirical electronic structure package ---

                  #######################################################
                  #                        -***-                        #
                  #          Department of theory and spectroscopy      #
                  #               Directorship: Frank Neese             #
                  #        Max Planck Institute fuer Kohlenforschung    #
                  #                Kaiser Wilhelm Platz 1               #
                  #                 D-45470 Muelheim/Ruhr               #
                  #                      Germany                        #
                  #                                                     #
                  #                  All rights reserved                #
                  #                        -***-                        #
                  #######################################################


                         Program Version 4.2.1 -  RELEASE  -


 With contributions from (in alphabetic order):
   Daniel Aravena         : Magnetic Suceptibility
   Michael Atanasov       : Ab Initio Ligand Field Theory (pilot matlab implementation)
   Alexander A. Auer      : GIAO ZORA, VPT2
   Ute Becker             : Parallelization
   Giovanni Bistoni       : ED, misc. LED, open-shell LED, HFLD
   Martin Brehm           : Molecular dynamics
   Dmytro Bykov           : SCF Hessian
   Vijay G. Chilkuri      : MRCI spin determinant printing, contributions to CSF-ICE
   Dipayan Datta          : RHF DLPNO-CCSD density
   Achintya Kumar Dutta   : EOM-CC, STEOM-CC
   Dmitry Ganyushin       : Spin-Orbit,Spin-Spin,Magnetic field MRCI
   Miquel Garcia          : C-PCM Hessian, Gaussian charge scheme
   Yang Guo               : DLPNO-NEVPT2, CIM, IAO-localization
   Andreas Hansen         : Spin unrestricted coupled pair/coupled cluster methods
   Benjamin Helmich-Paris : CASSCF linear response (MC-RPA)
   Lee Huntington         : MR-EOM, pCC
   Robert Izsak           : Overlap fitted RIJCOSX, COSX-SCS-MP3, EOM
   Christian Kollmar      : KDIIS, OOCD, Brueckner-CCSD(T), CCSD density
   Simone Kossmann        : Meta GGA functionals, TD-DFT gradient, OOMP2, MP2 Hessian
   Martin Krupicka        : AUTO-CI
   Lucas Lang             : DCDCAS
   Dagmar Lenk            : GEPOL surface, SMD
   Dimitrios Liakos       : Extrapolation schemes; Compound Job, initial MDCI parallelization
   Dimitrios Manganas     : Further ROCIS development; embedding schemes
   Dimitrios Pantazis     : SARC Basis sets
   Taras Petrenko         : DFT Hessian,TD-DFT gradient, ASA, ECA, R-Raman, ABS, FL, XAS/XES, NRVS
   Peter Pinski           : DLPNO-MP2, DLPNO-MP2 Gradient
   Christoph Reimann      : Effective Core Potentials
   Marius Retegan         : Local ZFS, SOC
   Christoph Riplinger    : Optimizer, TS searches, QM/MM, DLPNO-CCSD(T), (RO)-DLPNO pert. Triples
   Tobias Risthaus        : Range-separated hybrids, TD-DFT gradient, RPA, STAB
   Michael Roemelt        : Original ROCIS implementation
   Masaaki Saitow         : Open-shell DLPNO-CCSD energy and density
   Barbara Sandhoefer     : DKH picture change effects
   Avijit Sen             : IP-ROCIS
   Kantharuban Sivalingam : CASSCF convergence, NEVPT2, FIC-MRCI
   Bernardo de Souza      : ESD, SOC TD-DFT
   Georgi Stoychev        : AutoAux, RI-MP2 NMR
   Willem Van den Heuvel  : Paramagnetic NMR
   Boris Wezisla          : Elementary symmetry handling
   Frank Wennmohs         : Technical directorship


 We gratefully acknowledge several colleagues who have allowed us to
 interface, adapt or use parts of their codes:
   Stefan Grimme, W. Hujo, H. Kruse,             : VdW corrections, initial TS optimization,
                  C. Bannwarth                     DFT functionals, gCP, sTDA/sTD-DF
   Ed Valeev, F. Pavosevic, A. Kumar             : LibInt (2-el integral package), F12 methods
   Garnet Chan, S. Sharma, J. Yang, R. Olivares  : DMRG
   Ulf Ekstrom                                   : XCFun DFT Library
   Mihaly Kallay                                 : mrcc  (arbitrary order and MRCC methods)
   Andreas Klamt, Michael Diedenhofen            : otool_cosmo (COSMO solvation model)
   Jiri Pittner, Ondrej Demel                    : Mk-CCSD
   Frank Weinhold                                : gennbo (NPA and NBO analysis)
   Christopher J. Cramer and Donald G. Truhlar   : smd solvation model
   Lars Goerigk                                  : TD-DFT with DH, B97 family of functionals
   V. Asgeirsson, H. Jonsson                     : NEB implementation
   FAccTs GmbH                                   : IRC, NEB, NEB-TS, Multilevel, MM, QM/MM, CI optimization
   S Lehtola, MJT Oliveira, MAL Marques          : LibXC Library


 Your calculation uses the libint2 library for the computation of 2-el integrals
 For citations please refer to: http://libint.valeyev.net

 Your ORCA version has been built with support for libXC version: 4.2.3
 For citations please refer to: https://tddft.org/programs/libxc/

 This ORCA versions uses:
   CBLAS   interface :  Fast vector & matrix operations
   LAPACKE interface :  Fast linear algebra routines
   SCALAPACK package :  Parallel linear algebra routines




***************************************
The coordinates will be read from file: init.xyz
***************************************


Your calculation utilizes the SMD solvation module
Please cite in your paper:
A.V. Marenich, C.J. Cramer, D.G. Truhlar J. Phys. Chem. B, 113, (2009), 6378 

Your calculation utilizes the semiempirical GFN2-xTB method
Please cite in your paper:
C. Bannwarth, Ehlert S., S. Grimme,  J. Chem. Theory Comput., 15, (2019), 1652.
   

----- Orbital basis set information -----
Your calculation utilizes the basis: def2-SVP
   F. Weigend and R. Ahlrichs, Phys. Chem. Chem. Phys. 7, 3297 (2005).

================================================================================
                                        WARNINGS
                       Please study these warnings very carefully!
================================================================================

WARNING: Gradients needed for Numerical Frequencies
  ===> : Setting RunTyp to EnGrad

WARNING: The environment variable RSH_COMMAND is not set!
  ===> : All Displacements for the Numerical Hessian calculation
         will be started on localhost

WARNING: Found dipole moment calculation with XTB calculation
  ===> : Switching off dipole moment calculation


INFO   : the flag for use of LIBINT has been found!

================================================================================
                                       INPUT FILE
================================================================================
NAME = /tmp/slurm-scratch/freq.176/freq.inp
|  1> ! XTB2 NumFreq
|  2> %maxcore 1450
|  3> 
|  4> * xyzfile 0 1 init.xyz
|  5> 
|  6> %cpcm
|  7>  smd true
|  8>  smdsolvent "ch2cl2"
|  9> end
| 10> %pal nprocs 8 end
| 11> 
| 12>                          ****END OF INPUT****
================================================================================

                     *******************************
                     * Energy+Gradient Calculation *
                     *******************************

      -----------------------------------------------------------      
     |                   =====================                   |     
     |                           x T B                           |     
     |                   =====================                   |     
     |                         S. Grimme                         |     
     |          Mulliken Center for Theoretical Chemistry        |     
     |                    University of Bonn                     |     
      -----------------------------------------------------------      

   * xtb version 6.3.0 (preview) compiled by 'ehlert@majestix' on 2020-01-15

   This program is distributed in the hope that it will be useful,
   but WITHOUT ANY WARRANTY; without even the implied warranty of
   MERCHANTABILITY or FITNESS FOR A PARTICULAR PURPOSE.
   
   FOR NON-COMMERCIAL, ACADEMIA USE ONLY.
   
   Cite this work as:
   * S. Grimme, C. Bannwarth, P. Shushkov, J. Chem. Theory Comput., 2017,
     13, 1989-2009. DOI: 10.1021/acs.jctc.7b00118
   * C. Bannwarth, S. Ehlert and S. Grimme., J. Chem. Theory Comput., 2019,
     15, 1652-1671. DOI: 10.1021/acs.jctc.8b01176
   * P. Pracht, E. Caldeweyher, S. Ehlert, S. Grimme, ChemRxiv, 2019, preprint.
     DOI: 10.26434/chemrxiv.8326202.v1
   * S. Grimme, S. Spicher unpublished
   
   for DFT-D4:
   * E. Caldeweyher, C. Bannwarth and S. Grimme, J. Chem. Phys., 2017,
     147, 034112. DOI: 10.1063/1.4993215
   * E. Caldeweyher, S. Ehlert, A. Hansen, H. Neugebauer, S. Spicher,
     C. Bannwarth and S. Grimme, J. Chem. Phys., 2019, 150, 154122.
     DOI: 10.1063/1.5090222
   
   for sTDA-xTB:
   * S. Grimme and C. Bannwarth, J. Chem. Phys., 2016, 145, 054103.
     DOI: 10.1063/1.4959605
   
   in the mass-spec context:
   * V. Asgeirsson, C. Bauer and S. Grimme, Chem. Sci., 2017, 8, 4879.
     DOI: 10.1039/c7sc00601b
   
   for metadynamics refer to:
   * S. Grimme, J. Chem. Theory Comput., 2019, 155, 2847-2862
     DOI: 10.1021/acs.jctc.9b00143
   
   with help from (in alphabetical order)
   C. Bannwarth, F. Bohle, G. Brandenburg, E. Caldeweyher, M. Checinski,
   S. Dohm, S. Ehlert, S. Ehrlich, F. März, H. Neugebauer, J. Pisarek,
   P. Pracht, P. Shushkov, and S. Spicher.
   
 * started run on 2020/09/03 at 18:15:20.997     

           -------------------------------------------------
          |                Calculation Setup                |
           -------------------------------------------------

          program call               : /opt/orca/otool_xtb /tmp/slurm-scratch/freq.176/freq_XTB.xyz --grad -c 0 -u 0 -P 8 --namespace /tmp/slurm-scratch/freq.176/freq --gbsa CH2Cl2
          hostname                   : headnode-pbs
          calculation namespace      : /tmp/slurm-scratch/freq.176/freq
          coordinate file            : /tmp/slurm-scratch/freq.176/freq_XTB.xyz
          omp threads                :                     8
          number of atoms            :                    30
          number of electrons        :                    72
          charge                     :                     0
          spin                       :                   0.0
          first test random number   :      0.90466765076702


molecular fragmentation (1/2 indicates fragments):
111111111111222222222222112222
# atoms in fragment 1/2:    14    16
 fragment masses (1/2) :      106.12       73.14
CMA distance (Bohr)    :   6.761
constraining FC (au)   :  0.0500

########################################################################
# WARNING! Please study the warnings concerning your input carefully
#  - Process number higher than OMP_NUM_THREADS, I hope you know what you are doing.
########################################################################

           ------------------------------------------------- 
          |                 G F N 2 - x T B                 |
          | Geometry, Frequencies, Noncovalent interactions |
          |            JCTC 2019 parametrisation            |
           ------------------------------------------------- 
             k(s)              :                1.8500
             k(p)              :                2.2300
             k(d)              :                2.2300
             k(f)              :                2.0000
             kEN (H0ij)        :               -2.0000
             D4 a1             :                0.5200
             D4 a2             :                5.0000
             D4 s6             :                1.0000
             D4 s8             :                2.7000
             D4 s9             :                5.0000
             alphaj            :                2.0000

  Z AO/shell   Hii/eV     exponent
  1     Wed Apr 25 08:07:45 CEST 2018   EN: 2.200 GM2: 0.406  GM3: 0.0800  RAES: 1.40
     1s    -10.707211    1.230000
  6     Wed Apr 25 08:07:45 CEST 2018   EN: 2.550 GM2: 0.538  GM3: 0.1500  RAES: 3.00
     2s    -13.970922    2.096432
     2p    -10.063292    1.800000
  7     Wed Apr 25 08:07:45 CEST 2018   EN: 3.040 GM2: 0.461  GM3:-0.0640  RAES: 1.90
     2s    -16.686243    2.339881
     2p    -12.523956    2.014332
  8     Wed Apr 25 08:07:45 CEST 2018   EN: 3.440 GM2: 0.452  GM3:-0.0517  RAES: 1.80
     2s    -20.229985    2.439742
     2p    -15.503117    2.137023

 Solvent             : CH2Cl2
 Using internal parameter file: .param_gbsa2_CH2Cl2
 Gsolv ref. state (COSMO-RS): gsolv [1 M gas/solution]
 temperature (mdtemp)       :    298.150000000000     
 dielectric constant        :    8.93000000000000     
 rho                        :    1.33000000000000     
 mass                       :    84.9300000000000     
 surface tension            :    15.5689454083859     
 probe radius               :   0.719875900000000     
 Gshift (Eh)                :   4.440829173451759E-003
 c1                         :    1.49173776000000     
 soset                      :   0.000000000000000E+000
 HB correction              :  F
           ------------------------------------------------- 
          |        Self-Consistent Charge Iterations        |
           ------------------------------------------------- 

          ...................................................
          :                      SETUP                      :
          :.................................................:
          :  # basis functions                  69          :
          :  # atomic orbitals                  69          :
          :  # shells                           43          :
          :  # electrons                        72          :
          :  max. iterations                   250          :
          :  Hamiltonian                  GFN2-xTB          :
          :  GBSA solvation                   true          :
          :  PC potential                    false          :
          :  electronic temp.          300.0000000     K    :
          :  accuracy                    1.0000000          :
          :  -> integral cutoff          0.2500000E+02      :
          :  -> integral neglect         0.1000000E-07      :
          :  -> SCF convergence          0.1000000E-05 Eh   :
          :  -> wf. convergence          0.1000000E-03 e    :
          :  Broyden damping             0.4000000          :
          ...................................................
  Checking positiv definite overlap ...  done.
 

 iter      E             dE          RMSdq      gap      omega  full diag
   1    -39.6894522 -0.396895E+02  0.420E+00    2.42       0.0  T
   2    -39.7543802 -0.649280E-01  0.225E+00    2.29       1.0  T
   3    -39.7546253 -0.245069E-03  0.109E+00    2.49       1.0  T
   4    -39.7593543 -0.472904E-02  0.206E-01    2.33       1.0  T
   5    -39.7599846 -0.630208E-03  0.707E-02    2.34       1.0  T
   6    -39.7600202 -0.356359E-04  0.362E-02    2.35       1.0  T
   7    -39.7600316 -0.113912E-04  0.116E-02    2.35       1.6  T
   8    -39.7600322 -0.581089E-06  0.399E-03    2.35       4.6  T
   9    -39.7600323 -0.934532E-07  0.169E-03    2.35      10.8  T
  10    -39.7600323 -0.221183E-07  0.816E-04    2.35      22.4  T
  11    -39.7600323 -0.299548E-08  0.368E-04    2.35      49.6  T

   *** convergence criteria satisfied after 11 iterations ***

         #    Occupation            Energy/Eh            Energy/eV
      -------------------------------------------------------------
         1        2.0000           -0.7130958             -19.4043
       ...           ...                  ...                  ...
        30        2.0000           -0.4355291             -11.8514
        31        2.0000           -0.4318134             -11.7502
        32        2.0000           -0.4240867             -11.5400
        33        2.0000           -0.4181403             -11.3782
        34        2.0000           -0.4155606             -11.3080
        35        2.0000           -0.4011566             -10.9160
        36        2.0000           -0.3776405             -10.2761 (HOMO)
        37                         -0.2911763              -7.9233 (LUMO)
        38                         -0.2354368              -6.4066
        39                         -0.2017146              -5.4889
        40                         -0.0956776              -2.6035
        41                          0.0236337               0.6431
       ...                                ...                  ...
        69                          0.6513803              17.7250
      -------------------------------------------------------------
                  HL-Gap            0.0864643 Eh            2.3528 eV
             Fermi-level           -0.3344084 Eh           -9.0997 eV

 SCC (total)                   0 d,  0 h,  0 min,  0.158 sec
 SCC setup                      ...        0 min,  0.010 sec (  6.088%)
 Dispersion                     ...        0 min,  0.001 sec (  0.835%)
 integral evaluation            ...        0 min,  0.015 sec (  9.683%)
 zeroth order Hamiltonian       ...        0 min,  0.000 sec (  0.006%)
 iterations                     ...        0 min,  0.124 sec ( 78.585%)
 molecular gradient             ...        0 min,  0.007 sec (  4.262%)
 printout                       ...        0 min,  0.001 sec (  0.515%)

         :::::::::::::::::::::::::::::::::::::::::::::::::::::
         ::                     SUMMARY                     ::
         :::::::::::::::::::::::::::::::::::::::::::::::::::::
         :: total energy             -39.180591064200 Eh    ::
         :: total w/o Gsasa/hb       -39.165898816535 Eh    ::
         :: gradient norm              0.022465285669 Eh/a0 ::
         :: HOMO-LUMO gap              2.352812087812 eV    ::
         ::.................................................::
         :: SCC energy               -39.774724526558 Eh    ::
         :: -> isotropic ES            0.044849943364 Eh    ::
         :: -> anisotropic ES          0.004818771592 Eh    ::
         :: -> anisotropic XC          0.025632770458 Eh    ::
         :: -> dispersion             -0.026223722147 Eh    ::
         :: -> Gsolv                  -0.021171895297 Eh    ::
         ::    -> Gborn               -0.006479647631 Eh    ::
         ::    -> Gsasa               -0.019133076839 Eh    ::
         ::    -> Ghb                  0.000000000000 Eh    ::
         ::    -> Gshift               0.004440829173 Eh    ::
         :: repulsion energy           0.593554403434 Eh    ::
         :: add. restraining           0.000000000000 Eh    ::
         :::::::::::::::::::::::::::::::::::::::::::::::::::::

           -------------------------------------------------
          |                Property Printout                |
           -------------------------------------------------

    * Orbital Energies and Occupations

         #    Occupation            Energy/Eh            Energy/eV
      -------------------------------------------------------------
         1        2.0000           -0.7130958             -19.4043
       ...           ...                  ...                  ...
        24        2.0000           -0.4855697             -13.2130
        25        2.0000           -0.4801462             -13.0654
        26        2.0000           -0.4652804             -12.6609
        27        2.0000           -0.4473240             -12.1723
        28        2.0000           -0.4457170             -12.1286
        29        2.0000           -0.4382517             -11.9254
        30        2.0000           -0.4355291             -11.8514
        31        2.0000           -0.4318134             -11.7502
        32        2.0000           -0.4240867             -11.5400
        33        2.0000           -0.4181403             -11.3782
        34        2.0000           -0.4155606             -11.3080
        35        2.0000           -0.4011566             -10.9160
        36        2.0000           -0.3776405             -10.2761 (HOMO)
        37                         -0.2911763              -7.9233 (LUMO)
        38                         -0.2354368              -6.4066
        39                         -0.2017146              -5.4889
        40                         -0.0956776              -2.6035
        41                          0.0236337               0.6431
        42                          0.0894855               2.4350
        43                          0.0918976               2.5007
        44                          0.1069764               2.9110
        45                          0.1153339               3.1384
        46                          0.1288997               3.5075
        47                          0.1342937               3.6543
       ...                                ...                  ...
        69                          0.6513803              17.7250
      -------------------------------------------------------------
                  HL-Gap            0.0864643 Eh            2.3528 eV
             Fermi-level           -0.3344084 Eh           -9.0997 eV

     #   Z        covCN         q      C6AA      α(0)
     1   6 C      2.921    -0.021    28.535     8.760
     2   6 C      2.968    -0.006    28.165     8.705
     3   6 C      2.919    -0.010    28.273     8.719
     4   6 C      2.914    -0.023    28.586     8.767
     5   6 C      2.917    -0.017    28.431     8.744
     6   6 C      2.913    -0.024    28.610     8.771
     7   1 H      0.925     0.050     2.316     2.380
     8   1 H      0.926     0.050     2.319     2.381
     9   1 H      0.925     0.052     2.291     2.367
    10   6 C      2.766     0.214    23.483     7.936
    11   1 H      0.923     0.025     2.665     2.553
    12   8 O      0.856    -0.395    21.582     6.228
    13   7 N      2.628    -0.367    29.462     8.061
    14   1 H      0.860     0.139     1.475     1.902
    15   6 C      3.803    -0.065    21.750     6.640
    16   6 C      3.731     0.024    20.258     6.425
    17   1 H      0.924     0.029     2.598     2.521
    18   1 H      0.923     0.006     2.962     2.691
    19   1 H      0.924     0.041     2.430     2.438
    20   1 H      0.924     0.034     2.528     2.486
    21   1 H      0.860     0.146     1.429     1.873
    22   6 C      3.800    -0.053    21.531     6.607
    23   1 H      0.924     0.031     2.575     2.510
    24   1 H      0.924     0.030     2.583     2.514
    25   1 H      0.925     0.050     2.314     2.379
    26   1 H      0.925     0.052     2.300     2.372
    27   6 C      3.750    -0.102    22.522     6.768
    28   1 H      0.924     0.038     2.478     2.462
    29   1 H      0.924     0.035     2.513     2.479
    30   1 H      0.924     0.037     2.484     2.465

 Mol. C6AA /au·bohr⁶  :       8347.680959
 Mol. C8AA /au·bohr⁸  :     188453.329549
 Mol. α(0) /au        :        141.903197


Wiberg/Mayer (AO) data.
largest (>0.10) Wiberg bond orders for each atom
          total WBO             WBO to atom ...
     1  C   3.989        C    6 1.456    C    2 1.370    H    7 0.967    C    4 0.105
     2  C   3.989        C    1 1.370    C    3 1.365    C   10 1.067
     3  C   3.990        C    4 1.462    C    2 1.365    H    8 0.967    C    6 0.105
     4  C   3.991        C    3 1.462    C    5 1.424    H   25 0.969    C    1 0.105
     5  C   3.989        C    6 1.431    C    4 1.424    H    9 0.970
     6  C   3.991        C    1 1.456    C    5 1.431    H   26 0.969    C    3 0.105
     7  H   0.997        C    1 0.967
     8  H   0.997        C    3 0.967
     9  H   0.997        C    5 0.970
    10  C   3.910        O   12 1.827    C    2 1.067    H   11 0.935
    11  H   0.999        C   10 0.935
    12  O   2.038        C   10 1.827
    13  N   2.999        C   16 1.015    H   14 0.967    H   21 0.966
    14  H   0.980        N   13 0.967
    15  C   3.996        C   22 1.007    C   16 1.006    H   20 0.976    H   19 0.974
    16  C   3.983        N   13 1.015    C   15 1.006    H   17 0.974    H   18 0.971
    17  H   0.999        C   16 0.974
    18  H   1.000        C   16 0.971
    19  H   0.998        C   15 0.974
    20  H   0.999        C   15 0.976
    21  H   0.979        N   13 0.966
    22  C   3.997        C   27 1.020    C   15 1.007    H   24 0.978    H   23 0.977
    23  H   0.999        C   22 0.977
    24  H   0.999        C   22 0.978
    25  H   0.997        C    4 0.969
    26  H   0.997        C    6 0.969
    27  C   3.996        C   22 1.020    H   29 0.988    H   30 0.987    H   28 0.987
    28  H   0.998        C   27 0.987
    29  H   0.999        C   27 0.988
    30  H   0.999        C   27 0.987

molecular dipole:
                 x           y           z       tot (Debye)
 q only:       -1.708       0.254      -0.297
   full:       -1.507      -0.004      -0.524       4.055
molecular quadrupole (traceless):
                xx          xy          yy          xz          yz          zz
 q only:       -5.316      -0.026       4.121      -2.498      -0.835       1.195
  q+dip:       -6.217      -1.344       6.252      -5.449       0.335      -0.035
   full:       -7.627      -1.522       5.216      -4.879       1.770       2.411

           -------------------------------------------------
          |                Property Printout                |
           -------------------------------------------------

    * Orbital Energies and Occupations

         #    Occupation            Energy/Eh            Energy/eV
      -------------------------------------------------------------
         1        2.0000           -0.7130958             -19.4043
       ...           ...                  ...                  ...
        24        2.0000           -0.4855697             -13.2130
        25        2.0000           -0.4801462             -13.0654
        26        2.0000           -0.4652804             -12.6609
        27        2.0000           -0.4473240             -12.1723
        28        2.0000           -0.4457170             -12.1286
        29        2.0000           -0.4382517             -11.9254
        30        2.0000           -0.4355291             -11.8514
        31        2.0000           -0.4318134             -11.7502
        32        2.0000           -0.4240867             -11.5400
        33        2.0000           -0.4181403             -11.3782
        34        2.0000           -0.4155606             -11.3080
        35        2.0000           -0.4011566             -10.9160
        36        2.0000           -0.3776405             -10.2761 (HOMO)
        37                         -0.2911763              -7.9233 (LUMO)
        38                         -0.2354368              -6.4066
        39                         -0.2017146              -5.4889
        40                         -0.0956776              -2.6035
        41                          0.0236337               0.6431
        42                          0.0894855               2.4350
        43                          0.0918976               2.5007
        44                          0.1069764               2.9110
        45                          0.1153339               3.1384
        46                          0.1288997               3.5075
        47                          0.1342937               3.6543
       ...                                ...                  ...
        69                          0.6513803              17.7250
      -------------------------------------------------------------
                  HL-Gap            0.0864643 Eh            2.3528 eV
             Fermi-level           -0.3344084 Eh           -9.0997 eV

     #   Z        covCN         q      C6AA      α(0)
     1   6 C      2.921    -0.021    28.535     8.760
     2   6 C      2.968    -0.006    28.165     8.705
     3   6 C      2.919    -0.010    28.273     8.719
     4   6 C      2.914    -0.023    28.586     8.767
     5   6 C      2.917    -0.017    28.431     8.744
     6   6 C      2.913    -0.024    28.610     8.771
     7   1 H      0.925     0.050     2.316     2.380
     8   1 H      0.926     0.050     2.319     2.381
     9   1 H      0.925     0.052     2.291     2.367
    10   6 C      2.766     0.214    23.483     7.936
    11   1 H      0.923     0.025     2.665     2.553
    12   8 O      0.856    -0.395    21.582     6.228
    13   7 N      2.628    -0.367    29.462     8.061
    14   1 H      0.860     0.139     1.475     1.902
    15   6 C      3.803    -0.065    21.750     6.640
    16   6 C      3.731     0.024    20.258     6.425
    17   1 H      0.924     0.029     2.598     2.521
    18   1 H      0.923     0.006     2.962     2.691
    19   1 H      0.924     0.041     2.430     2.438
    20   1 H      0.924     0.034     2.528     2.486
    21   1 H      0.860     0.146     1.429     1.873
    22   6 C      3.800    -0.053    21.531     6.607
    23   1 H      0.924     0.031     2.575     2.510
    24   1 H      0.924     0.030     2.583     2.514
    25   1 H      0.925     0.050     2.314     2.379
    26   1 H      0.925     0.052     2.300     2.372
    27   6 C      3.750    -0.102    22.522     6.768
    28   1 H      0.924     0.038     2.478     2.462
    29   1 H      0.924     0.035     2.513     2.479
    30   1 H      0.924     0.037     2.484     2.465

 Mol. C6AA /au·bohr⁶  :       8347.680959
 Mol. C8AA /au·bohr⁸  :     188453.329549
 Mol. α(0) /au        :        141.903197


Wiberg/Mayer (AO) data.
largest (>0.10) Wiberg bond orders for each atom
          total WBO             WBO to atom ...
     1  C   3.989        C    6 1.456    C    2 1.370    H    7 0.967    C    4 0.105
     2  C   3.989        C    1 1.370    C    3 1.365    C   10 1.067
     3  C   3.990        C    4 1.462    C    2 1.365    H    8 0.967    C    6 0.105
     4  C   3.991        C    3 1.462    C    5 1.424    H   25 0.969    C    1 0.105
     5  C   3.989        C    6 1.431    C    4 1.424    H    9 0.970
     6  C   3.991        C    1 1.456    C    5 1.431    H   26 0.969    C    3 0.105
     7  H   0.997        C    1 0.967
     8  H   0.997        C    3 0.967
     9  H   0.997        C    5 0.970
    10  C   3.910        O   12 1.827    C    2 1.067    H   11 0.935
    11  H   0.999        C   10 0.935
    12  O   2.038        C   10 1.827
    13  N   2.999        C   16 1.015    H   14 0.967    H   21 0.966
    14  H   0.980        N   13 0.967
    15  C   3.996        C   22 1.007    C   16 1.006    H   20 0.976    H   19 0.974
    16  C   3.983        N   13 1.015    C   15 1.006    H   17 0.974    H   18 0.971
    17  H   0.999        C   16 0.974
    18  H   1.000        C   16 0.971
    19  H   0.998        C   15 0.974
    20  H   0.999        C   15 0.976
    21  H   0.979        N   13 0.966
    22  C   3.997        C   27 1.020    C   15 1.007    H   24 0.978    H   23 0.977
    23  H   0.999        C   22 0.977
    24  H   0.999        C   22 0.978
    25  H   0.997        C    4 0.969
    26  H   0.997        C    6 0.969
    27  C   3.996        C   22 1.020    H   29 0.988    H   30 0.987    H   28 0.987
    28  H   0.998        C   27 0.987
    29  H   0.999        C   27 0.988
    30  H   0.999        C   27 0.987

molecular dipole:
                 x           y           z       tot (Debye)
 q only:       -1.708       0.254      -0.297
   full:       -1.507      -0.004      -0.524       4.055
molecular quadrupole (traceless):
                xx          xy          yy          xz          yz          zz
 q only:       -5.316      -0.026       4.121      -2.498      -0.835       1.195
  q+dip:       -6.217      -1.344       6.252      -5.449       0.335      -0.035
   full:       -7.627      -1.522       5.216      -4.879       1.770       2.411


           -------------------------------------------------
          | TOTAL ENERGY              -39.180591064200 Eh   |
          | GRADIENT NORM               0.022465285669 Eh/α |
          | HOMO-LUMO GAP               2.352812087812 eV   |
           -------------------------------------------------

------------------------------------------------------------------------
 * finished run on 2020/09/03 at 18:15:21.359     
------------------------------------------------------------------------
 total:
 * wall-time:     0 d,  0 h,  0 min,  0.362 sec
 *  cpu-time:     0 d,  0 h,  0 min,  1.784 sec
 * ratio c/w:     4.933 speedup
 SCF:
 * wall-time:     0 d,  0 h,  0 min,  0.165 sec
 *  cpu-time:     0 d,  0 h,  0 min,  0.887 sec
 * ratio c/w:     5.377 speedup


-------------------------   --------------------
FINAL SINGLE POINT ENERGY       -39.180591064200
-------------------------   --------------------


----------------------------------------------------------------------------
                           ORCA NUMERICAL FREQUENCIES
                              (8-process run)
----------------------------------------------------------------------------

Number of atoms                ... 30
Central differences            ... used
Number of displacements        ... 180
Numerical increment            ... 5.000e-03 bohr
IR-spectrum generation         ... on
Raman-spectrum generation      ... off
Surface Crossing Hessian       ... off
List of participating nodes    ...  /tmp/slurm-scratch/freq.176/freq.hostnames

The output will be reduced. Please look at the following files:
SCF program output             ... >/tmp/slurm-scratch/freq.176/freq.lastscf
Integral program output        ... >/tmp/slurm-scratch/freq.176/freq.lastint
Gradient program output        ... >/tmp/slurm-scratch/freq.176/freq.lastgrad
Dipole moment program output   ... >/tmp/slurm-scratch/freq.176/freq.lastmom
AutoCI program output          ... >/tmp/slurm-scratch/freq.176/freq.lastautoci


         <<< Energy and Gradient at the input geometry >>>

        <<< Energy and Gradient at displaced geometries >>>
             <<<Displacing   1/coordinate 1 (+)>>>
             <<<Displacing   3/coordinate 1 (+)>>>
             <<<Displacing   2/coordinate 1 (+)>>>
             <<<Displacing   1/coordinate 3 (+)>>>
             <<<Displacing   1/coordinate 2 (+)>>>
             <<<Displacing   2/coordinate 2 (+)>>>
             <<<Displacing   2/coordinate 3 (+)>>>
             <<<Displacing   3/coordinate 2 (+)>>>
             <<<Displacing   3/coordinate 2 (-)>>>
             <<<Displacing   2/coordinate 1 (-)>>>
             <<<Displacing   2/coordinate 3 (-)>>>
             <<<Displacing   1/coordinate 2 (-)>>>
             <<<Displacing   1/coordinate 1 (-)>>>
             <<<Displacing   1/coordinate 3 (-)>>>
             <<<Displacing   2/coordinate 2 (-)>>>
             <<<Displacing   3/coordinate 1 (-)>>>
             <<<Displacing   4/coordinate 1 (+)>>>
             <<<Displacing   4/coordinate 2 (+)>>>
             <<<Displacing   3/coordinate 3 (+)>>>
             <<<Displacing   5/coordinate 1 (+)>>>
             <<<Displacing   4/coordinate 3 (+)>>>
             <<<Displacing   6/coordinate 1 (+)>>>
             <<<Displacing   5/coordinate 3 (+)>>>
             <<<Displacing   3/coordinate 3 (-)>>>
             <<<Displacing   5/coordinate 2 (+)>>>
             <<<Displacing   4/coordinate 1 (-)>>>
             <<<Displacing   4/coordinate 2 (-)>>>
             <<<Displacing   5/coordinate 1 (-)>>>
             <<<Displacing   5/coordinate 3 (-)>>>
             <<<Displacing   6/coordinate 1 (-)>>>
             <<<Displacing   4/coordinate 3 (-)>>>
             <<<Displacing   5/coordinate 2 (-)>>>
             <<<Displacing   6/coordinate 2 (+)>>>
             <<<Displacing   6/coordinate 3 (+)>>>
             <<<Displacing   7/coordinate 2 (+)>>>
             <<<Displacing   7/coordinate 1 (+)>>>
             <<<Displacing   8/coordinate 2 (+)>>>
             <<<Displacing   6/coordinate 2 (-)>>>
             <<<Displacing   7/coordinate 3 (+)>>>
             <<<Displacing   8/coordinate 3 (+)>>>
             <<<Displacing   6/coordinate 3 (-)>>>
             <<<Displacing   7/coordinate 2 (-)>>>
             <<<Displacing   7/coordinate 1 (-)>>>
             <<<Displacing   8/coordinate 2 (-)>>>
             <<<Displacing   7/coordinate 3 (-)>>>
             <<<Displacing   8/coordinate 3 (-)>>>
             <<<Displacing   8/coordinate 1 (+)>>>
             <<<Displacing   8/coordinate 1 (-)>>>
             <<<Displacing   9/coordinate 1 (+)>>>
             <<<Displacing   9/coordinate 3 (+)>>>
             <<<Displacing  10/coordinate 1 (+)>>>
             <<<Displacing   9/coordinate 2 (+)>>>
             <<<Displacing   9/coordinate 1 (-)>>>
             <<<Displacing  10/coordinate 3 (+)>>>
             <<<Displacing  10/coordinate 2 (+)>>>
             <<<Displacing  11/coordinate 1 (+)>>>
             <<<Displacing   9/coordinate 3 (-)>>>
             <<<Displacing  10/coordinate 1 (-)>>>
             <<<Displacing   9/coordinate 2 (-)>>>
             <<<Displacing  10/coordinate 2 (-)>>>
             <<<Displacing  10/coordinate 3 (-)>>>
             <<<Displacing  11/coordinate 1 (-)>>>
             <<<Displacing  11/coordinate 2 (+)>>>
             <<<Displacing  11/coordinate 2 (-)>>>
             <<<Displacing  11/coordinate 3 (+)>>>
             <<<Displacing  12/coordinate 2 (+)>>>
             <<<Displacing  11/coordinate 3 (-)>>>
             <<<Displacing  12/coordinate 3 (+)>>>
             <<<Displacing  12/coordinate 1 (+)>>>
             <<<Displacing  13/coordinate 2 (+)>>>
             <<<Displacing  13/coordinate 3 (+)>>>
             <<<Displacing  13/coordinate 1 (+)>>>
             <<<Displacing  12/coordinate 2 (-)>>>
             <<<Displacing  12/coordinate 3 (-)>>>
             <<<Displacing  12/coordinate 1 (-)>>>
             <<<Displacing  13/coordinate 2 (-)>>>
             <<<Displacing  14/coordinate 1 (+)>>>
             <<<Displacing  13/coordinate 3 (-)>>>
             <<<Displacing  13/coordinate 1 (-)>>>
             <<<Displacing  14/coordinate 1 (-)>>>
             <<<Displacing  14/coordinate 2 (+)>>>
             <<<Displacing  14/coordinate 3 (+)>>>
             <<<Displacing  15/coordinate 1 (+)>>>
             <<<Displacing  14/coordinate 2 (-)>>>
             <<<Displacing  15/coordinate 2 (+)>>>
             <<<Displacing  14/coordinate 3 (-)>>>
             <<<Displacing  15/coordinate 1 (-)>>>
             <<<Displacing  15/coordinate 3 (+)>>>
             <<<Displacing  15/coordinate 2 (-)>>>
             <<<Displacing  16/coordinate 1 (+)>>>
             <<<Displacing  16/coordinate 2 (+)>>>
             <<<Displacing  16/coordinate 3 (+)>>>
             <<<Displacing  15/coordinate 3 (-)>>>
             <<<Displacing  16/coordinate 1 (-)>>>
             <<<Displacing  16/coordinate 2 (-)>>>
             <<<Displacing  16/coordinate 3 (-)>>>
             <<<Displacing  17/coordinate 1 (+)>>>
             <<<Displacing  17/coordinate 2 (+)>>>
             <<<Displacing  17/coordinate 1 (-)>>>
             <<<Displacing  17/coordinate 3 (+)>>>
             <<<Displacing  18/coordinate 1 (+)>>>
             <<<Displacing  17/coordinate 2 (-)>>>
             <<<Displacing  18/coordinate 2 (+)>>>
             <<<Displacing  17/coordinate 3 (-)>>>
             <<<Displacing  18/coordinate 3 (+)>>>
             <<<Displacing  18/coordinate 1 (-)>>>
             <<<Displacing  19/coordinate 1 (+)>>>
             <<<Displacing  18/coordinate 2 (-)>>>
             <<<Displacing  18/coordinate 3 (-)>>>
             <<<Displacing  19/coordinate 2 (+)>>>
             <<<Displacing  19/coordinate 1 (-)>>>
             <<<Displacing  19/coordinate 2 (-)>>>
             <<<Displacing  19/coordinate 3 (+)>>>
             <<<Displacing  20/coordinate 3 (+)>>>
             <<<Displacing  20/coordinate 2 (+)>>>
             <<<Displacing  20/coordinate 1 (+)>>>
             <<<Displacing  19/coordinate 3 (-)>>>
             <<<Displacing  20/coordinate 2 (-)>>>
             <<<Displacing  21/coordinate 1 (+)>>>
             <<<Displacing  20/coordinate 3 (-)>>>
             <<<Displacing  20/coordinate 1 (-)>>>
             <<<Displacing  21/coordinate 2 (+)>>>
             <<<Displacing  21/coordinate 3 (+)>>>
             <<<Displacing  21/coordinate 1 (-)>>>
             <<<Displacing  21/coordinate 2 (-)>>>
             <<<Displacing  22/coordinate 1 (+)>>>
             <<<Displacing  21/coordinate 3 (-)>>>
             <<<Displacing  22/coordinate 1 (-)>>>
             <<<Displacing  22/coordinate 2 (+)>>>
             <<<Displacing  22/coordinate 3 (+)>>>
             <<<Displacing  23/coordinate 1 (+)>>>
             <<<Displacing  22/coordinate 2 (-)>>>
             <<<Displacing  23/coordinate 2 (+)>>>
             <<<Displacing  22/coordinate 3 (-)>>>
             <<<Displacing  23/coordinate 1 (-)>>>
             <<<Displacing  23/coordinate 2 (-)>>>
             <<<Displacing  24/coordinate 3 (+)>>>
             <<<Displacing  24/coordinate 2 (+)>>>
             <<<Displacing  23/coordinate 3 (+)>>>
             <<<Displacing  24/coordinate 1 (+)>>>
             <<<Displacing  24/coordinate 3 (-)>>>
             <<<Displacing  24/coordinate 2 (-)>>>
             <<<Displacing  23/coordinate 3 (-)>>>
             <<<Displacing  24/coordinate 1 (-)>>>
             <<<Displacing  25/coordinate 1 (+)>>>
             <<<Displacing  25/coordinate 2 (+)>>>
             <<<Displacing  25/coordinate 1 (-)>>>
             <<<Displacing  25/coordinate 3 (+)>>>
             <<<Displacing  26/coordinate 1 (+)>>>
             <<<Displacing  25/coordinate 2 (-)>>>
             <<<Displacing  25/coordinate 3 (-)>>>
             <<<Displacing  26/coordinate 1 (-)>>>
             <<<Displacing  26/coordinate 3 (+)>>>
             <<<Displacing  26/coordinate 2 (+)>>>
             <<<Displacing  27/coordinate 1 (+)>>>
             <<<Displacing  27/coordinate 2 (+)>>>
             <<<Displacing  26/coordinate 3 (-)>>>
             <<<Displacing  26/coordinate 2 (-)>>>
             <<<Displacing  27/coordinate 1 (-)>>>
             <<<Displacing  27/coordinate 2 (-)>>>
             <<<Displacing  27/coordinate 3 (+)>>>
             <<<Displacing  28/coordinate 1 (+)>>>
             <<<Displacing  27/coordinate 3 (-)>>>
             <<<Displacing  28/coordinate 1 (-)>>>
             <<<Displacing  28/coordinate 3 (+)>>>
             <<<Displacing  28/coordinate 2 (+)>>>
             <<<Displacing  28/coordinate 3 (-)>>>
             <<<Displacing  28/coordinate 2 (-)>>>
             <<<Displacing  29/coordinate 1 (+)>>>
             <<<Displacing  29/coordinate 3 (+)>>>
             <<<Displacing  29/coordinate 2 (+)>>>
             <<<Displacing  30/coordinate 1 (+)>>>
             <<<Displacing  29/coordinate 1 (-)>>>
             <<<Displacing  29/coordinate 3 (-)>>>
             <<<Displacing  29/coordinate 2 (-)>>>
             <<<Displacing  30/coordinate 1 (-)>>>
             <<<Displacing  30/coordinate 2 (+)>>>
             <<<Displacing  30/coordinate 3 (+)>>>
             <<<Displacing  30/coordinate 2 (-)>>>
             <<<Displacing  30/coordinate 3 (-)>>>

-----------------------
VIBRATIONAL FREQUENCIES
-----------------------

Scaling factor for frequencies =  1.000000000 (already applied!)

   0:         0.00 cm**-1
   1:         0.00 cm**-1
   2:         0.00 cm**-1
   3:         0.00 cm**-1
   4:         0.00 cm**-1
   5:         0.00 cm**-1
   6:        24.85 cm**-1
   7:        38.59 cm**-1
   8:        42.45 cm**-1
   9:        49.12 cm**-1
  10:        78.42 cm**-1
  11:        79.43 cm**-1
  12:       121.69 cm**-1
  13:       127.60 cm**-1
  14:       151.52 cm**-1
  15:       192.25 cm**-1
  16:       215.22 cm**-1
  17:       234.02 cm**-1
  18:       257.65 cm**-1
  19:       269.62 cm**-1
  20:       380.53 cm**-1
  21:       394.64 cm**-1
  22:       413.70 cm**-1
  23:       433.87 cm**-1
  24:       438.53 cm**-1
  25:       587.07 cm**-1
  26:       626.83 cm**-1
  27:       660.69 cm**-1
  28:       747.71 cm**-1
  29:       768.39 cm**-1
  30:       821.74 cm**-1
  31:       824.17 cm**-1
  32:       882.08 cm**-1
  33:       903.21 cm**-1
  34:       917.17 cm**-1
  35:       926.89 cm**-1
  36:       932.40 cm**-1
  37:       936.59 cm**-1
  38:       942.05 cm**-1
  39:       973.91 cm**-1
  40:       984.66 cm**-1
  41:      1001.03 cm**-1
  42:      1063.91 cm**-1
  43:      1066.44 cm**-1
  44:      1097.54 cm**-1
  45:      1113.42 cm**-1
  46:      1122.97 cm**-1
  47:      1149.83 cm**-1
  48:      1176.67 cm**-1
  49:      1179.87 cm**-1
  50:      1200.37 cm**-1
  51:      1209.19 cm**-1
  52:      1234.95 cm**-1
  53:      1270.31 cm**-1
  54:      1276.36 cm**-1
  55:      1280.89 cm**-1
  56:      1292.24 cm**-1
  57:      1303.78 cm**-1
  58:      1354.70 cm**-1
  59:      1363.57 cm**-1
  60:      1380.56 cm**-1
  61:      1427.25 cm**-1
  62:      1427.97 cm**-1
  63:      1449.22 cm**-1
  64:      1498.12 cm**-1
  65:      1503.06 cm**-1
  66:      1504.99 cm**-1
  67:      1507.42 cm**-1
  68:      1512.48 cm**-1
  69:      1561.43 cm**-1
  70:      1564.14 cm**-1
  71:      1570.40 cm**-1
  72:      1677.25 cm**-1
  73:      2802.16 cm**-1
  74:      2863.89 cm**-1
  75:      2931.13 cm**-1
  76:      2945.56 cm**-1
  77:      2967.67 cm**-1
  78:      2979.94 cm**-1
  79:      2982.89 cm**-1
  80:      2984.83 cm**-1
  81:      2995.00 cm**-1
  82:      2997.15 cm**-1
  83:      3053.63 cm**-1
  84:      3060.75 cm**-1
  85:      3067.35 cm**-1
  86:      3074.14 cm**-1
  87:      3080.41 cm**-1
  88:      3392.36 cm**-1
  89:      3419.21 cm**-1


------------
NORMAL MODES
------------

These modes are the cartesian displacements weighted by the diagonal matrix
M(i,i)=1/sqrt(m[i]) where m[i] is the mass of the displaced atom
Thus, these vectors are normalized but *not* orthogonal

                  0          1          2          3          4          5    
      0       0.000000   0.000000   0.000000   0.000000   0.000000   0.000000
      1       0.000000   0.000000   0.000000   0.000000   0.000000   0.000000
      2       0.000000   0.000000   0.000000   0.000000   0.000000   0.000000
      3       0.000000   0.000000   0.000000   0.000000   0.000000   0.000000
      4       0.000000   0.000000   0.000000   0.000000   0.000000   0.000000
      5       0.000000   0.000000   0.000000   0.000000   0.000000   0.000000
      6       0.000000   0.000000   0.000000   0.000000   0.000000   0.000000
      7       0.000000   0.000000   0.000000   0.000000   0.000000   0.000000
      8       0.000000   0.000000   0.000000   0.000000   0.000000   0.000000
      9       0.000000   0.000000   0.000000   0.000000   0.000000   0.000000
     10       0.000000   0.000000   0.000000   0.000000   0.000000   0.000000
     11       0.000000   0.000000   0.000000   0.000000   0.000000   0.000000
     12       0.000000   0.000000   0.000000   0.000000   0.000000   0.000000
     13       0.000000   0.000000   0.000000   0.000000   0.000000   0.000000
     14       0.000000   0.000000   0.000000   0.000000   0.000000   0.000000
     15       0.000000   0.000000   0.000000   0.000000   0.000000   0.000000
     16       0.000000   0.000000   0.000000   0.000000   0.000000   0.000000
     17       0.000000   0.000000   0.000000   0.000000   0.000000   0.000000
     18       0.000000   0.000000   0.000000   0.000000   0.000000   0.000000
     19       0.000000   0.000000   0.000000   0.000000   0.000000   0.000000
     20       0.000000   0.000000   0.000000   0.000000   0.000000   0.000000
     21       0.000000   0.000000   0.000000   0.000000   0.000000   0.000000
     22       0.000000   0.000000   0.000000   0.000000   0.000000   0.000000
     23       0.000000   0.000000   0.000000   0.000000   0.000000   0.000000
     24       0.000000   0.000000   0.000000   0.000000   0.000000   0.000000
     25       0.000000   0.000000   0.000000   0.000000   0.000000   0.000000
     26       0.000000   0.000000   0.000000   0.000000   0.000000   0.000000
     27       0.000000   0.000000   0.000000   0.000000   0.000000   0.000000
     28       0.000000   0.000000   0.000000   0.000000   0.000000   0.000000
     29       0.000000   0.000000   0.000000   0.000000   0.000000   0.000000
     30       0.000000   0.000000   0.000000   0.000000   0.000000   0.000000
     31       0.000000   0.000000   0.000000   0.000000   0.000000   0.000000
     32       0.000000   0.000000   0.000000   0.000000   0.000000   0.000000
     33       0.000000   0.000000   0.000000   0.000000   0.000000   0.000000
     34       0.000000   0.000000   0.000000   0.000000   0.000000   0.000000
     35       0.000000   0.000000   0.000000   0.000000   0.000000   0.000000
     36       0.000000   0.000000   0.000000   0.000000   0.000000   0.000000
     37       0.000000   0.000000   0.000000   0.000000   0.000000   0.000000
     38       0.000000   0.000000   0.000000   0.000000   0.000000   0.000000
     39       0.000000   0.000000   0.000000   0.000000   0.000000   0.000000
     40       0.000000   0.000000   0.000000   0.000000   0.000000   0.000000
     41       0.000000   0.000000   0.000000   0.000000   0.000000   0.000000
     42       0.000000   0.000000   0.000000   0.000000   0.000000   0.000000
     43       0.000000   0.000000   0.000000   0.000000   0.000000   0.000000
     44       0.000000   0.000000   0.000000   0.000000   0.000000   0.000000
     45       0.000000   0.000000   0.000000   0.000000   0.000000   0.000000
     46       0.000000   0.000000   0.000000   0.000000   0.000000   0.000000
     47       0.000000   0.000000   0.000000   0.000000   0.000000   0.000000
     48       0.000000   0.000000   0.000000   0.000000   0.000000   0.000000
     49       0.000000   0.000000   0.000000   0.000000   0.000000   0.000000
     50       0.000000   0.000000   0.000000   0.000000   0.000000   0.000000
     51       0.000000   0.000000   0.000000   0.000000   0.000000   0.000000
     52       0.000000   0.000000   0.000000   0.000000   0.000000   0.000000
     53       0.000000   0.000000   0.000000   0.000000   0.000000   0.000000
     54       0.000000   0.000000   0.000000   0.000000   0.000000   0.000000
     55       0.000000   0.000000   0.000000   0.000000   0.000000   0.000000
     56       0.000000   0.000000   0.000000   0.000000   0.000000   0.000000
     57       0.000000   0.000000   0.000000   0.000000   0.000000   0.000000
     58       0.000000   0.000000   0.000000   0.000000   0.000000   0.000000
     59       0.000000   0.000000   0.000000   0.000000   0.000000   0.000000
     60       0.000000   0.000000   0.000000   0.000000   0.000000   0.000000
     61       0.000000   0.000000   0.000000   0.000000   0.000000   0.000000
     62       0.000000   0.000000   0.000000   0.000000   0.000000   0.000000
     63       0.000000   0.000000   0.000000   0.000000   0.000000   0.000000
     64       0.000000   0.000000   0.000000   0.000000   0.000000   0.000000
     65       0.000000   0.000000   0.000000   0.000000   0.000000   0.000000
     66       0.000000   0.000000   0.000000   0.000000   0.000000   0.000000
     67       0.000000   0.000000   0.000000   0.000000   0.000000   0.000000
     68       0.000000   0.000000   0.000000   0.000000   0.000000   0.000000
     69       0.000000   0.000000   0.000000   0.000000   0.000000   0.000000
     70       0.000000   0.000000   0.000000   0.000000   0.000000   0.000000
     71       0.000000   0.000000   0.000000   0.000000   0.000000   0.000000
     72       0.000000   0.000000   0.000000   0.000000   0.000000   0.000000
     73       0.000000   0.000000   0.000000   0.000000   0.000000   0.000000
     74       0.000000   0.000000   0.000000   0.000000   0.000000   0.000000
     75       0.000000   0.000000   0.000000   0.000000   0.000000   0.000000
     76       0.000000   0.000000   0.000000   0.000000   0.000000   0.000000
     77       0.000000   0.000000   0.000000   0.000000   0.000000   0.000000
     78       0.000000   0.000000   0.000000   0.000000   0.000000   0.000000
     79       0.000000   0.000000   0.000000   0.000000   0.000000   0.000000
     80       0.000000   0.000000   0.000000   0.000000   0.000000   0.000000
     81       0.000000   0.000000   0.000000   0.000000   0.000000   0.000000
     82       0.000000   0.000000   0.000000   0.000000   0.000000   0.000000
     83       0.000000   0.000000   0.000000   0.000000   0.000000   0.000000
     84       0.000000   0.000000   0.000000   0.000000   0.000000   0.000000
     85       0.000000   0.000000   0.000000   0.000000   0.000000   0.000000
     86       0.000000   0.000000   0.000000   0.000000   0.000000   0.000000
     87       0.000000   0.000000   0.000000   0.000000   0.000000   0.000000
     88       0.000000   0.000000   0.000000   0.000000   0.000000   0.000000
     89       0.000000   0.000000   0.000000   0.000000   0.000000   0.000000
                  6          7          8          9         10         11    
      0       0.003373  -0.030833   0.032829   0.084305   0.006147  -0.025965
      1      -0.040226   0.011625  -0.005055  -0.060752   0.036264   0.030394
      2      -0.019638  -0.058191   0.129909  -0.057141   0.144486   0.111804
      3       0.002413  -0.044043  -0.000925   0.069449   0.000952  -0.023521
      4      -0.056696   0.020706   0.027772   0.004219  -0.013792  -0.016421
      5      -0.055023  -0.101204   0.041728   0.005510   0.022039   0.027414
      6       0.003383  -0.071724  -0.071618   0.028466  -0.005299  -0.014851
      7      -0.052312   0.025788   0.020586  -0.006954  -0.076311  -0.060809
      8      -0.042120  -0.092378   0.013049  -0.028205  -0.133659  -0.079834
      9       0.005072  -0.085231  -0.108239   0.003161  -0.006984  -0.009014
     10      -0.036211   0.021185  -0.017596  -0.078089  -0.094518  -0.059876
     11      -0.006976  -0.044658   0.073039  -0.115279  -0.176439  -0.105154
     12       0.005545  -0.071942  -0.074600   0.018180  -0.002153  -0.011248
     13      -0.024049   0.009691  -0.050420  -0.139924  -0.048251  -0.011517
     14       0.018474  -0.008765   0.158510  -0.172069  -0.062085  -0.016759
     15       0.004969  -0.044515  -0.003661   0.058270   0.004901  -0.019554
     16      -0.025442   0.005048  -0.044368  -0.131614   0.019560   0.034661
     17       0.015238  -0.014936   0.185307  -0.144692   0.102414   0.093674
     18       0.001503  -0.010503   0.086317   0.116535   0.009880  -0.033710
     19      -0.040700   0.008607  -0.000019  -0.053751   0.083343   0.063080
     20      -0.021053  -0.062626   0.150283  -0.035347   0.264355   0.193853
     21       0.002579  -0.081883  -0.096874   0.018067  -0.009100  -0.013030
     22      -0.062100   0.032171   0.043931   0.040297  -0.106968  -0.098748
     23      -0.063386  -0.125632  -0.056443   0.016547  -0.212575  -0.143678
     24       0.006502  -0.083042  -0.103886  -0.001561  -0.003889  -0.007011
     25      -0.013948   0.004285  -0.081989  -0.194174  -0.063777  -0.010548
     26       0.042135   0.025438   0.200820  -0.236199  -0.097863  -0.033522
     27       0.002097  -0.027829   0.038431   0.098878  -0.001488  -0.028505
     28      -0.074446   0.026859   0.071099   0.077558  -0.009672  -0.014084
     29      -0.099242  -0.153047  -0.017384   0.092580   0.041179   0.064078
     30       0.001553  -0.003834   0.095133   0.133544   0.001141  -0.038825
     31      -0.078451   0.024850   0.075801   0.080527   0.039590  -0.020785
     32      -0.112306  -0.148511   0.023595   0.118366   0.173526   0.042528
     33       0.001514  -0.038899   0.014984   0.087290  -0.003214  -0.024168
     34      -0.068131   0.041876   0.098736   0.128234  -0.058236  -0.002618
     35      -0.090985  -0.190617  -0.107862   0.129135  -0.079492   0.124906
     36      -0.009971   0.058484  -0.125619  -0.191538  -0.022206   0.087440
     37       0.219075  -0.093471  -0.100419  -0.039353   0.029865   0.030819
     38       0.272602   0.048736  -0.025070   0.063482   0.022420  -0.082988
     39       0.014721   0.067910  -0.143097  -0.193984  -0.041985   0.108417
     40       0.101547  -0.182001  -0.174642  -0.153160   0.116154  -0.030439
     41       0.070484  -0.065040  -0.013308  -0.020211   0.177261  -0.222834
     42      -0.011025   0.072098   0.009694  -0.096716   0.010727   0.024337
     43       0.089575  -0.028708   0.022422   0.057141  -0.002796   0.060456
     44       0.092600   0.115642  -0.047243   0.057712  -0.057846   0.038268
     45      -0.007593   0.075020  -0.021735  -0.116278  -0.004025   0.049265
     46       0.055118  -0.120512  -0.093339  -0.063208   0.080725  -0.023320
     47       0.038199   0.008549  -0.025739   0.021033   0.093191  -0.155890
     48       0.105540   0.186056   0.038361  -0.018646  -0.136120   0.198096
     49       0.134662  -0.132799  -0.127588  -0.082113   0.074407  -0.018065
     50      -0.167534  -0.060557  -0.022450  -0.027459   0.204366  -0.279778
     51      -0.099494  -0.012777  -0.019316  -0.161510   0.122957  -0.104537
     52      -0.180876  -0.199813  -0.140973  -0.152735   0.190413  -0.135841
     53       0.006379  -0.036867  -0.019615   0.002366   0.159683  -0.238406
     54       0.052552   0.133429   0.011099  -0.065394  -0.111916   0.175362
     55       0.250283  -0.040706   0.120243   0.115162  -0.160463   0.212433
     56       0.115232   0.152405  -0.054532   0.070125  -0.115983   0.114028
     57      -0.093693  -0.006719  -0.060466  -0.180994   0.149393  -0.130743
     58       0.036620   0.019330   0.032088   0.087059   0.027874   0.030882
     59       0.233672   0.105958  -0.006867   0.078991  -0.210387   0.202148
     60      -0.280844  -0.090082  -0.178260  -0.339069   0.152783  -0.062051
     61       0.167444  -0.080894  -0.072711  -0.016674   0.030667   0.019627
     62       0.529174   0.126192  -0.033756   0.124541  -0.093000   0.032280
     63       0.008570   0.089129   0.131720  -0.007827   0.004028   0.003033
     64      -0.012985   0.014396  -0.007118   0.059046   0.082596  -0.022383
     65      -0.077825   0.183324  -0.117785   0.044322   0.082025  -0.092569
     66       0.056133   0.148409   0.169684   0.054713  -0.096763   0.145269
     67       0.045917  -0.030978  -0.010647   0.032253   0.043328   0.010275
     68      -0.202722   0.200329  -0.143601   0.031749   0.221040  -0.256691
     69      -0.026010   0.040819   0.158591  -0.021198   0.095387  -0.141594
     70      -0.158440   0.036222  -0.094120   0.009433   0.227411  -0.173167
     71      -0.084686   0.153021  -0.094095   0.040970   0.122348  -0.163504
     72       0.006347  -0.105828  -0.162023  -0.027831  -0.012888  -0.002782
     73      -0.033635   0.025448  -0.023302  -0.085546  -0.143669  -0.096179
     74      -0.000747  -0.037643   0.051358  -0.137643  -0.294574  -0.190448
     75       0.005438  -0.034354   0.021885   0.069551   0.008605  -0.021123
     76      -0.014857  -0.003393  -0.069587  -0.179951   0.056832   0.072241
     77       0.039330   0.014290   0.249931  -0.191466   0.194557   0.162353
     78       0.010736   0.088724   0.166143   0.014138   0.009884  -0.014964
     79      -0.000648   0.085120   0.080019   0.158258   0.029889   0.048619
     80      -0.074189   0.269377  -0.188112   0.050827  -0.009025   0.080132
     81       0.021867   0.097778   0.247499   0.072440   0.006480  -0.031285
     82      -0.045178   0.108917   0.067703   0.163274   0.070855   0.010301
     83      -0.149582   0.307621  -0.220506   0.050595   0.059322   0.018965
     84      -0.022336   0.030065   0.139088  -0.039843   0.096111  -0.141188
     85      -0.036813   0.125695   0.091808   0.189274   0.051994   0.034156
     86       0.001318   0.262517  -0.181942   0.053025  -0.108936   0.202302
     87       0.033993   0.138738   0.135811   0.025976  -0.069363   0.115123
     88       0.090511   0.070888   0.144584   0.193691  -0.072699   0.152561
     89      -0.071327   0.301550  -0.214550   0.053425  -0.044452   0.146183
                 12         13         14         15         16         17    
      0       0.001223   0.005709  -0.009389  -0.000861   0.150070  -0.005639
      1      -0.001162  -0.017199   0.031015  -0.000857   0.095009  -0.043781
      2      -0.015025  -0.036491   0.083781   0.000190  -0.034230  -0.100474
      3       0.000380   0.000502  -0.002477  -0.000545   0.100929  -0.003883
      4      -0.020127  -0.024933   0.047923  -0.000803   0.197890  -0.027350
      5      -0.056593  -0.072108   0.147291   0.001111  -0.073217  -0.062650
      6       0.002143  -0.005330   0.005400  -0.000005  -0.068663  -0.003802
      7      -0.021339  -0.018794   0.043540  -0.000787   0.216790  -0.045789
      8      -0.057984  -0.055864   0.139651   0.001289  -0.068679  -0.108685
      9       0.004301  -0.006458   0.006688   0.000435  -0.189081   0.001047
     10      -0.000476   0.005862   0.008150  -0.000900   0.069201   0.004351
     11      -0.010597   0.019820   0.032076  -0.000622  -0.018101   0.014844
     12       0.005787  -0.000444  -0.002268   0.000187  -0.125728   0.004590
     13       0.024774   0.026516  -0.033031  -0.000968  -0.059640   0.042908
     14       0.045692   0.086962  -0.092153  -0.001881   0.015002   0.110208
     15       0.004386   0.005613  -0.010216  -0.000591   0.045967  -0.002060
     16       0.023520   0.011596  -0.017368  -0.000598  -0.065061  -0.014356
     17       0.042297   0.051570  -0.055593  -0.001182   0.022336  -0.028750
     18      -0.000597   0.010300  -0.015493  -0.001185   0.270939  -0.006010
     19      -0.000973  -0.024586   0.040581  -0.001131   0.086720  -0.061388
     20      -0.014443  -0.054387   0.107739  -0.000445  -0.035321  -0.145685
     21       0.001650  -0.008572   0.011712   0.000611  -0.142644  -0.005373
     22      -0.038826  -0.027489   0.057015  -0.001079   0.364212  -0.064127
     23      -0.094190  -0.088963   0.196756   0.002922  -0.120035  -0.151138
     24       0.008355  -0.001035  -0.002085   0.000436  -0.192806   0.010370
     25       0.044270   0.052581  -0.073814  -0.001397  -0.159292   0.104627
     26       0.089456   0.162240  -0.207581  -0.003771   0.037558   0.257944
     27       0.001339   0.005502  -0.005332  -0.000118  -0.022407   0.002706
     28      -0.018251  -0.007524   0.030373  -0.000287   0.001433   0.060138
     29      -0.047193  -0.041143   0.106718  -0.000760  -0.015684   0.166142
     30      -0.004055   0.004823   0.000094   0.001517  -0.341696   0.019999
     31      -0.061331  -0.048643   0.093844  -0.000953   0.039062   0.217518
     32      -0.164568  -0.150684   0.279380  -0.002010  -0.060970   0.595363
     33       0.005021   0.009622  -0.012499  -0.000520   0.117785  -0.001634
     34       0.037910   0.061698  -0.062193   0.001127  -0.355823  -0.018144
     35       0.103273   0.132759  -0.135617  -0.002095   0.133926  -0.035310
     36       0.011134  -0.032901   0.013459   0.175783  -0.010472  -0.030727
     37      -0.000178   0.078828   0.076385   0.020862   0.000720   0.003412
     38      -0.007963   0.115335   0.054676   0.006683   0.005100   0.009704
     39       0.034767  -0.036637   0.025686   0.221075  -0.023966  -0.073613
     40      -0.135764   0.094328   0.016014   0.323280   0.058532   0.217257
     41      -0.219947   0.145517  -0.048561   0.068024   0.108957   0.366287
     42      -0.007117   0.015084   0.019628  -0.151821   0.002431   0.012808
     43       0.024888  -0.144218  -0.040286  -0.107071   0.007077   0.038258
     44       0.045828  -0.244088  -0.096874   0.060097   0.005215   0.018213
     45       0.003197  -0.003033   0.027625  -0.106186   0.003257   0.014299
     46      -0.049428  -0.044533  -0.089053  -0.025107  -0.012458  -0.032221
     47      -0.077063  -0.064178  -0.182399  -0.026797  -0.014801  -0.048143
     48       0.122771  -0.101464   0.144851  -0.143113   0.023623   0.082809
     49      -0.045591   0.050999  -0.015300   0.047820  -0.009081  -0.029175
     50      -0.175531  -0.125446  -0.379560  -0.103123  -0.035883  -0.109003
     51      -0.105356   0.102586  -0.071263  -0.188090  -0.011689  -0.032845
     52      -0.151298  -0.144312  -0.321963   0.016686  -0.038635  -0.113274
     53      -0.133026   0.011387  -0.218049  -0.081945  -0.020900  -0.067400
     54       0.049416  -0.116761   0.069851  -0.127040   0.020101   0.072884
     55      -0.028439  -0.335209  -0.118412  -0.090239   0.017600   0.076329
     56       0.083645  -0.302519  -0.058300   0.070844   0.014733   0.049644
     57      -0.064741   0.166824  -0.019944  -0.168628  -0.017757  -0.057480
     58       0.080720  -0.095709   0.018959  -0.096950   0.009687   0.045737
     59       0.007094  -0.432032  -0.153289   0.063328   0.017802   0.063208
     60      -0.236828  -0.045709  -0.158546   0.448587   0.087763   0.325861
     61       0.014794   0.006618   0.004580  -0.100740  -0.025441  -0.085641
     62       0.130525   0.235240   0.278297   0.017489  -0.017977  -0.083513
     63      -0.015307   0.007748  -0.007977  -0.031677   0.002169   0.002218
     64       0.085799  -0.020795   0.041537  -0.082838   0.005227   0.029166
     65       0.146983  -0.043709   0.041364   0.064898   0.002552   0.005851
     66      -0.225399   0.056066  -0.084770   0.020736  -0.001369  -0.017524
     67       0.087601  -0.120714   0.001585  -0.144119   0.008170   0.045400
     68       0.314738   0.062801   0.161806   0.113881   0.001219  -0.002079
     69       0.177769  -0.042245   0.047707   0.042969   0.003250   0.004805
     70       0.243863   0.113641   0.181149  -0.126904   0.004734   0.030509
     71       0.245047  -0.084660   0.061232   0.111064   0.003265   0.007242
     72       0.004097  -0.011676   0.013675   0.001008  -0.319419   0.001489
     73      -0.000536   0.013203   0.004542  -0.001207   0.077555   0.022157
     74      -0.011138   0.036146   0.024243  -0.001365  -0.019567   0.057522
     75       0.005450   0.009485  -0.016503  -0.000856   0.113271  -0.002526
     76       0.041850   0.024887  -0.044224  -0.000512  -0.193626  -0.014765
     77       0.084690   0.096776  -0.137863  -0.002354   0.065325  -0.032267
     78      -0.000955   0.001707  -0.012623   0.057272   0.000920  -0.008448
     79      -0.074131   0.072635  -0.010128   0.153877  -0.001583  -0.016535
     80      -0.111998   0.095866   0.002656  -0.089268   0.000472   0.001368
     81      -0.009219   0.002248  -0.038167   0.285002  -0.003488  -0.039808
     82      -0.024456   0.136378   0.057150   0.189290  -0.000210  -0.020539
     83      -0.028325   0.201588   0.118067  -0.064476   0.003375  -0.000814
     84       0.216445  -0.072631   0.067675  -0.003093   0.006948   0.019484
     85      -0.073485   0.156355   0.036305   0.256469  -0.002449  -0.034248
     86      -0.290053   0.043884  -0.125265  -0.177664  -0.003190   0.002474
     87      -0.201519   0.071905  -0.071058  -0.037143  -0.001867  -0.014469
     88      -0.242623  -0.003959  -0.163289   0.214396  -0.008261  -0.033711
     89      -0.212703   0.148055  -0.013843  -0.154331  -0.000425  -0.000006
                 18         19         20         21         22         23    
      0      -0.001760   0.000226   0.009917   0.000146  -0.002858  -0.130204
      1       0.005880  -0.000173   0.081615  -0.002692   0.004606   0.079999
      2       0.034586  -0.005015   0.203920  -0.006432  -0.000616  -0.024479
      3      -0.002535   0.000411  -0.000202   0.000030   0.001821   0.051782
      4      -0.002086   0.000599  -0.011402   0.001080  -0.005634  -0.166767
      5       0.014970  -0.002789  -0.028423   0.000720  -0.002365   0.070015
      6       0.006915  -0.000275  -0.006398   0.000474  -0.005247  -0.177375
      7       0.008221  -0.000033  -0.073404   0.003748  -0.002369  -0.149841
      8       0.042206  -0.005029  -0.180742   0.007281   0.003905   0.064983
      9       0.009711  -0.000362   0.008298  -0.000391  -0.004336  -0.129305
     10      -0.006019   0.001007   0.083661  -0.002930   0.000460  -0.036503
     11      -0.004434  -0.001863   0.200177  -0.006967   0.001480   0.018731
     12       0.007018  -0.000205   0.000383   0.000422  -0.007780  -0.231005
     13      -0.018404   0.003451  -0.010053  -0.000989   0.005158   0.185913
     14      -0.040701   0.003932  -0.025961  -0.000377  -0.005645  -0.062865
     15       0.002012   0.000117  -0.004910   0.000694  -0.003329  -0.121781
     16       0.004946   0.001575  -0.070153   0.001957   0.007726   0.176623
     17       0.015728  -0.000315  -0.171453   0.006308   0.001010  -0.069739
     18      -0.004313   0.000165   0.019076   0.000659  -0.009735  -0.379510
     19       0.011255  -0.001287   0.184992  -0.006343   0.005918   0.094320
     20       0.047057  -0.007864   0.467142  -0.015468   0.002100  -0.009405
     21       0.010804  -0.000581  -0.015898   0.000354  -0.006548  -0.216932
     22       0.006923  -0.000060  -0.163649   0.006307   0.002838  -0.057739
     23       0.057886  -0.006401  -0.401836   0.012460   0.007019   0.029591
     24       0.007181   0.000375  -0.000801  -0.000052  -0.007084  -0.195265
     25      -0.038886   0.006044  -0.024537  -0.001672   0.004756   0.228723
     26      -0.098807   0.008898  -0.061043   0.000058  -0.009931  -0.075836
     27      -0.004442   0.000560  -0.001268  -0.000727   0.009685   0.319303
     28      -0.028458   0.003029  -0.012549  -0.000671  -0.004060  -0.044420
     29      -0.090682   0.006554  -0.027359  -0.002316   0.003558   0.001204
     30      -0.000396   0.000396   0.000647  -0.000526   0.011926   0.377543
     31      -0.113704   0.009739  -0.015792  -0.002361   0.001878  -0.069489
     32      -0.314680   0.024161  -0.035700  -0.007474   0.017904  -0.023094
     33      -0.004285   0.000491  -0.001318  -0.000934   0.008828   0.344165
     34       0.030031  -0.000973   0.008492   0.001120  -0.003394  -0.050351
     35       0.023050  -0.001663   0.018538  -0.000711  -0.000355   0.008976
     36      -0.061344   0.002042   0.001104   0.064555   0.176482  -0.017463
     37      -0.009380  -0.003871  -0.006647  -0.132819  -0.130375   0.005160
     38       0.014238  -0.002688   0.000834   0.091007   0.094675  -0.006421
     39      -0.128376   0.006155  -0.000068   0.051967   0.294588  -0.029702
     40       0.322430  -0.033957  -0.001462  -0.187803   0.069579   0.014256
     41       0.572248  -0.044971   0.010464   0.098208  -0.231528   0.054019
     42       0.014284  -0.001026   0.002848   0.140828  -0.074952   0.006452
     43       0.043361   0.010669   0.001271   0.019168   0.124274  -0.006415
     44       0.014098   0.023199   0.000485  -0.004567  -0.091442   0.005616
     45       0.010410  -0.000522   0.003080   0.167463  -0.144802   0.010525
     46      -0.043364   0.013135  -0.000004  -0.090150  -0.112767   0.005291
     47      -0.044310   0.021818   0.007812   0.069593   0.077731  -0.005755
     48       0.074938  -0.004456   0.002099   0.215245  -0.139891   0.008532
     49      -0.039212   0.004150  -0.004628  -0.138264  -0.109795   0.006352
     50      -0.102996   0.037935   0.013324   0.099675   0.076808  -0.006240
     51      -0.024551   0.001964   0.008017   0.209418  -0.137595   0.012220
     52      -0.129201   0.032666   0.005597  -0.150475  -0.081982   0.001320
     53      -0.054636   0.021077   0.010201   0.105598   0.076522  -0.003887
     54       0.079862   0.019156  -0.001075   0.165605  -0.205844   0.018806
     55       0.094973   0.085273  -0.000383  -0.037908   0.212107  -0.010411
     56       0.048204   0.028621  -0.001716   0.018517  -0.175545   0.013291
     57      -0.067349  -0.026567   0.007915   0.176787  -0.148774   0.008321
     58       0.050878  -0.022171  -0.001633  -0.024070   0.217180  -0.012457
     59       0.069383   0.091471   0.000663   0.024805  -0.171967   0.013432
     60       0.508071  -0.039461   0.013288   0.028718   0.179888   0.027118
     61      -0.135500   0.015690  -0.005353  -0.108393  -0.204321   0.002939
     62      -0.159992  -0.006083  -0.008989   0.075665   0.203636  -0.031654
     63       0.007970   0.002541  -0.005738  -0.184582   0.061793  -0.004834
     64       0.030606  -0.035269   0.000014   0.032511   0.174899  -0.009884
     65      -0.004368  -0.052084  -0.003569  -0.034845  -0.107049   0.006329
     66      -0.006039   0.057000  -0.007073  -0.209458   0.027148  -0.004004
     67       0.048367  -0.027213   0.003389   0.076722   0.192237  -0.010283
     68      -0.018871  -0.106979  -0.006980  -0.073784  -0.111452   0.006698
     69       0.000961  -0.046862  -0.008195  -0.219481   0.024584  -0.002897
     70       0.028348  -0.090204  -0.001004   0.078151   0.194026  -0.009755
     71      -0.007951  -0.075008  -0.004911  -0.062550  -0.125778   0.007081
     72       0.012386  -0.001015   0.016506  -0.000984   0.001525   0.089911
     73      -0.013030  -0.000015   0.179672  -0.005983   0.001422  -0.049224
     74      -0.020325  -0.003859   0.430186  -0.014243   0.004355   0.015903
     75      -0.000305   0.000399  -0.012297   0.001099  -0.002237  -0.099002
     76       0.012898   0.001408  -0.152951   0.004822   0.007504   0.125576
     77       0.020449   0.001033  -0.372758   0.013821   0.006700  -0.051762
     78      -0.007990  -0.001158  -0.006089  -0.191870  -0.023885   0.000121
     79      -0.022855   0.005188   0.005239   0.173227  -0.046620   0.003539
     80       0.009052   0.012304  -0.003030  -0.117146   0.026633  -0.002079
     81      -0.057578  -0.029657  -0.000324   0.032659  -0.297519   0.017440
     82       0.002184   0.301537   0.009454   0.192423  -0.068952   0.004596
     83       0.057807   0.508250   0.003149  -0.119303   0.031664  -0.003044
     84       0.033809   0.102244  -0.009149  -0.264538   0.063673  -0.005954
     85      -0.017633   0.285111   0.011477   0.263192  -0.152565   0.009803
     86      -0.031758  -0.447489  -0.008811  -0.176831   0.096843  -0.005473
     87      -0.014277  -0.079093  -0.006137  -0.265238   0.069720  -0.004959
     88      -0.101738  -0.535331   0.003074   0.269724  -0.162074   0.011682
     89       0.014998   0.032491  -0.002863  -0.174992   0.098460  -0.006225
                 24         25         26         27         28         29    
      0      -0.001112  -0.054979   0.239979  -0.004593   0.000528  -0.002090
      1      -0.008567   0.315626   0.136966  -0.069352   0.021840  -0.001148
      2      -0.016919  -0.123658  -0.060577  -0.179584   0.056336   0.000770
      3       0.011064   0.100000   0.234111   0.013548  -0.003453  -0.000848
      4       0.115561   0.086990  -0.076076   0.086431  -0.022142  -0.000089
      5       0.285641  -0.040345   0.023579   0.222251  -0.055820  -0.000193
      6      -0.000913   0.316849  -0.053984  -0.008104   0.002020   0.001009
      7      -0.025191   0.037553  -0.030573  -0.075598   0.022571   0.003054
      8      -0.061297  -0.029254   0.025000  -0.178442   0.054039  -0.002046
      9      -0.002515   0.061836  -0.119911   0.005794   0.001454  -0.000181
     10      -0.046027  -0.330848  -0.057100   0.079678   0.012047   0.004561
     11      -0.111014   0.133250   0.020036   0.199448   0.024771  -0.002426
     12       0.009367  -0.107977  -0.196972  -0.009684   0.003706   0.001554
     13       0.074510  -0.096479   0.115660  -0.067575   0.023259  -0.001598
     14       0.184887   0.043374  -0.031519  -0.169119   0.057801   0.000850
     15      -0.006163  -0.330272   0.227668   0.011425  -0.000963  -0.003410
     16      -0.059389  -0.039639   0.105899   0.083458   0.011727  -0.001873
     17      -0.140506   0.028489  -0.058353   0.197825   0.030040   0.001082
     18      -0.003788   0.088761   0.103619  -0.016806  -0.013852   0.000046
     19      -0.067451   0.294071   0.142000  -0.171395  -0.140583  -0.002512
     20      -0.166497  -0.120701  -0.065899  -0.439794  -0.356671  -0.003137
     21      -0.009233   0.218501  -0.172792  -0.021205  -0.013214   0.001363
     22      -0.118969   0.199553   0.205324  -0.179775  -0.132764   0.002428
     23      -0.283064  -0.094492  -0.071635  -0.442991  -0.320275  -0.003912
     24       0.015906   0.110573  -0.259676  -0.020822  -0.014713   0.001091
     25       0.144538   0.202136   0.010932  -0.184984  -0.184703  -0.002946
     26       0.351624  -0.088948   0.010625  -0.448132  -0.445214  -0.001834
     27      -0.004537   0.014610  -0.024616  -0.000421   0.000413   0.002857
     28      -0.002545  -0.032023  -0.346054   0.009440  -0.014990  -0.005005
     29      -0.023618   0.010761   0.131695   0.029980  -0.037918   0.000834
     30      -0.028853   0.032606   0.160287  -0.009433   0.013506   0.004358
     31      -0.167668  -0.031553  -0.348810  -0.065394   0.082970  -0.003263
     32      -0.474303   0.008618   0.136645  -0.173557   0.228649   0.004166
     33      -0.001877  -0.008198  -0.243259  -0.003352   0.002184   0.000414
     34      -0.004692   0.034643   0.126246  -0.002439   0.004592   0.000919
     35      -0.010474  -0.012654  -0.037307  -0.010003   0.012860  -0.000083
     36       0.002988  -0.001126  -0.004877   0.000522  -0.000146   0.000955
     37      -0.000216  -0.000316   0.000843   0.001698  -0.000619   0.004801
     38       0.005396  -0.000530  -0.000214   0.001216  -0.000861   0.004603
     39       0.005913  -0.001853  -0.002826   0.001412  -0.000936   0.002957
     40       0.003684   0.002448   0.014193   0.000341  -0.001493   0.005658
     41      -0.003241   0.005108   0.006400  -0.003961   0.001768  -0.004057
     42      -0.000598   0.000155   0.001473   0.000109  -0.000479   0.005765
     43       0.000965  -0.000113  -0.000521  -0.000220   0.000057  -0.027438
     44      -0.003429  -0.000080  -0.000354  -0.000109   0.000056  -0.045288
     45      -0.002608  -0.000170   0.001477  -0.000184  -0.000008   0.001581
     46      -0.002596   0.000132   0.000596   0.000179   0.001057  -0.012473
     47       0.002769   0.000510  -0.004602   0.001326   0.000859  -0.017941
     48      -0.004047  -0.000859  -0.000134   0.002144   0.002696  -0.224181
     49      -0.001908  -0.000133  -0.000395  -0.002057  -0.000555   0.016763
     50       0.002857   0.001195  -0.001330   0.001264  -0.000729   0.126953
     51      -0.000240   0.001386   0.004031  -0.000998  -0.002341   0.208150
     52      -0.002753   0.001886  -0.005059   0.000371   0.000625   0.123306
     53       0.004227   0.001251  -0.001499   0.000651  -0.000458   0.098821
     54      -0.003532   0.000614   0.009361  -0.001973  -0.004237   0.263377
     55      -0.000448   0.000251   0.005018  -0.001951  -0.000992   0.377673
     56      -0.004433   0.000385   0.003903  -0.000593  -0.001341   0.082465
     57       0.000734   0.000459  -0.005336   0.003171   0.004296  -0.296212
     58       0.003560  -0.000747  -0.001600  -0.000344   0.000151  -0.119151
     59      -0.008034   0.000717   0.006362  -0.002236  -0.003510   0.342692
     60       0.002640   0.004309   0.016986  -0.003092   0.000958  -0.023709
     61      -0.002056  -0.001093  -0.002383   0.002469   0.000023  -0.019355
     62       0.008168  -0.002593  -0.010393   0.002149  -0.002450   0.058673
     63       0.001590   0.000089  -0.000405   0.000003  -0.000488   0.002869
     64       0.003386  -0.000287  -0.001411  -0.000370   0.000072  -0.024972
     65      -0.001520  -0.000392   0.000661  -0.000442   0.000409  -0.043245
     66       0.000559  -0.002673  -0.002875  -0.002151   0.001280  -0.250631
[...]
     31       0.002232  -0.000002  -0.003066   0.003051   0.000949   0.001404
     32      -0.000790  -0.000011   0.001101  -0.001203  -0.000387  -0.000388
     33      -0.000084   0.000172   0.000079  -0.000490   0.000042  -0.000127
     34       0.000004   0.000027  -0.000062  -0.000171   0.000023   0.000009
     35      -0.000002  -0.000022   0.000035   0.000093  -0.000020   0.000073
     36       0.000030  -0.000004  -0.000087  -0.000027   0.005308   0.069610
     37       0.000018  -0.000005  -0.000073  -0.000085  -0.052663   0.013092
     38       0.000006   0.000014  -0.000040   0.000009  -0.021065   0.031480
     39      -0.000123  -0.000106   0.000586  -0.000250  -0.422344  -0.854674
     40       0.000003  -0.000002  -0.000024  -0.000028   0.049042   0.165422
     41      -0.000047  -0.000067   0.000281  -0.000217  -0.135637  -0.219904
     42       0.000056  -0.000160  -0.000212  -0.000076  -0.000173   0.000001
     43       0.000000   0.000006   0.000101   0.000083  -0.000029  -0.000101
     44      -0.000101   0.000267   0.000435   0.000254  -0.000058   0.000075
     45      -0.000012   0.000039  -0.000141  -0.000118   0.000435   0.001984
     46      -0.000015   0.000025  -0.000081  -0.000223  -0.002245   0.000820
     47      -0.000003  -0.000005   0.000034  -0.000127  -0.001927   0.000408
     48       0.000154  -0.000042   0.000099   0.000903   0.004721  -0.002698
     49       0.000178  -0.000572   0.001872   0.003868   0.007872  -0.002629
     50      -0.000118  -0.000889   0.001840   0.002857   0.008890  -0.004850
     51      -0.000010  -0.000342   0.000732   0.000149  -0.001478  -0.001166
     52       0.000046   0.000314  -0.000555  -0.000552   0.004379   0.001016
     53       0.000081   0.000816  -0.001743  -0.001089  -0.000020   0.000037
     54      -0.000714   0.002122   0.003776   0.001506  -0.000965  -0.002329
     55      -0.000191   0.000215  -0.000077  -0.000283  -0.000203   0.001122
     56       0.001396  -0.003586  -0.004789  -0.003323   0.000388   0.003458
     57       0.000022  -0.000038  -0.000511  -0.000516   0.001248  -0.003314
     58      -0.000059  -0.000080  -0.001064  -0.000780   0.000529  -0.003050
     59       0.000005  -0.000049  -0.000766  -0.000488   0.001153  -0.003707
     60      -0.000153   0.000066   0.000378   0.000431   0.341931  -0.127638
     61      -0.000223   0.000008   0.000607   0.000627   0.696478  -0.351699
     62      -0.000057  -0.000028   0.000180   0.000383   0.442017  -0.218439
     63      -0.000055  -0.000083  -0.000084  -0.000147   0.000010   0.000106
     64      -0.000056  -0.000044  -0.000056  -0.000135   0.000005   0.000042
     65      -0.000029   0.000093   0.000010  -0.000004  -0.000016   0.000005
     66       0.000391  -0.000183   0.000798   0.001071  -0.000037  -0.000140
     67       0.000958   0.000797   0.000676   0.002127   0.000682  -0.000807
     68       0.000983   0.000868   0.001035   0.002471   0.000106  -0.000236
     69       0.000152   0.000744   0.000237   0.000685   0.000099  -0.000065
     70      -0.000136  -0.000356  -0.000117  -0.000565   0.000044  -0.000036
     71      -0.000537  -0.001586  -0.000528  -0.001779  -0.000307   0.000277
     72      -0.029749  -0.040119   0.011664  -0.029012  -0.000005  -0.000073
     73      -0.453666  -0.638554   0.169667  -0.445487   0.000337   0.000264
     74       0.190411   0.267801  -0.071095   0.186973  -0.000127  -0.000103
     75       0.300118  -0.506524  -0.561472   0.191460  -0.000075  -0.000523
     76       0.134552  -0.224558  -0.250399   0.085952  -0.000003  -0.000166
     77      -0.066528   0.111206   0.123853  -0.042485   0.000012   0.000091
     78      -0.000242   0.000053  -0.000293   0.000089   0.000011   0.000007
     79       0.000073   0.000182   0.000073   0.000098  -0.000004  -0.000001
     80       0.000300   0.000055   0.000351  -0.000058   0.000009   0.000002
     81      -0.000075   0.000080  -0.000107   0.000103  -0.000047   0.000178
     82      -0.000957  -0.001053  -0.000831  -0.000488   0.000214  -0.000489
     83       0.000836   0.000878   0.000830   0.000338  -0.000134   0.000292
     84       0.000146  -0.000928   0.000137  -0.000652   0.000024  -0.000306
     85       0.000548  -0.001844   0.000597  -0.001254   0.000060  -0.000268
     86       0.000595  -0.001620   0.000678  -0.001177   0.000044  -0.000347
     87       0.002851   0.000563   0.003359  -0.000486  -0.000089  -0.000185
     88      -0.000552   0.000686  -0.000652   0.000503  -0.000001   0.000122
     89      -0.005276   0.000097  -0.006102   0.001395   0.000060   0.000211


-----------
IR SPECTRUM  
-----------

 Mode    freq (cm**-1)   T**2         TX         TY         TZ
-------------------------------------------------------------------
   6:        24.85    0.000000  (  0.000000   0.000000   0.000000)
   7:        38.59    0.000000  (  0.000000   0.000000   0.000000)
   8:        42.45    0.000000  (  0.000000   0.000000   0.000000)
   9:        49.12    0.000000  (  0.000000   0.000000   0.000000)
  10:        78.42    0.000000  (  0.000000   0.000000   0.000000)
  11:        79.43    0.000000  (  0.000000   0.000000   0.000000)
  12:       121.69    0.000000  (  0.000000   0.000000   0.000000)
  13:       127.60    0.000000  (  0.000000   0.000000   0.000000)
  14:       151.52    0.000000  (  0.000000   0.000000   0.000000)
  15:       192.25    0.000000  (  0.000000   0.000000   0.000000)
  16:       215.22    0.000000  (  0.000000   0.000000   0.000000)
  17:       234.02    0.000000  (  0.000000   0.000000   0.000000)
  18:       257.65    0.000000  (  0.000000   0.000000   0.000000)
  19:       269.62    0.000000  (  0.000000   0.000000   0.000000)
  20:       380.53    0.000000  (  0.000000   0.000000   0.000000)
  21:       394.64    0.000000  (  0.000000   0.000000   0.000000)
  22:       413.70    0.000000  (  0.000000   0.000000   0.000000)
  23:       433.87    0.000000  (  0.000000   0.000000   0.000000)
  24:       438.53    0.000000  (  0.000000   0.000000   0.000000)
  25:       587.07    0.000000  (  0.000000   0.000000   0.000000)
  26:       626.83    0.000000  (  0.000000   0.000000   0.000000)
  27:       660.69    0.000000  (  0.000000   0.000000   0.000000)
  28:       747.71    0.000000  (  0.000000   0.000000   0.000000)
  29:       768.39    0.000000  (  0.000000   0.000000   0.000000)
  30:       821.74    0.000000  (  0.000000   0.000000   0.000000)
  31:       824.17    0.000000  (  0.000000   0.000000   0.000000)
  32:       882.08    0.000000  (  0.000000   0.000000   0.000000)
  33:       903.21    0.000000  (  0.000000   0.000000   0.000000)
  34:       917.17    0.000000  (  0.000000   0.000000   0.000000)
  35:       926.89    0.000000  (  0.000000   0.000000   0.000000)
  36:       932.40    0.000000  (  0.000000   0.000000   0.000000)
  37:       936.59    0.000000  (  0.000000   0.000000   0.000000)
  38:       942.05    0.000000  (  0.000000   0.000000   0.000000)
  39:       973.91    0.000000  (  0.000000   0.000000   0.000000)
  40:       984.66    0.000000  (  0.000000   0.000000   0.000000)
  41:      1001.03    0.000000  (  0.000000   0.000000   0.000000)
  42:      1063.91    0.000000  (  0.000000   0.000000   0.000000)
  43:      1066.44    0.000000  (  0.000000   0.000000   0.000000)
  44:      1097.54    0.000000  (  0.000000   0.000000   0.000000)
  45:      1113.42    0.000000  (  0.000000   0.000000   0.000000)
  46:      1122.97    0.000000  (  0.000000   0.000000   0.000000)
  47:      1149.83    0.000000  (  0.000000   0.000000   0.000000)
  48:      1176.67    0.000000  (  0.000000   0.000000   0.000000)
  49:      1179.87    0.000000  (  0.000000   0.000000   0.000000)
  50:      1200.37    0.000000  (  0.000000   0.000000   0.000000)
  51:      1209.19    0.000000  (  0.000000   0.000000   0.000000)
  52:      1234.95    0.000000  (  0.000000   0.000000   0.000000)
  53:      1270.31    0.000000  (  0.000000   0.000000   0.000000)
  54:      1276.36    0.000000  (  0.000000   0.000000   0.000000)
  55:      1280.89    0.000000  (  0.000000   0.000000   0.000000)
  56:      1292.24    0.000000  (  0.000000   0.000000   0.000000)
  57:      1303.78    0.000000  (  0.000000   0.000000   0.000000)
  58:      1354.70    0.000000  (  0.000000   0.000000   0.000000)
  59:      1363.57    0.000000  (  0.000000   0.000000   0.000000)
  60:      1380.56    0.000000  (  0.000000   0.000000   0.000000)
  61:      1427.25    0.000000  (  0.000000   0.000000   0.000000)
  62:      1427.97    0.000000  (  0.000000   0.000000   0.000000)
  63:      1449.22    0.000000  (  0.000000   0.000000   0.000000)
  64:      1498.12    0.000000  (  0.000000   0.000000   0.000000)
  65:      1503.06    0.000000  (  0.000000   0.000000   0.000000)
  66:      1504.99    0.000000  (  0.000000   0.000000   0.000000)
  67:      1507.42    0.000000  (  0.000000   0.000000   0.000000)
  68:      1512.48    0.000000  (  0.000000   0.000000   0.000000)
  69:      1561.43    0.000000  (  0.000000   0.000000   0.000000)
  70:      1564.14    0.000000  (  0.000000   0.000000   0.000000)
  71:      1570.40    0.000000  (  0.000000   0.000000   0.000000)
  72:      1677.25    0.000000  (  0.000000   0.000000   0.000000)
  73:      2802.16    0.000000  (  0.000000   0.000000   0.000000)
  74:      2863.89    0.000000  (  0.000000   0.000000   0.000000)
  75:      2931.13    0.000000  (  0.000000   0.000000   0.000000)
  76:      2945.56    0.000000  (  0.000000   0.000000   0.000000)
  77:      2967.67    0.000000  (  0.000000   0.000000   0.000000)
  78:      2979.94    0.000000  (  0.000000   0.000000   0.000000)
  79:      2982.89    0.000000  (  0.000000   0.000000   0.000000)
  80:      2984.83    0.000000  (  0.000000   0.000000   0.000000)
  81:      2995.00    0.000000  (  0.000000   0.000000   0.000000)
  82:      2997.15    0.000000  (  0.000000   0.000000   0.000000)
  83:      3053.63    0.000000  (  0.000000   0.000000   0.000000)
  84:      3060.75    0.000000  (  0.000000   0.000000   0.000000)
  85:      3067.35    0.000000  (  0.000000   0.000000   0.000000)
  86:      3074.14    0.000000  (  0.000000   0.000000   0.000000)
  87:      3080.41    0.000000  (  0.000000   0.000000   0.000000)
  88:      3392.36    0.000000  (  0.000000   0.000000   0.000000)
  89:      3419.21    0.000000  (  0.000000   0.000000   0.000000)

The first frequency considered to be a vibration is 6
The total number of vibrations considered is 84


--------------------------
THERMOCHEMISTRY AT 298.15K
--------------------------

Temperature         ... 298.15 K
Pressure            ... 1.00 atm
Total Mass          ... 179.26 AMU

Throughout the following assumptions are being made:
  (1) The electronic state is orbitally nondegenerate
  (2) There are no thermally accessible electronically excited states
  (3) Hindered rotations indicated by low frequency modes are not
      treated as such but are treated as vibrations and this may
      cause some error
  (4) All equations used are the standard statistical mechanics
      equations for an ideal gas
  (5) All vibrations are strictly harmonic

freq.      24.85  E(vib)   ...       0.56 
freq.      38.59  E(vib)   ...       0.54 
freq.      42.45  E(vib)   ...       0.53 
freq.      49.12  E(vib)   ...       0.53 
freq.      78.42  E(vib)   ...       0.49 
freq.      79.43  E(vib)   ...       0.49 
freq.     121.69  E(vib)   ...       0.44 
freq.     127.60  E(vib)   ...       0.43 
freq.     151.52  E(vib)   ...       0.40 
freq.     192.25  E(vib)   ...       0.36 
freq.     215.22  E(vib)   ...       0.34 
freq.     234.02  E(vib)   ...       0.32 
freq.     257.65  E(vib)   ...       0.30 
freq.     269.62  E(vib)   ...       0.29 
freq.     380.53  E(vib)   ...       0.21 
freq.     394.64  E(vib)   ...       0.20 
freq.     413.70  E(vib)   ...       0.19 
freq.     433.87  E(vib)   ...       0.17 
freq.     438.53  E(vib)   ...       0.17 
freq.     587.07  E(vib)   ...       0.10 
freq.     626.83  E(vib)   ...       0.09 
freq.     660.69  E(vib)   ...       0.08 
freq.     747.71  E(vib)   ...       0.06 
freq.     768.39  E(vib)   ...       0.06 
freq.     821.74  E(vib)   ...       0.05 
freq.     824.17  E(vib)   ...       0.05 
freq.     882.08  E(vib)   ...       0.04 
freq.     903.21  E(vib)   ...       0.03 
freq.     917.17  E(vib)   ...       0.03 
freq.     926.89  E(vib)   ...       0.03 
freq.     932.40  E(vib)   ...       0.03 
freq.     936.59  E(vib)   ...       0.03 
freq.     942.05  E(vib)   ...       0.03 
freq.     973.91  E(vib)   ...       0.03 
freq.     984.66  E(vib)   ...       0.02 
freq.    1001.03  E(vib)   ...       0.02 
freq.    1063.91  E(vib)   ...       0.02 
freq.    1066.44  E(vib)   ...       0.02 
freq.    1097.54  E(vib)   ...       0.02 
freq.    1113.42  E(vib)   ...       0.01 
freq.    1122.97  E(vib)   ...       0.01 
freq.    1149.83  E(vib)   ...       0.01 
freq.    1176.67  E(vib)   ...       0.01 
freq.    1179.87  E(vib)   ...       0.01 
freq.    1200.37  E(vib)   ...       0.01 
freq.    1209.19  E(vib)   ...       0.01 
freq.    1234.95  E(vib)   ...       0.01 
freq.    1270.31  E(vib)   ...       0.01 
freq.    1276.36  E(vib)   ...       0.01 
freq.    1280.89  E(vib)   ...       0.01 
freq.    1292.24  E(vib)   ...       0.01 
freq.    1303.78  E(vib)   ...       0.01 
freq.    1354.70  E(vib)   ...       0.01 
freq.    1363.57  E(vib)   ...       0.01 
freq.    1380.56  E(vib)   ...       0.01 
freq.    1427.25  E(vib)   ...       0.00 
freq.    1427.97  E(vib)   ...       0.00 
freq.    1449.22  E(vib)   ...       0.00 
freq.    1498.12  E(vib)   ...       0.00 
freq.    1503.06  E(vib)   ...       0.00 
freq.    1504.99  E(vib)   ...       0.00 
freq.    1507.42  E(vib)   ...       0.00 
freq.    1512.48  E(vib)   ...       0.00 
freq.    1561.43  E(vib)   ...       0.00 
freq.    1564.14  E(vib)   ...       0.00 
freq.    1570.40  E(vib)   ...       0.00 
freq.    1677.25  E(vib)   ...       0.00 
freq.    2802.16  E(vib)   ...       0.00 
freq.    2863.89  E(vib)   ...       0.00 
freq.    2931.13  E(vib)   ...       0.00 
freq.    2945.56  E(vib)   ...       0.00 
freq.    2967.67  E(vib)   ...       0.00 
freq.    2979.94  E(vib)   ...       0.00 
freq.    2982.89  E(vib)   ...       0.00 
freq.    2984.83  E(vib)   ...       0.00 
freq.    2995.00  E(vib)   ...       0.00 
freq.    2997.15  E(vib)   ...       0.00 
freq.    3053.63  E(vib)   ...       0.00 
freq.    3060.75  E(vib)   ...       0.00 
freq.    3067.35  E(vib)   ...       0.00 
freq.    3074.14  E(vib)   ...       0.00 
freq.    3080.41  E(vib)   ...       0.00 
freq.    3392.36  E(vib)   ...       0.00 
freq.    3419.21  E(vib)   ...       0.00 

------------
INNER ENERGY
------------

The inner energy is: U= E(el) + E(ZPE) + E(vib) + E(rot) + E(trans)
    E(el)   - is the total energy from the electronic structure calculation
              = E(kin-el) + E(nuc-el) + E(el-el) + E(nuc-nuc)
    E(ZPE)  - the the zero temperature vibrational energy from the frequency calculation
    E(vib)  - the the finite temperature correction to E(ZPE) due to population
              of excited vibrational states
    E(rot)  - is the rotational thermal energy
    E(trans)- is the translational thermal energy

Summary of contributions to the inner energy U:
Electronic energy                ...    -39.18059106 Eh
Zero point energy                ...      0.25360487 Eh     159.14 kcal/mol
Thermal vibrational correction   ...      0.01266397 Eh       7.95 kcal/mol
Thermal rotational correction    ...      0.00141627 Eh       0.89 kcal/mol
Thermal translational correction ...      0.00141627 Eh       0.89 kcal/mol
-----------------------------------------------------------------------
Total thermal energy                    -38.91148967 Eh


Summary of corrections to the electronic energy:
(perhaps to be used in another calculation)
Total thermal correction                  0.01549652 Eh       9.72 kcal/mol
Non-thermal (ZPE) correction              0.25360487 Eh     159.14 kcal/mol
-----------------------------------------------------------------------
Total correction                          0.26910139 Eh     168.86 kcal/mol


--------
ENTHALPY
--------

The enthalpy is H = U + kB*T
                kB is Boltzmann's constant
Total free energy                 ...    -38.91148967 Eh 
Thermal Enthalpy correction       ...      0.00094421 Eh       0.59 kcal/mol
-----------------------------------------------------------------------
Total Enthalpy                    ...    -38.91054546 Eh


Note: Only C1 symmetry has been detected, increase convergence thresholds 
      if your molecule has a higher symmetry. Symmetry factor of 1.0 is   
      used for the rotational entropy correction. 
 

Note: Rotational entropy computed according to Herzberg 
Infrared and Raman Spectra, Chapter V,1, Van Nostrand Reinhold, 1945 
Point Group:  C1, Symmetry Number:   1  
Rotational constants in cm-1:     0.026797     0.022380     0.015065 

Vibrational entropy computed according to the QRRHO of S. Grimme
Chem.Eur.J. 2012 18 9955


-------
ENTROPY
-------

The entropy contributions are T*S = T*(S(el)+S(vib)+S(rot)+S(trans))
     S(el)   - electronic entropy
     S(vib)  - vibrational entropy
     S(rot)  - rotational entropy
     S(trans)- translational entropy
The entropies will be listed as mutliplied by the temperature to get
units of energy

Electronic entropy                ...      0.00000000 Eh      0.00 kcal/mol
Vibrational entropy               ...      0.02316421 Eh     14.54 kcal/mol
Rotational entropy                ...      0.01499388 Eh      9.41 kcal/mol
Translational entropy             ...      0.01969790 Eh     12.36 kcal/mol
-----------------------------------------------------------------------
Final entropy term                ...      0.05785599 Eh     36.31 kcal/mol

In case the symmetry of your molecule has not been determined correctly
or in case you have a reason to use a different symmetry number we print 
out the resulting rotational entropy values for sn=1,12 :
 --------------------------------------------------------
|  sn= 1 | S(rot)=       0.01499388 Eh      9.41 kcal/mol|
|  sn= 2 | S(rot)=       0.01433943 Eh      9.00 kcal/mol|
|  sn= 3 | S(rot)=       0.01395659 Eh      8.76 kcal/mol|
|  sn= 4 | S(rot)=       0.01368497 Eh      8.59 kcal/mol|
|  sn= 5 | S(rot)=       0.01347428 Eh      8.46 kcal/mol|
|  sn= 6 | S(rot)=       0.01330214 Eh      8.35 kcal/mol|
|  sn= 7 | S(rot)=       0.01315659 Eh      8.26 kcal/mol|
|  sn= 8 | S(rot)=       0.01303051 Eh      8.18 kcal/mol|
|  sn= 9 | S(rot)=       0.01291930 Eh      8.11 kcal/mol|
|  sn=10 | S(rot)=       0.01281983 Eh      8.04 kcal/mol|
|  sn=11 | S(rot)=       0.01272984 Eh      7.99 kcal/mol|
|  sn=12 | S(rot)=       0.01264768 Eh      7.94 kcal/mol|
 --------------------------------------------------------


-------------------
GIBBS FREE ENERGY
-------------------

The Gibbs free energy is G = H - T*S

Total enthalpy                    ...    -38.91054546 Eh 
Total entropy correction          ...     -0.05785599 Eh    -36.31 kcal/mol
-----------------------------------------------------------------------
Final Gibbs free energy         ...    -38.96840145 Eh

For completeness - the Gibbs free energy minus the electronic energy
G-E(el)                           ...      0.21218961 Eh    133.15 kcal/mol


Total Time for Numerical Frequencies  :        53.040 sec
Time for Reference State(s)           :         0.108 sec
Time for Displacements                :        47.536 sec

Timings for individual modules:

Sum of individual times         ...        0.476 sec (=   0.008 min)
XTB module                      ...        0.476 sec (=   0.008 min) 100.0 %
                             ****ORCA TERMINATED NORMALLY****
TOTAL RUN TIME: 0 days 0 hours 0 minutes 54 seconds 255 msec
(SLURM) EXECUTION TIME: 54.336658086 seconds.
