(SLURM) JOB ID:         321

                                 *****************
                                 * O   R   C   A *
                                 *****************

           --- An Ab Initio, DFT and Semiempirical electronic structure package ---

                  #######################################################
                  #                        -***-                        #
                  #          Department of theory and spectroscopy      #
                  #               Directorship: Frank Neese             #
                  #        Max Planck Institute fuer Kohlenforschung    #
                  #                Kaiser Wilhelm Platz 1               #
                  #                 D-45470 Muelheim/Ruhr               #
                  #                      Germany                        #
                  #                                                     #
                  #                  All rights reserved                #
                  #                        -***-                        #
                  #######################################################


                         Program Version 4.2.1 -  RELEASE  -


 With contributions from (in alphabetic order):
   Daniel Aravena         : Magnetic Suceptibility
   Michael Atanasov       : Ab Initio Ligand Field Theory (pilot matlab implementation)
   Alexander A. Auer      : GIAO ZORA, VPT2
   Ute Becker             : Parallelization
   Giovanni Bistoni       : ED, misc. LED, open-shell LED, HFLD
   Martin Brehm           : Molecular dynamics
   Dmytro Bykov           : SCF Hessian
   Vijay G. Chilkuri      : MRCI spin determinant printing, contributions to CSF-ICE
   Dipayan Datta          : RHF DLPNO-CCSD density
   Achintya Kumar Dutta   : EOM-CC, STEOM-CC
   Dmitry Ganyushin       : Spin-Orbit,Spin-Spin,Magnetic field MRCI
   Miquel Garcia          : C-PCM Hessian, Gaussian charge scheme
   Yang Guo               : DLPNO-NEVPT2, CIM, IAO-localization
   Andreas Hansen         : Spin unrestricted coupled pair/coupled cluster methods
   Benjamin Helmich-Paris : CASSCF linear response (MC-RPA)
   Lee Huntington         : MR-EOM, pCC
   Robert Izsak           : Overlap fitted RIJCOSX, COSX-SCS-MP3, EOM
   Christian Kollmar      : KDIIS, OOCD, Brueckner-CCSD(T), CCSD density
   Simone Kossmann        : Meta GGA functionals, TD-DFT gradient, OOMP2, MP2 Hessian
   Martin Krupicka        : AUTO-CI
   Lucas Lang             : DCDCAS
   Dagmar Lenk            : GEPOL surface, SMD
   Dimitrios Liakos       : Extrapolation schemes; Compound Job, initial MDCI parallelization
   Dimitrios Manganas     : Further ROCIS development; embedding schemes
   Dimitrios Pantazis     : SARC Basis sets
   Taras Petrenko         : DFT Hessian,TD-DFT gradient, ASA, ECA, R-Raman, ABS, FL, XAS/XES, NRVS
   Peter Pinski           : DLPNO-MP2, DLPNO-MP2 Gradient
   Christoph Reimann      : Effective Core Potentials
   Marius Retegan         : Local ZFS, SOC
   Christoph Riplinger    : Optimizer, TS searches, QM/MM, DLPNO-CCSD(T), (RO)-DLPNO pert. Triples
   Tobias Risthaus        : Range-separated hybrids, TD-DFT gradient, RPA, STAB
   Michael Roemelt        : Original ROCIS implementation
   Masaaki Saitow         : Open-shell DLPNO-CCSD energy and density
   Barbara Sandhoefer     : DKH picture change effects
   Avijit Sen             : IP-ROCIS
   Kantharuban Sivalingam : CASSCF convergence, NEVPT2, FIC-MRCI
   Bernardo de Souza      : ESD, SOC TD-DFT
   Georgi Stoychev        : AutoAux, RI-MP2 NMR
   Willem Van den Heuvel  : Paramagnetic NMR
   Boris Wezisla          : Elementary symmetry handling
   Frank Wennmohs         : Technical directorship


 We gratefully acknowledge several colleagues who have allowed us to
 interface, adapt or use parts of their codes:
   Stefan Grimme, W. Hujo, H. Kruse,             : VdW corrections, initial TS optimization,
                  C. Bannwarth                     DFT functionals, gCP, sTDA/sTD-DF
   Ed Valeev, F. Pavosevic, A. Kumar             : LibInt (2-el integral package), F12 methods
   Garnet Chan, S. Sharma, J. Yang, R. Olivares  : DMRG
   Ulf Ekstrom                                   : XCFun DFT Library
   Mihaly Kallay                                 : mrcc  (arbitrary order and MRCC methods)
   Andreas Klamt, Michael Diedenhofen            : otool_cosmo (COSMO solvation model)
   Jiri Pittner, Ondrej Demel                    : Mk-CCSD
   Frank Weinhold                                : gennbo (NPA and NBO analysis)
   Christopher J. Cramer and Donald G. Truhlar   : smd solvation model
   Lars Goerigk                                  : TD-DFT with DH, B97 family of functionals
   V. Asgeirsson, H. Jonsson                     : NEB implementation
   FAccTs GmbH                                   : IRC, NEB, NEB-TS, Multilevel, MM, QM/MM, CI optimization
   S Lehtola, MJT Oliveira, MAL Marques          : LibXC Library


 Your calculation uses the libint2 library for the computation of 2-el integrals
 For citations please refer to: http://libint.valeyev.net

 Your ORCA version has been built with support for libXC version: 4.2.3
 For citations please refer to: https://tddft.org/programs/libxc/

 This ORCA versions uses:
   CBLAS   interface :  Fast vector & matrix operations
   LAPACKE interface :  Fast linear algebra routines
   SCALAPACK package :  Parallel linear algebra routines




***************************************
The coordinates will be read from file: init.xyz
***************************************


Your calculation utilizes the SMD solvation module
Please cite in your paper:
A.V. Marenich, C.J. Cramer, D.G. Truhlar J. Phys. Chem. B, 113, (2009), 6378 

Your calculation utilizes the semiempirical GFN2-xTB method
Please cite in your paper:
C. Bannwarth, Ehlert S., S. Grimme,  J. Chem. Theory Comput., 15, (2019), 1652.
   

----- Orbital basis set information -----
Your calculation utilizes the basis: def2-SVP
   F. Weigend and R. Ahlrichs, Phys. Chem. Chem. Phys. 7, 3297 (2005).

================================================================================
                                        WARNINGS
                       Please study these warnings very carefully!
================================================================================

WARNING: Gradients needed for Numerical Frequencies
  ===> : Setting RunTyp to EnGrad

WARNING: The environment variable RSH_COMMAND is not set!
  ===> : All Displacements for the Numerical Hessian calculation
         will be started on localhost

WARNING: Found dipole moment calculation with XTB calculation
  ===> : Switching off dipole moment calculation


INFO   : the flag for use of LIBINT has been found!

================================================================================
                                       INPUT FILE
================================================================================
NAME = /tmp/slurm-scratch/freq.321/freq.inp
|  1> ! XTB2 NumFreq
|  2> %maxcore 1450
|  3> 
|  4> * xyzfile 0 1 init.xyz
|  5> 
|  6> %cpcm
|  7>  smd true
|  8>  smdsolvent "ch2cl2"
|  9> end
| 10> %pal nprocs 8 end
| 11> 
| 12>                          ****END OF INPUT****
================================================================================

                     *******************************
                     * Energy+Gradient Calculation *
                     *******************************

      -----------------------------------------------------------      
     |                   =====================                   |     
     |                           x T B                           |     
     |                   =====================                   |     
     |                         S. Grimme                         |     
     |          Mulliken Center for Theoretical Chemistry        |     
     |                    University of Bonn                     |     
      -----------------------------------------------------------      

   * xtb version 6.3.0 (preview) compiled by 'ehlert@majestix' on 2020-01-15

   This program is distributed in the hope that it will be useful,
   but WITHOUT ANY WARRANTY; without even the implied warranty of
   MERCHANTABILITY or FITNESS FOR A PARTICULAR PURPOSE.
   
   FOR NON-COMMERCIAL, ACADEMIA USE ONLY.
   
   Cite this work as:
   * S. Grimme, C. Bannwarth, P. Shushkov, J. Chem. Theory Comput., 2017,
     13, 1989-2009. DOI: 10.1021/acs.jctc.7b00118
   * C. Bannwarth, S. Ehlert and S. Grimme., J. Chem. Theory Comput., 2019,
     15, 1652-1671. DOI: 10.1021/acs.jctc.8b01176
   * P. Pracht, E. Caldeweyher, S. Ehlert, S. Grimme, ChemRxiv, 2019, preprint.
     DOI: 10.26434/chemrxiv.8326202.v1
   * S. Grimme, S. Spicher unpublished
   
   for DFT-D4:
   * E. Caldeweyher, C. Bannwarth and S. Grimme, J. Chem. Phys., 2017,
     147, 034112. DOI: 10.1063/1.4993215
   * E. Caldeweyher, S. Ehlert, A. Hansen, H. Neugebauer, S. Spicher,
     C. Bannwarth and S. Grimme, J. Chem. Phys., 2019, 150, 154122.
     DOI: 10.1063/1.5090222
   
   for sTDA-xTB:
   * S. Grimme and C. Bannwarth, J. Chem. Phys., 2016, 145, 054103.
     DOI: 10.1063/1.4959605
   
   in the mass-spec context:
   * V. Asgeirsson, C. Bauer and S. Grimme, Chem. Sci., 2017, 8, 4879.
     DOI: 10.1039/c7sc00601b
   
   for metadynamics refer to:
   * S. Grimme, J. Chem. Theory Comput., 2019, 155, 2847-2862
     DOI: 10.1021/acs.jctc.9b00143
   
   with help from (in alphabetical order)
   C. Bannwarth, F. Bohle, G. Brandenburg, E. Caldeweyher, M. Checinski,
   S. Dohm, S. Ehlert, S. Ehrlich, F. März, H. Neugebauer, J. Pisarek,
   P. Pracht, P. Shushkov, and S. Spicher.
   
 * started run on 2020/11/22 at 08:59:39.842     

           -------------------------------------------------
          |                Calculation Setup                |
           -------------------------------------------------

          program call               : /opt/orca/otool_xtb /tmp/slurm-scratch/freq.321/freq_XTB.xyz --grad -c 0 -u 0 -P 8 --namespace /tmp/slurm-scratch/freq.321/freq --gbsa CH2Cl2
          hostname                   : headnode-pbs
          calculation namespace      : /tmp/slurm-scratch/freq.321/freq
          coordinate file            : /tmp/slurm-scratch/freq.321/freq_XTB.xyz
          omp threads                :                     8
          number of atoms            :                    49
          number of electrons        :                   112
          charge                     :                     0
          spin                       :                   0.0
          first test random number   :      0.28836468118755


molecular fragmentation (1/2 indicates fragments):
1111111111111111111222211111111111222222222222222
# atoms in fragment 1/2:    30    19
 fragment masses (1/2) :      179.26       91.15
CMA distance (Bohr)    :   6.036
constraining FC (au)   :  0.0500

########################################################################
# WARNING! Please study the warnings concerning your input carefully
#  - Process number higher than OMP_NUM_THREADS, I hope you know what you are doing.
########################################################################

           ------------------------------------------------- 
          |                 G F N 2 - x T B                 |
          | Geometry, Frequencies, Noncovalent interactions |
          |            JCTC 2019 parametrisation            |
           ------------------------------------------------- 
             k(s)              :                1.8500
             k(p)              :                2.2300
             k(d)              :                2.2300
             k(f)              :                2.0000
             kEN (H0ij)        :               -2.0000
             D4 a1             :                0.5200
             D4 a2             :                5.0000
             D4 s6             :                1.0000
             D4 s8             :                2.7000
             D4 s9             :                5.0000
             alphaj            :                2.0000

  Z AO/shell   Hii/eV     exponent
  1     Wed Apr 25 08:07:45 CEST 2018   EN: 2.200 GM2: 0.406  GM3: 0.0800  RAES: 1.40
     1s    -10.707211    1.230000
  6     Wed Apr 25 08:07:45 CEST 2018   EN: 2.550 GM2: 0.538  GM3: 0.1500  RAES: 3.00
     2s    -13.970922    2.096432
     2p    -10.063292    1.800000
  7     Wed Apr 25 08:07:45 CEST 2018   EN: 3.040 GM2: 0.461  GM3:-0.0640  RAES: 1.90
     2s    -16.686243    2.339881
     2p    -12.523956    2.014332
  8     Wed Apr 25 08:07:45 CEST 2018   EN: 3.440 GM2: 0.452  GM3:-0.0517  RAES: 1.80
     2s    -20.229985    2.439742
     2p    -15.503117    2.137023

 Solvent             : CH2Cl2
 Using internal parameter file: .param_gbsa2_CH2Cl2
 Gsolv ref. state (COSMO-RS): gsolv [1 M gas/solution]
 temperature (mdtemp)       :    298.150000000000     
 dielectric constant        :    8.93000000000000     
 rho                        :    1.33000000000000     
 mass                       :    84.9300000000000     
 surface tension            :    15.5689454083859     
 probe radius               :   0.719875900000000     
 Gshift (Eh)                :   4.440829173451759E-003
 c1                         :    1.49173776000000     
 soset                      :   0.000000000000000E+000
 HB correction              :  F
           ------------------------------------------------- 
          |        Self-Consistent Charge Iterations        |
           ------------------------------------------------- 

          ...................................................
          :                      SETUP                      :
          :.................................................:
          :  # basis functions                 106          :
          :  # atomic orbitals                 106          :
          :  # shells                           68          :
          :  # electrons                       112          :
          :  max. iterations                   250          :
          :  Hamiltonian                  GFN2-xTB          :
          :  GBSA solvation                   true          :
          :  PC potential                    false          :
          :  electronic temp.          300.0000000     K    :
          :  accuracy                    1.0000000          :
          :  -> integral cutoff          0.2500000E+02      :
          :  -> integral neglect         0.1000000E-07      :
          :  -> SCF convergence          0.1000000E-05 Eh   :
          :  -> wf. convergence          0.1000000E-03 e    :
          :  Broyden damping             0.4000000          :
          ...................................................
  Checking positiv definite overlap ...  done.
 

 iter      E             dE          RMSdq      gap      omega  full diag
   1    -62.0333713 -0.620334E+02  0.352E+00    3.78       0.0  T
   2    -62.1557510 -0.122380E+00  0.196E+00    3.59       1.0  T
   3    -62.1592449 -0.349391E-02  0.857E-01    2.96       1.0  T
   4    -62.1601575 -0.912574E-03  0.349E-01    2.85       1.0  T
   5    -62.1647512 -0.459369E-02  0.808E-02    2.98       1.0  T
   6    -62.1648027 -0.514953E-04  0.380E-02    3.03       1.0  T
   7    -62.1648167 -0.139857E-04  0.157E-02    3.03       1.0  T
   8    -62.1648192 -0.257414E-05  0.605E-03    3.03       2.4  T
   9    -62.1648198 -0.604023E-06  0.254E-03    3.03       5.6  T
  10    -62.1648199 -0.390954E-07  0.116E-03    3.03      12.3  T
  11    -62.1648199 -0.104371E-07  0.612E-04    3.03      23.3  T
  12    -62.1648199 -0.459166E-08  0.143E-04    3.03      99.9  T

   *** convergence criteria satisfied after 12 iterations ***

         #    Occupation            Energy/Eh            Energy/eV
      -------------------------------------------------------------
         1        2.0000           -0.6737026             -18.3324
       ...           ...                  ...                  ...
        50        2.0000           -0.4257266             -11.5846
        51        2.0000           -0.4197792             -11.4228
        52        2.0000           -0.4100164             -11.1571
        53        2.0000           -0.4041364             -10.9971
        54        2.0000           -0.4000358             -10.8855
        55        2.0000           -0.3518281              -9.5737
        56        2.0000           -0.3396047              -9.2411 (HOMO)
        57                         -0.2282445              -6.2108 (LUMO)
        58                         -0.2250205              -6.1231
        59                         -0.1033012              -2.8110
        60                         -0.0597213              -1.6251
        61                         -0.0247741              -0.6741
       ...                                ...                  ...
       106                          0.6439536              17.5229
      -------------------------------------------------------------
                  HL-Gap            0.1113603 Eh            3.0303 eV
             Fermi-level           -0.2839246 Eh           -7.7260 eV

 SCC (total)                   0 d,  0 h,  0 min,  0.052 sec
 SCC setup                      ...        0 min,  0.002 sec (  3.853%)
 Dispersion                     ...        0 min,  0.001 sec (  1.080%)
 integral evaluation            ...        0 min,  0.014 sec ( 26.874%)
 zeroth order Hamiltonian       ...        0 min,  0.000 sec (  0.023%)
 iterations                     ...        0 min,  0.022 sec ( 42.973%)
 molecular gradient             ...        0 min,  0.013 sec ( 24.355%)
 printout                       ...        0 min,  0.000 sec (  0.755%)

         :::::::::::::::::::::::::::::::::::::::::::::::::::::
         ::                     SUMMARY                     ::
         :::::::::::::::::::::::::::::::::::::::::::::::::::::
         :: total energy             -61.372139755539 Eh    ::
         :: total w/o Gsasa/hb       -61.350376562361 Eh    ::
         :: gradient norm              0.034302194814 Eh/a0 ::
         :: HOMO-LUMO gap              3.030267214890 eV    ::
         ::.................................................::
         :: SCC energy               -62.186583078019 Eh    ::
         :: -> isotropic ES            0.152905895691 Eh    ::
         :: -> anisotropic ES         -0.004905736822 Eh    ::
         :: -> anisotropic XC          0.029267234624 Eh    ::
         :: -> dispersion             -0.044855497271 Eh    ::
         :: -> Gsolv                  -0.044128798421 Eh    ::
         ::    -> Gborn               -0.022365605243 Eh    ::
         ::    -> Gsasa               -0.026204022352 Eh    ::
         ::    -> Ghb                  0.000000000000 Eh    ::
         ::    -> Gshift               0.004440829173 Eh    ::
         :: repulsion energy           0.813247801179 Eh    ::
         :: add. restraining           0.000000000000 Eh    ::
         :::::::::::::::::::::::::::::::::::::::::::::::::::::

           -------------------------------------------------
          |                Property Printout                |
           -------------------------------------------------

    * Orbital Energies and Occupations

         #    Occupation            Energy/Eh            Energy/eV
      -------------------------------------------------------------
         1        2.0000           -0.6737026             -18.3324
       ...           ...                  ...                  ...
        44        2.0000           -0.4456702             -12.1273
        45        2.0000           -0.4430497             -12.0560
        46        2.0000           -0.4411924             -12.0055
        47        2.0000           -0.4297679             -11.6946
        48        2.0000           -0.4285203             -11.6606
        49        2.0000           -0.4276765             -11.6377
        50        2.0000           -0.4257266             -11.5846
        51        2.0000           -0.4197792             -11.4228
        52        2.0000           -0.4100164             -11.1571
        53        2.0000           -0.4041364             -10.9971
        54        2.0000           -0.4000358             -10.8855
        55        2.0000           -0.3518281              -9.5737
        56        2.0000           -0.3396047              -9.2411 (HOMO)
        57                         -0.2282445              -6.2108 (LUMO)
        58                         -0.2250205              -6.1231
        59                         -0.1033012              -2.8110
        60                         -0.0597213              -1.6251
        61                         -0.0247741              -0.6741
        62                          0.0323969               0.8816
        63                          0.0449875               1.2242
        64                          0.0641440               1.7454
        65                          0.0672026               1.8287
        66                          0.0815090               2.2180
        67                          0.0921285               2.5069
       ...                                ...                  ...
       106                          0.6439536              17.5229
      -------------------------------------------------------------
                  HL-Gap            0.1113603 Eh            3.0303 eV
             Fermi-level           -0.2839246 Eh           -7.7260 eV

     #   Z        covCN         q      C6AA      α(0)
     1   6 C      2.962    -0.031    28.760     8.796
     2   6 C      2.919    -0.046    29.143     8.853
     3   6 C      2.914    -0.033    28.831     8.805
     4   6 C      2.915    -0.035    28.877     8.812
     5   6 C      2.914    -0.034    28.853     8.808
     6   6 C      2.920    -0.032    28.787     8.798
     7   6 C      3.652     0.215    17.499     6.007
     8   1 H      0.925     0.018     2.764     2.600
     9   1 H      0.926     0.044     2.397     2.421
    10   1 H      0.925     0.038     2.472     2.459
    11   7 N      3.162    -0.248    26.432     7.636
    12   6 C      3.734     0.011    20.484     6.459
    13   1 H      1.195     0.246     0.888     1.472
    14   6 C      3.802    -0.072    21.879     6.660
    15   1 H      0.924     0.041     2.436     2.441
    16   1 H      0.924     0.041     2.434     2.440
    17   1 H      0.925     0.056     2.248     2.345
    18   1 H      0.924     0.039     2.469     2.457
    19   8 O      0.872    -0.727    29.437     7.275
    20   8 O      1.593    -0.672    26.980     7.010
    21   1 H      0.805     0.327     0.646     1.262
    22   1 H      0.805     0.266     0.833     1.433
    23   1 H      0.859     0.236     0.939     1.518
    24   1 H      0.921    -0.047     4.026     3.138
    25   1 H      0.860     0.167     1.293     1.781
    26   1 H      0.925     0.039     2.456     2.451
    27   1 H      0.925     0.035     2.521     2.483
    28   6 C      3.800    -0.054    21.549     6.609
    29   1 H      0.924     0.037     2.487     2.466
    30   1 H      0.924     0.032     2.558     2.501
    31   6 C      3.750    -0.106    22.581     6.777
    32   1 H      0.924     0.036     2.508     2.476
    33   1 H      0.924     0.040     2.448     2.447
    34   1 H      0.924     0.040     2.444     2.445
    35   1 H      0.860     0.200     1.108     1.649
    36   6 C      3.732    -0.012    20.877     6.522
    37   1 H      0.925     0.065     2.147     2.291
    38   1 H      0.924     0.064     2.152     2.294
    39   6 C      3.802    -0.073    21.903     6.663
    40   1 H      0.924     0.043     2.405     2.425
    41   1 H      0.924     0.054     2.269     2.356
    42   6 C      3.801    -0.057    21.599     6.617
    43   1 H      0.924     0.038     2.471     2.458
    44   1 H      0.924     0.042     2.420     2.433
    45   6 C      3.750    -0.106    22.589     6.778
    46   1 H      0.924     0.037     2.486     2.466
    47   1 H      0.924     0.040     2.442     2.444
    48   1 H      0.924     0.041     2.442     2.444
    49   7 N      3.324    -0.243    26.333     7.622

 Mol. C6AA /au·bohr⁶  :      19024.842539
 Mol. C8AA /au·bohr⁸  :     412988.718297
 Mol. α(0) /au        :        209.801550


Wiberg/Mayer (AO) data.
largest (>0.10) Wiberg bond orders for each atom
          total WBO             WBO to atom ...
     1  C   3.982        C    6 1.423    C    2 1.407    C    7 0.947    C    4 0.111
     2  C   3.991        C    3 1.450    C    1 1.407    H    8 0.965    C    5 0.112
     3  C   3.991        C    2 1.450    C    4 1.430    H   26 0.971    C    6 0.110
     4  C   3.991        C    5 1.445    C    3 1.430    H   10 0.971    C    1 0.111
     5  C   3.991        C    4 1.445    C    6 1.434    H   27 0.971    C    2 0.112
     6  C   3.990        C    5 1.434    C    1 1.423    H    9 0.964    C    3 0.110
     7  C   3.958        O   19 1.188    C    1 0.947    H   24 0.929    N   11 0.839
     8  H   1.000        C    2 0.965
     9  H   0.998        C    6 0.964
    10  H   0.998        C    4 0.971
    11  N   3.450        C   12 0.984    H   25 0.946    C    7 0.839    H   13 0.405    N   49 0.134
    12  C   3.969        C   14 1.007    N   11 0.984    H   15 0.976    H   16 0.969
    13  H   0.940        N   49 0.510    N   11 0.405
    14  C   3.993        C   12 1.007    C   28 1.006    H   18 0.974    H   17 0.971
    15  H   0.998        C   12 0.976
    16  H   0.998        C   12 0.969
    17  H   0.997        C   14 0.971
    18  H   0.998        C   14 0.974
    19  O   1.594        C    7 1.188    H   21 0.155
    20  O   1.813        H   22 0.925    H   21 0.727
    21  H   0.893        O   20 0.727    O   19 0.155
    22  H   0.929        O   20 0.925
    23  H   0.944        N   49 0.876
    24  H   0.998        C    7 0.929
    25  H   0.972        N   11 0.946
    26  H   0.998        C    3 0.971
    27  H   0.998        C    5 0.971
    28  C   3.996        C   31 1.019    C   14 1.006    H   30 0.978    H   29 0.977
    29  H   0.999        C   28 0.977
    30  H   0.999        C   28 0.978
    31  C   3.996        C   28 1.019    H   32 0.988    H   34 0.987    H   33 0.987
    32  H   0.999        C   31 0.988
    33  H   0.998        C   31 0.987
    34  H   0.998        C   31 0.987
    35  H   0.960        N   49 0.945
    36  C   3.953        C   39 1.008    N   49 0.982    H   38 0.972    H   37 0.969
    37  H   0.996        C   36 0.969
    38  H   0.996        C   36 0.972
    39  C   3.992        C   36 1.008    C   42 1.005    H   41 0.974    H   40 0.973
    40  H   0.998        C   39 0.973
    41  H   0.997        C   39 0.974
    42  C   3.995        C   45 1.020    C   39 1.005    H   44 0.977    H   43 0.977
    43  H   0.999        C   42 0.977
    44  H   0.998        C   42 0.977
    45  C   3.995        C   42 1.020    H   46 0.987    H   48 0.987    H   47 0.987
    46  H   0.999        C   45 0.987
    47  H   0.998        C   45 0.987
    48  H   0.998        C   45 0.987
    49  N   3.514        C   36 0.982    H   35 0.945    H   23 0.876    H   13 0.510    N   11 0.134

molecular dipole:
                 x           y           z       tot (Debye)
 q only:        0.400       0.690       3.943
   full:        0.523       1.024       3.759       9.992
molecular quadrupole (traceless):
                xx          xy          yy          xz          yz          zz
 q only:        8.337       1.657      -8.236      12.684      -5.447      -0.101
  q+dip:        7.299       2.540      -4.796      13.155      -5.856      -2.503
   full:        7.654       1.647      -5.987      13.600      -6.485      -1.667

           -------------------------------------------------
          |                Property Printout                |
           -------------------------------------------------

    * Orbital Energies and Occupations

         #    Occupation            Energy/Eh            Energy/eV
      -------------------------------------------------------------
         1        2.0000           -0.6737026             -18.3324
       ...           ...                  ...                  ...
        44        2.0000           -0.4456702             -12.1273
        45        2.0000           -0.4430497             -12.0560
        46        2.0000           -0.4411924             -12.0055
        47        2.0000           -0.4297679             -11.6946
        48        2.0000           -0.4285203             -11.6606
        49        2.0000           -0.4276765             -11.6377
        50        2.0000           -0.4257266             -11.5846
        51        2.0000           -0.4197792             -11.4228
        52        2.0000           -0.4100164             -11.1571
        53        2.0000           -0.4041364             -10.9971
        54        2.0000           -0.4000358             -10.8855
        55        2.0000           -0.3518281              -9.5737
        56        2.0000           -0.3396047              -9.2411 (HOMO)
        57                         -0.2282445              -6.2108 (LUMO)
        58                         -0.2250205              -6.1231
        59                         -0.1033012              -2.8110
        60                         -0.0597213              -1.6251
        61                         -0.0247741              -0.6741
        62                          0.0323969               0.8816
        63                          0.0449875               1.2242
        64                          0.0641440               1.7454
        65                          0.0672026               1.8287
        66                          0.0815090               2.2180
        67                          0.0921285               2.5069
       ...                                ...                  ...
       106                          0.6439536              17.5229
      -------------------------------------------------------------
                  HL-Gap            0.1113603 Eh            3.0303 eV
             Fermi-level           -0.2839246 Eh           -7.7260 eV

     #   Z        covCN         q      C6AA      α(0)
     1   6 C      2.962    -0.031    28.760     8.796
     2   6 C      2.919    -0.046    29.143     8.853
     3   6 C      2.914    -0.033    28.831     8.805
     4   6 C      2.915    -0.035    28.877     8.812
     5   6 C      2.914    -0.034    28.853     8.808
     6   6 C      2.920    -0.032    28.787     8.798
     7   6 C      3.652     0.215    17.499     6.007
     8   1 H      0.925     0.018     2.764     2.600
     9   1 H      0.926     0.044     2.397     2.421
    10   1 H      0.925     0.038     2.472     2.459
    11   7 N      3.162    -0.248    26.432     7.636
    12   6 C      3.734     0.011    20.484     6.459
    13   1 H      1.195     0.246     0.888     1.472
    14   6 C      3.802    -0.072    21.879     6.660
    15   1 H      0.924     0.041     2.436     2.441
    16   1 H      0.924     0.041     2.434     2.440
    17   1 H      0.925     0.056     2.248     2.345
    18   1 H      0.924     0.039     2.469     2.457
    19   8 O      0.872    -0.727    29.437     7.275
    20   8 O      1.593    -0.672    26.980     7.010
    21   1 H      0.805     0.327     0.646     1.262
    22   1 H      0.805     0.266     0.833     1.433
    23   1 H      0.859     0.236     0.939     1.518
    24   1 H      0.921    -0.047     4.026     3.138
    25   1 H      0.860     0.167     1.293     1.781
    26   1 H      0.925     0.039     2.456     2.451
    27   1 H      0.925     0.035     2.521     2.483
    28   6 C      3.800    -0.054    21.549     6.609
    29   1 H      0.924     0.037     2.487     2.466
    30   1 H      0.924     0.032     2.558     2.501
    31   6 C      3.750    -0.106    22.581     6.777
    32   1 H      0.924     0.036     2.508     2.476
    33   1 H      0.924     0.040     2.448     2.447
    34   1 H      0.924     0.040     2.444     2.445
    35   1 H      0.860     0.200     1.108     1.649
    36   6 C      3.732    -0.012    20.877     6.522
    37   1 H      0.925     0.065     2.147     2.291
    38   1 H      0.924     0.064     2.152     2.294
    39   6 C      3.802    -0.073    21.903     6.663
    40   1 H      0.924     0.043     2.405     2.425
    41   1 H      0.924     0.054     2.269     2.356
    42   6 C      3.801    -0.057    21.599     6.617
    43   1 H      0.924     0.038     2.471     2.458
    44   1 H      0.924     0.042     2.420     2.433
    45   6 C      3.750    -0.106    22.589     6.778
    46   1 H      0.924     0.037     2.486     2.466
    47   1 H      0.924     0.040     2.442     2.444
    48   1 H      0.924     0.041     2.442     2.444
    49   7 N      3.324    -0.243    26.333     7.622

 Mol. C6AA /au·bohr⁶  :      19024.842539
 Mol. C8AA /au·bohr⁸  :     412988.718297
 Mol. α(0) /au        :        209.801550


Wiberg/Mayer (AO) data.
largest (>0.10) Wiberg bond orders for each atom
          total WBO             WBO to atom ...
     1  C   3.982        C    6 1.423    C    2 1.407    C    7 0.947    C    4 0.111
     2  C   3.991        C    3 1.450    C    1 1.407    H    8 0.965    C    5 0.112
     3  C   3.991        C    2 1.450    C    4 1.430    H   26 0.971    C    6 0.110
     4  C   3.991        C    5 1.445    C    3 1.430    H   10 0.971    C    1 0.111
     5  C   3.991        C    4 1.445    C    6 1.434    H   27 0.971    C    2 0.112
     6  C   3.990        C    5 1.434    C    1 1.423    H    9 0.964    C    3 0.110
     7  C   3.958        O   19 1.188    C    1 0.947    H   24 0.929    N   11 0.839
     8  H   1.000        C    2 0.965
     9  H   0.998        C    6 0.964
    10  H   0.998        C    4 0.971
    11  N   3.450        C   12 0.984    H   25 0.946    C    7 0.839    H   13 0.405    N   49 0.134
    12  C   3.969        C   14 1.007    N   11 0.984    H   15 0.976    H   16 0.969
    13  H   0.940        N   49 0.510    N   11 0.405
    14  C   3.993        C   12 1.007    C   28 1.006    H   18 0.974    H   17 0.971
    15  H   0.998        C   12 0.976
    16  H   0.998        C   12 0.969
    17  H   0.997        C   14 0.971
    18  H   0.998        C   14 0.974
    19  O   1.594        C    7 1.188    H   21 0.155
    20  O   1.813        H   22 0.925    H   21 0.727
    21  H   0.893        O   20 0.727    O   19 0.155
    22  H   0.929        O   20 0.925
    23  H   0.944        N   49 0.876
    24  H   0.998        C    7 0.929
    25  H   0.972        N   11 0.946
    26  H   0.998        C    3 0.971
    27  H   0.998        C    5 0.971
    28  C   3.996        C   31 1.019    C   14 1.006    H   30 0.978    H   29 0.977
    29  H   0.999        C   28 0.977
    30  H   0.999        C   28 0.978
    31  C   3.996        C   28 1.019    H   32 0.988    H   34 0.987    H   33 0.987
    32  H   0.999        C   31 0.988
    33  H   0.998        C   31 0.987
    34  H   0.998        C   31 0.987
    35  H   0.960        N   49 0.945
    36  C   3.953        C   39 1.008    N   49 0.982    H   38 0.972    H   37 0.969
    37  H   0.996        C   36 0.969
    38  H   0.996        C   36 0.972
    39  C   3.992        C   36 1.008    C   42 1.005    H   41 0.974    H   40 0.973
    40  H   0.998        C   39 0.973
    41  H   0.997        C   39 0.974
    42  C   3.995        C   45 1.020    C   39 1.005    H   44 0.977    H   43 0.977
    43  H   0.999        C   42 0.977
    44  H   0.998        C   42 0.977
    45  C   3.995        C   42 1.020    H   46 0.987    H   48 0.987    H   47 0.987
    46  H   0.999        C   45 0.987
    47  H   0.998        C   45 0.987
    48  H   0.998        C   45 0.987
    49  N   3.514        C   36 0.982    H   35 0.945    H   23 0.876    H   13 0.510    N   11 0.134

molecular dipole:
                 x           y           z       tot (Debye)
 q only:        0.400       0.690       3.943
   full:        0.523       1.024       3.759       9.992
molecular quadrupole (traceless):
                xx          xy          yy          xz          yz          zz
 q only:        8.337       1.657      -8.236      12.684      -5.447      -0.101
  q+dip:        7.299       2.540      -4.796      13.155      -5.856      -2.503
   full:        7.654       1.647      -5.987      13.600      -6.485      -1.667


           -------------------------------------------------
          | TOTAL ENERGY              -61.372139755539 Eh   |
          | GRADIENT NORM               0.034302194814 Eh/α |
          | HOMO-LUMO GAP               3.030267214890 eV   |
           -------------------------------------------------

------------------------------------------------------------------------
 * finished run on 2020/11/22 at 08:59:39.943     
------------------------------------------------------------------------
 total:
 * wall-time:     0 d,  0 h,  0 min,  0.101 sec
 *  cpu-time:     0 d,  0 h,  0 min,  0.844 sec
 * ratio c/w:     8.342 speedup
 SCF:
 * wall-time:     0 d,  0 h,  0 min,  0.053 sec
 *  cpu-time:     0 d,  0 h,  0 min,  0.462 sec
 * ratio c/w:     8.754 speedup


-------------------------   --------------------
FINAL SINGLE POINT ENERGY       -61.372139755540
-------------------------   --------------------


----------------------------------------------------------------------------
                           ORCA NUMERICAL FREQUENCIES
                              (8-process run)
----------------------------------------------------------------------------

Number of atoms                ... 49
Central differences            ... used
Number of displacements        ... 294
Numerical increment            ... 5.000e-03 bohr
IR-spectrum generation         ... on
Raman-spectrum generation      ... off
Surface Crossing Hessian       ... off
List of participating nodes    ...  /tmp/slurm-scratch/freq.321/freq.hostnames

The output will be reduced. Please look at the following files:
SCF program output             ... >/tmp/slurm-scratch/freq.321/freq.lastscf
Integral program output        ... >/tmp/slurm-scratch/freq.321/freq.lastint
Gradient program output        ... >/tmp/slurm-scratch/freq.321/freq.lastgrad
Dipole moment program output   ... >/tmp/slurm-scratch/freq.321/freq.lastmom
AutoCI program output          ... >/tmp/slurm-scratch/freq.321/freq.lastautoci


         <<< Energy and Gradient at the input geometry >>>

        <<< Energy and Gradient at displaced geometries >>>
             <<<Displacing   1/coordinate 1 (+)>>>
             <<<Displacing   2/coordinate 2 (+)>>>
             <<<Displacing   2/coordinate 3 (+)>>>
             <<<Displacing   3/coordinate 2 (+)>>>
             <<<Displacing   2/coordinate 1 (+)>>>
             <<<Displacing   1/coordinate 3 (+)>>>
             <<<Displacing   1/coordinate 1 (-)>>>
             <<<Displacing   1/coordinate 2 (+)>>>
             <<<Displacing   2/coordinate 3 (-)>>>
             <<<Displacing   2/coordinate 2 (-)>>>
             <<<Displacing   3/coordinate 2 (-)>>>
             <<<Displacing   1/coordinate 3 (-)>>>
             <<<Displacing   2/coordinate 1 (-)>>>
             <<<Displacing   3/coordinate 1 (+)>>>
             <<<Displacing   1/coordinate 2 (-)>>>
             <<<Displacing   3/coordinate 1 (-)>>>
             <<<Displacing   3/coordinate 3 (+)>>>
             <<<Displacing   4/coordinate 1 (+)>>>
             <<<Displacing   4/coordinate 2 (+)>>>
             <<<Displacing   5/coordinate 1 (+)>>>
             <<<Displacing   5/coordinate 2 (+)>>>
             <<<Displacing   4/coordinate 3 (+)>>>
             <<<Displacing   3/coordinate 3 (-)>>>
             <<<Displacing   4/coordinate 1 (-)>>>
             <<<Displacing   4/coordinate 2 (-)>>>
             <<<Displacing   5/coordinate 3 (+)>>>
             <<<Displacing   5/coordinate 1 (-)>>>
             <<<Displacing   5/coordinate 2 (-)>>>
             <<<Displacing   4/coordinate 3 (-)>>>
             <<<Displacing   6/coordinate 1 (+)>>>
             <<<Displacing   5/coordinate 3 (-)>>>
             <<<Displacing   6/coordinate 1 (-)>>>
             <<<Displacing   6/coordinate 2 (+)>>>
             <<<Displacing   6/coordinate 3 (+)>>>
             <<<Displacing   7/coordinate 1 (+)>>>
             <<<Displacing   6/coordinate 2 (-)>>>
             <<<Displacing   7/coordinate 2 (+)>>>
             <<<Displacing   6/coordinate 3 (-)>>>
             <<<Displacing   7/coordinate 3 (+)>>>
             <<<Displacing   7/coordinate 1 (-)>>>
             <<<Displacing   8/coordinate 1 (+)>>>
             <<<Displacing   8/coordinate 2 (+)>>>
             <<<Displacing   7/coordinate 2 (-)>>>
             <<<Displacing   8/coordinate 3 (+)>>>
             <<<Displacing   7/coordinate 3 (-)>>>
             <<<Displacing   8/coordinate 1 (-)>>>
             <<<Displacing   8/coordinate 2 (-)>>>
             <<<Displacing   8/coordinate 3 (-)>>>
             <<<Displacing   9/coordinate 1 (+)>>>
             <<<Displacing   9/coordinate 1 (-)>>>
             <<<Displacing   9/coordinate 2 (+)>>>
             <<<Displacing  10/coordinate 1 (+)>>>
             <<<Displacing  10/coordinate 2 (+)>>>
             <<<Displacing   9/coordinate 3 (+)>>>
             <<<Displacing   9/coordinate 2 (-)>>>
             <<<Displacing  11/coordinate 1 (+)>>>
             <<<Displacing  10/coordinate 3 (+)>>>
             <<<Displacing  10/coordinate 1 (-)>>>
             <<<Displacing   9/coordinate 3 (-)>>>
             <<<Displacing  10/coordinate 2 (-)>>>
             <<<Displacing  11/coordinate 2 (+)>>>
             <<<Displacing  11/coordinate 1 (-)>>>
             <<<Displacing  10/coordinate 3 (-)>>>
             <<<Displacing  11/coordinate 2 (-)>>>
             <<<Displacing  11/coordinate 3 (+)>>>
             <<<Displacing  11/coordinate 3 (-)>>>
             <<<Displacing  12/coordinate 3 (+)>>>
             <<<Displacing  12/coordinate 2 (+)>>>
             <<<Displacing  12/coordinate 1 (+)>>>
             <<<Displacing  12/coordinate 3 (-)>>>
             <<<Displacing  12/coordinate 2 (-)>>>
             <<<Displacing  12/coordinate 1 (-)>>>
             <<<Displacing  13/coordinate 3 (+)>>>
             <<<Displacing  13/coordinate 2 (+)>>>
             <<<Displacing  14/coordinate 1 (+)>>>
             <<<Displacing  13/coordinate 1 (+)>>>
             <<<Displacing  13/coordinate 3 (-)>>>
             <<<Displacing  13/coordinate 2 (-)>>>
             <<<Displacing  14/coordinate 1 (-)>>>
             <<<Displacing  13/coordinate 1 (-)>>>
             <<<Displacing  14/coordinate 2 (+)>>>
             <<<Displacing  14/coordinate 2 (-)>>>
             <<<Displacing  15/coordinate 1 (+)>>>
             <<<Displacing  14/coordinate 3 (+)>>>
             <<<Displacing  14/coordinate 3 (-)>>>
             <<<Displacing  15/coordinate 1 (-)>>>
             <<<Displacing  15/coordinate 2 (+)>>>
             <<<Displacing  15/coordinate 3 (+)>>>
             <<<Displacing  16/coordinate 1 (+)>>>
             <<<Displacing  15/coordinate 2 (-)>>>
             <<<Displacing  15/coordinate 3 (-)>>>
             <<<Displacing  16/coordinate 2 (+)>>>
             <<<Displacing  16/coordinate 1 (-)>>>
             <<<Displacing  16/coordinate 3 (+)>>>
             <<<Displacing  16/coordinate 2 (-)>>>
             <<<Displacing  16/coordinate 3 (-)>>>
             <<<Displacing  17/coordinate 1 (+)>>>
             <<<Displacing  17/coordinate 1 (-)>>>
             <<<Displacing  17/coordinate 3 (+)>>>
             <<<Displacing  17/coordinate 2 (+)>>>
             <<<Displacing  17/coordinate 3 (-)>>>
             <<<Displacing  17/coordinate 2 (-)>>>
             <<<Displacing  18/coordinate 2 (+)>>>
             <<<Displacing  18/coordinate 3 (+)>>>
             <<<Displacing  18/coordinate 1 (+)>>>
             <<<Displacing  19/coordinate 1 (+)>>>
             <<<Displacing  19/coordinate 2 (+)>>>
             <<<Displacing  18/coordinate 2 (-)>>>
             <<<Displacing  18/coordinate 1 (-)>>>
             <<<Displacing  18/coordinate 3 (-)>>>
             <<<Displacing  19/coordinate 1 (-)>>>
             <<<Displacing  19/coordinate 2 (-)>>>
             <<<Displacing  20/coordinate 1 (+)>>>
             <<<Displacing  19/coordinate 3 (+)>>>
             <<<Displacing  19/coordinate 3 (-)>>>
             <<<Displacing  20/coordinate 1 (-)>>>
             <<<Displacing  20/coordinate 2 (+)>>>
             <<<Displacing  20/coordinate 2 (-)>>>
             <<<Displacing  21/coordinate 1 (+)>>>
             <<<Displacing  20/coordinate 3 (+)>>>
             <<<Displacing  22/coordinate 1 (+)>>>
             <<<Displacing  21/coordinate 2 (+)>>>
             <<<Displacing  21/coordinate 1 (-)>>>
             <<<Displacing  20/coordinate 3 (-)>>>
             <<<Displacing  21/coordinate 2 (-)>>>
             <<<Displacing  21/coordinate 3 (+)>>>
             <<<Displacing  22/coordinate 1 (-)>>>
             <<<Displacing  21/coordinate 3 (-)>>>
             <<<Displacing  22/coordinate 2 (+)>>>
             <<<Displacing  22/coordinate 3 (+)>>>
             <<<Displacing  22/coordinate 2 (-)>>>
             <<<Displacing  23/coordinate 1 (+)>>>
             <<<Displacing  22/coordinate 3 (-)>>>
             <<<Displacing  23/coordinate 2 (+)>>>
             <<<Displacing  23/coordinate 1 (-)>>>
             <<<Displacing  23/coordinate 3 (+)>>>
             <<<Displacing  24/coordinate 1 (+)>>>
             <<<Displacing  23/coordinate 2 (-)>>>
             <<<Displacing  24/coordinate 2 (+)>>>
             <<<Displacing  23/coordinate 3 (-)>>>
             <<<Displacing  24/coordinate 1 (-)>>>
             <<<Displacing  24/coordinate 3 (+)>>>
             <<<Displacing  24/coordinate 2 (-)>>>
             <<<Displacing  24/coordinate 3 (-)>>>
             <<<Displacing  25/coordinate 1 (+)>>>
             <<<Displacing  25/coordinate 2 (+)>>>
             <<<Displacing  25/coordinate 1 (-)>>>
             <<<Displacing  25/coordinate 3 (+)>>>
             <<<Displacing  25/coordinate 2 (-)>>>
             <<<Displacing  25/coordinate 3 (-)>>>
             <<<Displacing  26/coordinate 1 (+)>>>
             <<<Displacing  26/coordinate 2 (+)>>>
             <<<Displacing  26/coordinate 3 (+)>>>
             <<<Displacing  26/coordinate 1 (-)>>>
             <<<Displacing  27/coordinate 1 (+)>>>
             <<<Displacing  26/coordinate 3 (-)>>>
             <<<Displacing  26/coordinate 2 (-)>>>
             <<<Displacing  27/coordinate 2 (+)>>>
             <<<Displacing  27/coordinate 1 (-)>>>
             <<<Displacing  27/coordinate 2 (-)>>>
             <<<Displacing  27/coordinate 3 (+)>>>
             <<<Displacing  28/coordinate 1 (+)>>>
             <<<Displacing  27/coordinate 3 (-)>>>
             <<<Displacing  28/coordinate 2 (+)>>>
             <<<Displacing  28/coordinate 1 (-)>>>
             <<<Displacing  28/coordinate 2 (-)>>>
             <<<Displacing  29/coordinate 1 (+)>>>
             <<<Displacing  28/coordinate 3 (+)>>>
             <<<Displacing  29/coordinate 2 (+)>>>
             <<<Displacing  29/coordinate 1 (-)>>>
             <<<Displacing  29/coordinate 3 (+)>>>
             <<<Displacing  28/coordinate 3 (-)>>>
             <<<Displacing  29/coordinate 2 (-)>>>
             <<<Displacing  30/coordinate 1 (+)>>>
             <<<Displacing  29/coordinate 3 (-)>>>
             <<<Displacing  30/coordinate 1 (-)>>>
             <<<Displacing  30/coordinate 2 (+)>>>
             <<<Displacing  30/coordinate 3 (+)>>>
             <<<Displacing  30/coordinate 2 (-)>>>
             <<<Displacing  30/coordinate 3 (-)>>>
             <<<Displacing  31/coordinate 1 (+)>>>
             <<<Displacing  31/coordinate 2 (+)>>>
             <<<Displacing  31/coordinate 1 (-)>>>
             <<<Displacing  31/coordinate 3 (+)>>>
             <<<Displacing  31/coordinate 2 (-)>>>
             <<<Displacing  32/coordinate 2 (+)>>>
             <<<Displacing  32/coordinate 1 (+)>>>
             <<<Displacing  31/coordinate 3 (-)>>>
             <<<Displacing  32/coordinate 3 (+)>>>
             <<<Displacing  32/coordinate 2 (-)>>>
             <<<Displacing  32/coordinate 1 (-)>>>
             <<<Displacing  32/coordinate 3 (-)>>>
             <<<Displacing  33/coordinate 1 (+)>>>
             <<<Displacing  33/coordinate 2 (+)>>>
             <<<Displacing  33/coordinate 1 (-)>>>
             <<<Displacing  33/coordinate 3 (+)>>>
             <<<Displacing  33/coordinate 2 (-)>>>
             <<<Displacing  34/coordinate 1 (+)>>>
             <<<Displacing  33/coordinate 3 (-)>>>
             <<<Displacing  34/coordinate 2 (+)>>>
             <<<Displacing  34/coordinate 1 (-)>>>
             <<<Displacing  34/coordinate 2 (-)>>>
             <<<Displacing  34/coordinate 3 (+)>>>
             <<<Displacing  35/coordinate 1 (+)>>>
             <<<Displacing  35/coordinate 2 (+)>>>
             <<<Displacing  35/coordinate 1 (-)>>>
             <<<Displacing  34/coordinate 3 (-)>>>
             <<<Displacing  35/coordinate 2 (-)>>>
             <<<Displacing  35/coordinate 3 (+)>>>
             <<<Displacing  36/coordinate 1 (+)>>>
             <<<Displacing  35/coordinate 3 (-)>>>
             <<<Displacing  36/coordinate 2 (+)>>>
             <<<Displacing  36/coordinate 3 (+)>>>
             <<<Displacing  36/coordinate 1 (-)>>>
             <<<Displacing  36/coordinate 2 (-)>>>
             <<<Displacing  37/coordinate 1 (+)>>>
             <<<Displacing  36/coordinate 3 (-)>>>
             <<<Displacing  37/coordinate 1 (-)>>>
             <<<Displacing  37/coordinate 2 (+)>>>
             <<<Displacing  37/coordinate 3 (+)>>>
             <<<Displacing  37/coordinate 2 (-)>>>
             <<<Displacing  38/coordinate 1 (+)>>>
             <<<Displacing  37/coordinate 3 (-)>>>
             <<<Displacing  38/coordinate 1 (-)>>>
             <<<Displacing  38/coordinate 2 (+)>>>
             <<<Displacing  38/coordinate 2 (-)>>>
             <<<Displacing  38/coordinate 3 (+)>>>
             <<<Displacing  39/coordinate 2 (+)>>>
             <<<Displacing  39/coordinate 1 (+)>>>
             <<<Displacing  38/coordinate 3 (-)>>>
             <<<Displacing  39/coordinate 2 (-)>>>
             <<<Displacing  39/coordinate 3 (+)>>>
             <<<Displacing  39/coordinate 1 (-)>>>
             <<<Displacing  39/coordinate 3 (-)>>>
             <<<Displacing  40/coordinate 1 (+)>>>
             <<<Displacing  40/coordinate 2 (+)>>>
             <<<Displacing  40/coordinate 1 (-)>>>
             <<<Displacing  40/coordinate 3 (+)>>>
             <<<Displacing  40/coordinate 2 (-)>>>
             <<<Displacing  40/coordinate 3 (-)>>>
             <<<Displacing  41/coordinate 1 (+)>>>
             <<<Displacing  41/coordinate 2 (+)>>>
             <<<Displacing  41/coordinate 1 (-)>>>
             <<<Displacing  41/coordinate 2 (-)>>>
             <<<Displacing  41/coordinate 3 (+)>>>
             <<<Displacing  42/coordinate 1 (+)>>>
             <<<Displacing  42/coordinate 2 (+)>>>
             <<<Displacing  41/coordinate 3 (-)>>>
             <<<Displacing  42/coordinate 1 (-)>>>
             <<<Displacing  42/coordinate 2 (-)>>>
             <<<Displacing  42/coordinate 3 (+)>>>
             <<<Displacing  43/coordinate 1 (+)>>>
             <<<Displacing  42/coordinate 3 (-)>>>
             <<<Displacing  43/coordinate 2 (+)>>>
             <<<Displacing  43/coordinate 2 (-)>>>
             <<<Displacing  43/coordinate 1 (-)>>>
             <<<Displacing  43/coordinate 3 (+)>>>
             <<<Displacing  44/coordinate 1 (+)>>>
             <<<Displacing  44/coordinate 2 (+)>>>
             <<<Displacing  44/coordinate 3 (+)>>>
             <<<Displacing  43/coordinate 3 (-)>>>
             <<<Displacing  44/coordinate 1 (-)>>>
             <<<Displacing  44/coordinate 2 (-)>>>
             <<<Displacing  44/coordinate 3 (-)>>>
             <<<Displacing  45/coordinate 1 (+)>>>
             <<<Displacing  45/coordinate 1 (-)>>>
             <<<Displacing  45/coordinate 2 (+)>>>
             <<<Displacing  45/coordinate 2 (-)>>>
             <<<Displacing  45/coordinate 3 (+)>>>
             <<<Displacing  46/coordinate 1 (+)>>>
             <<<Displacing  45/coordinate 3 (-)>>>
             <<<Displacing  46/coordinate 1 (-)>>>
             <<<Displacing  46/coordinate 2 (+)>>>
             <<<Displacing  47/coordinate 2 (+)>>>
             <<<Displacing  47/coordinate 1 (+)>>>
             <<<Displacing  46/coordinate 3 (+)>>>
             <<<Displacing  46/coordinate 2 (-)>>>
             <<<Displacing  47/coordinate 2 (-)>>>
             <<<Displacing  46/coordinate 3 (-)>>>
             <<<Displacing  47/coordinate 1 (-)>>>
             <<<Displacing  47/coordinate 3 (+)>>>
             <<<Displacing  47/coordinate 3 (-)>>>
             <<<Displacing  48/coordinate 1 (+)>>>
             <<<Displacing  48/coordinate 1 (-)>>>
             <<<Displacing  48/coordinate 2 (+)>>>
             <<<Displacing  48/coordinate 3 (+)>>>
             <<<Displacing  48/coordinate 2 (-)>>>
             <<<Displacing  48/coordinate 3 (-)>>>
             <<<Displacing  49/coordinate 1 (+)>>>
             <<<Displacing  49/coordinate 2 (+)>>>
             <<<Displacing  49/coordinate 3 (+)>>>
             <<<Displacing  49/coordinate 1 (-)>>>
             <<<Displacing  49/coordinate 2 (-)>>>
             <<<Displacing  49/coordinate 3 (-)>>>

-----------------------
VIBRATIONAL FREQUENCIES
-----------------------

Scaling factor for frequencies =  1.000000000 (already applied!)

   0:         0.00 cm**-1
   1:         0.00 cm**-1
   2:         0.00 cm**-1
   3:         0.00 cm**-1
   4:         0.00 cm**-1
   5:         0.00 cm**-1
   6:      -866.56 cm**-1 ***imaginary mode***
   7:       -44.19 cm**-1 ***imaginary mode***
   8:        38.30 cm**-1
   9:        48.04 cm**-1
  10:        55.32 cm**-1
  11:        67.46 cm**-1
  12:        71.91 cm**-1
  13:        80.62 cm**-1
  14:        83.09 cm**-1
  15:        94.03 cm**-1
  16:       104.49 cm**-1
  17:       109.97 cm**-1
  18:       126.38 cm**-1
  19:       133.34 cm**-1
  20:       152.97 cm**-1
  21:       177.51 cm**-1
  22:       188.97 cm**-1
  23:       212.93 cm**-1
  24:       223.36 cm**-1
  25:       237.27 cm**-1
  26:       260.89 cm**-1
  27:       274.75 cm**-1
  28:       284.31 cm**-1
  29:       343.99 cm**-1
  30:       352.68 cm**-1
  31:       380.69 cm**-1
  32:       390.81 cm**-1
  33:       394.88 cm**-1
  34:       406.08 cm**-1
  35:       418.48 cm**-1
  36:       429.76 cm**-1
  37:       477.12 cm**-1
  38:       521.46 cm**-1
  39:       537.75 cm**-1
  40:       588.96 cm**-1
  41:       607.03 cm**-1
  42:       641.31 cm**-1
  43:       666.37 cm**-1
  44:       681.28 cm**-1
  45:       742.12 cm**-1
  46:       767.14 cm**-1
  47:       772.21 cm**-1
  48:       804.91 cm**-1
  49:       819.32 cm**-1
  50:       828.99 cm**-1
  51:       839.87 cm**-1
  52:       883.99 cm**-1
  53:       899.49 cm**-1
  54:       907.40 cm**-1
  55:       929.95 cm**-1
  56:       933.55 cm**-1
  57:       935.91 cm**-1
  58:       945.53 cm**-1
  59:       952.24 cm**-1
  60:       953.19 cm**-1
  61:       978.02 cm**-1
  62:       996.64 cm**-1
  63:      1014.53 cm**-1
  64:      1027.15 cm**-1
  65:      1042.41 cm**-1
  66:      1070.47 cm**-1
  67:      1071.99 cm**-1
  68:      1089.77 cm**-1
  69:      1094.17 cm**-1
  70:      1095.14 cm**-1
  71:      1110.76 cm**-1
  72:      1121.34 cm**-1
  73:      1128.02 cm**-1
  74:      1138.91 cm**-1
  75:      1154.85 cm**-1
  76:      1158.95 cm**-1
  77:      1177.15 cm**-1
  78:      1185.73 cm**-1
  79:      1196.21 cm**-1
  80:      1197.53 cm**-1
  81:      1217.65 cm**-1
  82:      1236.72 cm**-1
  83:      1246.12 cm**-1
  84:      1254.09 cm**-1
  85:      1270.02 cm**-1
  86:      1274.53 cm**-1
  87:      1277.66 cm**-1
  88:      1278.65 cm**-1
  89:      1281.09 cm**-1
  90:      1282.91 cm**-1
  91:      1285.64 cm**-1
  92:      1293.58 cm**-1
  93:      1312.13 cm**-1
  94:      1341.77 cm**-1
  95:      1352.76 cm**-1
  96:      1372.56 cm**-1
  97:      1373.47 cm**-1
  98:      1413.63 cm**-1
  99:      1419.15 cm**-1
 100:      1427.77 cm**-1
 101:      1429.83 cm**-1
 102:      1445.61 cm**-1
 103:      1456.78 cm**-1
 104:      1467.50 cm**-1
 105:      1469.23 cm**-1
 106:      1481.18 cm**-1
 107:      1494.94 cm**-1
 108:      1497.12 cm**-1
 109:      1502.96 cm**-1
 110:      1504.09 cm**-1
 111:      1507.15 cm**-1
 112:      1507.61 cm**-1
 113:      1511.17 cm**-1
 114:      1513.28 cm**-1
 115:      1556.00 cm**-1
 116:      1565.71 cm**-1
 117:      1573.18 cm**-1
 118:      2174.64 cm**-1
 119:      2652.44 cm**-1
 120:      2938.80 cm**-1
 121:      2945.13 cm**-1
 122:      2945.45 cm**-1
 123:      2955.35 cm**-1
 124:      2955.89 cm**-1
 125:      2964.94 cm**-1
 126:      2972.78 cm**-1
 127:      2975.04 cm**-1
 128:      2975.85 cm**-1
 129:      2978.74 cm**-1
 130:      2981.34 cm**-1
 131:      2983.79 cm**-1
 132:      2985.16 cm**-1
 133:      2989.78 cm**-1
 134:      2998.80 cm**-1
 135:      3001.87 cm**-1
 136:      3015.11 cm**-1
 137:      3024.15 cm**-1
 138:      3040.46 cm**-1
 139:      3048.09 cm**-1
 140:      3052.72 cm**-1
 141:      3064.02 cm**-1
 142:      3066.21 cm**-1
 143:      3091.16 cm**-1
 144:      3360.19 cm**-1
 145:      3398.11 cm**-1
 146:      3607.05 cm**-1


------------
NORMAL MODES
------------

These modes are the cartesian displacements weighted by the diagonal matrix
M(i,i)=1/sqrt(m[i]) where m[i] is the mass of the displaced atom
Thus, these vectors are normalized but *not* orthogonal

                  0          1          2          3          4          5    
      0       0.000000   0.000000   0.000000   0.000000   0.000000   0.000000
      1       0.000000   0.000000   0.000000   0.000000   0.000000   0.000000
      2       0.000000   0.000000   0.000000   0.000000   0.000000   0.000000
      3       0.000000   0.000000   0.000000   0.000000   0.000000   0.000000
      4       0.000000   0.000000   0.000000   0.000000   0.000000   0.000000
      5       0.000000   0.000000   0.000000   0.000000   0.000000   0.000000
      6       0.000000   0.000000   0.000000   0.000000   0.000000   0.000000
      7       0.000000   0.000000   0.000000   0.000000   0.000000   0.000000
      8       0.000000   0.000000   0.000000   0.000000   0.000000   0.000000
      9       0.000000   0.000000   0.000000   0.000000   0.000000   0.000000
     10       0.000000   0.000000   0.000000   0.000000   0.000000   0.000000
     11       0.000000   0.000000   0.000000   0.000000   0.000000   0.000000
     12       0.000000   0.000000   0.000000   0.000000   0.000000   0.000000
     13       0.000000   0.000000   0.000000   0.000000   0.000000   0.000000
     14       0.000000   0.000000   0.000000   0.000000   0.000000   0.000000
     15       0.000000   0.000000   0.000000   0.000000   0.000000   0.000000
     16       0.000000   0.000000   0.000000   0.000000   0.000000   0.000000
     17       0.000000   0.000000   0.000000   0.000000   0.000000   0.000000
     18       0.000000   0.000000   0.000000   0.000000   0.000000   0.000000
     19       0.000000   0.000000   0.000000   0.000000   0.000000   0.000000
     20       0.000000   0.000000   0.000000   0.000000   0.000000   0.000000
     21       0.000000   0.000000   0.000000   0.000000   0.000000   0.000000
     22       0.000000   0.000000   0.000000   0.000000   0.000000   0.000000
     23       0.000000   0.000000   0.000000   0.000000   0.000000   0.000000
     24       0.000000   0.000000   0.000000   0.000000   0.000000   0.000000
     25       0.000000   0.000000   0.000000   0.000000   0.000000   0.000000
     26       0.000000   0.000000   0.000000   0.000000   0.000000   0.000000
     27       0.000000   0.000000   0.000000   0.000000   0.000000   0.000000
     28       0.000000   0.000000   0.000000   0.000000   0.000000   0.000000
     29       0.000000   0.000000   0.000000   0.000000   0.000000   0.000000
     30       0.000000   0.000000   0.000000   0.000000   0.000000   0.000000
     31       0.000000   0.000000   0.000000   0.000000   0.000000   0.000000
     32       0.000000   0.000000   0.000000   0.000000   0.000000   0.000000
     33       0.000000   0.000000   0.000000   0.000000   0.000000   0.000000
     34       0.000000   0.000000   0.000000   0.000000   0.000000   0.000000
     35       0.000000   0.000000   0.000000   0.000000   0.000000   0.000000
     36       0.000000   0.000000   0.000000   0.000000   0.000000   0.000000
     37       0.000000   0.000000   0.000000   0.000000   0.000000   0.000000
     38       0.000000   0.000000   0.000000   0.000000   0.000000   0.000000
     39       0.000000   0.000000   0.000000   0.000000   0.000000   0.000000
     40       0.000000   0.000000   0.000000   0.000000   0.000000   0.000000
     41       0.000000   0.000000   0.000000   0.000000   0.000000   0.000000
     42       0.000000   0.000000   0.000000   0.000000   0.000000   0.000000
     43       0.000000   0.000000   0.000000   0.000000   0.000000   0.000000
     44       0.000000   0.000000   0.000000   0.000000   0.000000   0.000000
     45       0.000000   0.000000   0.000000   0.000000   0.000000   0.000000
     46       0.000000   0.000000   0.000000   0.000000   0.000000   0.000000
     47       0.000000   0.000000   0.000000   0.000000   0.000000   0.000000
     48       0.000000   0.000000   0.000000   0.000000   0.000000   0.000000
     49       0.000000   0.000000   0.000000   0.000000   0.000000   0.000000
     50       0.000000   0.000000   0.000000   0.000000   0.000000   0.000000
     51       0.000000   0.000000   0.000000   0.000000   0.000000   0.000000
     52       0.000000   0.000000   0.000000   0.000000   0.000000   0.000000
     53       0.000000   0.000000   0.000000   0.000000   0.000000   0.000000
     54       0.000000   0.000000   0.000000   0.000000   0.000000   0.000000
     55       0.000000   0.000000   0.000000   0.000000   0.000000   0.000000
     56       0.000000   0.000000   0.000000   0.000000   0.000000   0.000000
     57       0.000000   0.000000   0.000000   0.000000   0.000000   0.000000
     58       0.000000   0.000000   0.000000   0.000000   0.000000   0.000000
     59       0.000000   0.000000   0.000000   0.000000   0.000000   0.000000
     60       0.000000   0.000000   0.000000   0.000000   0.000000   0.000000
     61       0.000000   0.000000   0.000000   0.000000   0.000000   0.000000
     62       0.000000   0.000000   0.000000   0.000000   0.000000   0.000000
     63       0.000000   0.000000   0.000000   0.000000   0.000000   0.000000
     64       0.000000   0.000000   0.000000   0.000000   0.000000   0.000000
     65       0.000000   0.000000   0.000000   0.000000   0.000000   0.000000
     66       0.000000   0.000000   0.000000   0.000000   0.000000   0.000000
     67       0.000000   0.000000   0.000000   0.000000   0.000000   0.000000
     68       0.000000   0.000000   0.000000   0.000000   0.000000   0.000000
     69       0.000000   0.000000   0.000000   0.000000   0.000000   0.000000
     70       0.000000   0.000000   0.000000   0.000000   0.000000   0.000000
     71       0.000000   0.000000   0.000000   0.000000   0.000000   0.000000
     72       0.000000   0.000000   0.000000   0.000000   0.000000   0.000000
     73       0.000000   0.000000   0.000000   0.000000   0.000000   0.000000
     74       0.000000   0.000000   0.000000   0.000000   0.000000   0.000000
     75       0.000000   0.000000   0.000000   0.000000   0.000000   0.000000
     76       0.000000   0.000000   0.000000   0.000000   0.000000   0.000000
     77       0.000000   0.000000   0.000000   0.000000   0.000000   0.000000
     78       0.000000   0.000000   0.000000   0.000000   0.000000   0.000000
     79       0.000000   0.000000   0.000000   0.000000   0.000000   0.000000
     80       0.000000   0.000000   0.000000   0.000000   0.000000   0.000000
     81       0.000000   0.000000   0.000000   0.000000   0.000000   0.000000
     82       0.000000   0.000000   0.000000   0.000000   0.000000   0.000000
     83       0.000000   0.000000   0.000000   0.000000   0.000000   0.000000
     84       0.000000   0.000000   0.000000   0.000000   0.000000   0.000000
     85       0.000000   0.000000   0.000000   0.000000   0.000000   0.000000
     86       0.000000   0.000000   0.000000   0.000000   0.000000   0.000000
     87       0.000000   0.000000   0.000000   0.000000   0.000000   0.000000
     88       0.000000   0.000000   0.000000   0.000000   0.000000   0.000000
     89       0.000000   0.000000   0.000000   0.000000   0.000000   0.000000
     90       0.000000   0.000000   0.000000   0.000000   0.000000   0.000000
     91       0.000000   0.000000   0.000000   0.000000   0.000000   0.000000
     92       0.000000   0.000000   0.000000   0.000000   0.000000   0.000000
     93       0.000000   0.000000   0.000000   0.000000   0.000000   0.000000
     94       0.000000   0.000000   0.000000   0.000000   0.000000   0.000000
     95       0.000000   0.000000   0.000000   0.000000   0.000000   0.000000
     96       0.000000   0.000000   0.000000   0.000000   0.000000   0.000000
     97       0.000000   0.000000   0.000000   0.000000   0.000000   0.000000
     98       0.000000   0.000000   0.000000   0.000000   0.000000   0.000000
     99       0.000000   0.000000   0.000000   0.000000   0.000000   0.000000
    100       0.000000   0.000000   0.000000   0.000000   0.000000   0.000000
    101       0.000000   0.000000   0.000000   0.000000   0.000000   0.000000
    102       0.000000   0.000000   0.000000   0.000000   0.000000   0.000000
    103       0.000000   0.000000   0.000000   0.000000   0.000000   0.000000
    104       0.000000   0.000000   0.000000   0.000000   0.000000   0.000000
    105       0.000000   0.000000   0.000000   0.000000   0.000000   0.000000
    106       0.000000   0.000000   0.000000   0.000000   0.000000   0.000000
    107       0.000000   0.000000   0.000000   0.000000   0.000000   0.000000
    108       0.000000   0.000000   0.000000   0.000000   0.000000   0.000000
    109       0.000000   0.000000   0.000000   0.000000   0.000000   0.000000
    110       0.000000   0.000000   0.000000   0.000000   0.000000   0.000000
    111       0.000000   0.000000   0.000000   0.000000   0.000000   0.000000
    112       0.000000   0.000000   0.000000   0.000000   0.000000   0.000000
    113       0.000000   0.000000   0.000000   0.000000   0.000000   0.000000
    114       0.000000   0.000000   0.000000   0.000000   0.000000   0.000000
    115       0.000000   0.000000   0.000000   0.000000   0.000000   0.000000
    116       0.000000   0.000000   0.000000   0.000000   0.000000   0.000000
    117       0.000000   0.000000   0.000000   0.000000   0.000000   0.000000
    118       0.000000   0.000000   0.000000   0.000000   0.000000   0.000000
    119       0.000000   0.000000   0.000000   0.000000   0.000000   0.000000
    120       0.000000   0.000000   0.000000   0.000000   0.000000   0.000000
    121       0.000000   0.000000   0.000000   0.000000   0.000000   0.000000
    122       0.000000   0.000000   0.000000   0.000000   0.000000   0.000000
    123       0.000000   0.000000   0.000000   0.000000   0.000000   0.000000
    124       0.000000   0.000000   0.000000   0.000000   0.000000   0.000000
    125       0.000000   0.000000   0.000000   0.000000   0.000000   0.000000
    126       0.000000   0.000000   0.000000   0.000000   0.000000   0.000000
    127       0.000000   0.000000   0.000000   0.000000   0.000000   0.000000
    128       0.000000   0.000000   0.000000   0.000000   0.000000   0.000000
    129       0.000000   0.000000   0.000000   0.000000   0.000000   0.000000
    130       0.000000   0.000000   0.000000   0.000000   0.000000   0.000000
    131       0.000000   0.000000   0.000000   0.000000   0.000000   0.000000
    132       0.000000   0.000000   0.000000   0.000000   0.000000   0.000000
    133       0.000000   0.000000   0.000000   0.000000   0.000000   0.000000
    134       0.000000   0.000000   0.000000   0.000000   0.000000   0.000000
    135       0.000000   0.000000   0.000000   0.000000   0.000000   0.000000
    136       0.000000   0.000000   0.000000   0.000000   0.000000   0.000000
    137       0.000000   0.000000   0.000000   0.000000   0.000000   0.000000
    138       0.000000   0.000000   0.000000   0.000000   0.000000   0.000000
    139       0.000000   0.000000   0.000000   0.000000   0.000000   0.000000
    140       0.000000   0.000000   0.000000   0.000000   0.000000   0.000000
    141       0.000000   0.000000   0.000000   0.000000   0.000000   0.000000
    142       0.000000   0.000000   0.000000   0.000000   0.000000   0.000000
    143       0.000000   0.000000   0.000000   0.000000   0.000000   0.000000
    144       0.000000   0.000000   0.000000   0.000000   0.000000   0.000000
    145       0.000000   0.000000   0.000000   0.000000   0.000000   0.000000
    146       0.000000   0.000000   0.000000   0.000000   0.000000   0.000000
                  6          7          8          9         10         11    
      0       0.003515   0.024694  -0.013725   0.021990   0.011895  -0.007636
      1       0.003410   0.001048  -0.021714  -0.001672   0.001065   0.000233
      2       0.001232  -0.012343  -0.061050  -0.057615   0.030307   0.029889
      3      -0.002555   0.016605  -0.018072   0.010875  -0.026110  -0.030438
      4      -0.000342   0.004193  -0.034629  -0.033420  -0.064271  -0.029906
      5      -0.000203  -0.025804  -0.046333  -0.023834   0.083174   0.048161
      6      -0.001590   0.013982  -0.018662   0.013099  -0.001514  -0.052958
      7      -0.000321   0.004513  -0.043097  -0.062154  -0.151159  -0.040573
      8       0.000365  -0.033708  -0.054283  -0.035018   0.107738  -0.030492
      9      -0.000939   0.018116  -0.017454   0.025960   0.063197  -0.051327
     10      -0.000568   0.001775  -0.037805  -0.057927  -0.177453  -0.020640
     11       0.000413  -0.029800  -0.081829  -0.082500   0.087167  -0.126963
     12       0.000572   0.024198  -0.015520   0.036500   0.101509  -0.026207
     13       0.000626   0.000144  -0.022347  -0.025175  -0.114735   0.009204
     14      -0.000132  -0.020955  -0.101891  -0.118194   0.038611  -0.142688
     15       0.001717   0.027168  -0.013648   0.034280   0.074913  -0.005553
     16       0.001253  -0.000329  -0.014946   0.002966  -0.025434   0.020356
     17       0.001412  -0.011800  -0.091358  -0.106167   0.007947  -0.066074
     18       0.020913   0.039075  -0.004513   0.020058  -0.010605   0.003777
     19       0.025743  -0.009817  -0.015039   0.022126   0.100624   0.016047
     20       0.040573   0.021439  -0.028681  -0.046645   0.010355   0.078607
     21       0.003136   0.012100  -0.020572  -0.001224  -0.074596  -0.032333
     22      -0.002082   0.007018  -0.037802  -0.036263  -0.047192  -0.044999
     23      -0.002531  -0.028660  -0.025695   0.013873   0.103457   0.123912
     24       0.002223   0.032271  -0.013344   0.043552   0.099015   0.013677
     25       0.003144  -0.003214  -0.005734   0.028737   0.024261   0.045226
     26      -0.002503  -0.001895  -0.103655  -0.132631  -0.035373  -0.080614
     27      -0.001747   0.016917  -0.017525   0.027684   0.082869  -0.068660
     28       0.000144   0.001173  -0.045622  -0.080057  -0.244993  -0.028250
     29      -0.001407  -0.034090  -0.087165  -0.091066   0.107425  -0.187333
     30      -0.005497  -0.007720  -0.040244   0.006909  -0.006626  -0.010384
     31       0.020880  -0.011700  -0.029353   0.062521   0.047163   0.006464
     32      -0.043606   0.048700  -0.003719  -0.051648   0.026792   0.089169
     33      -0.010666  -0.005502  -0.041401   0.021879   0.011488  -0.018223
     34       0.003763   0.024676   0.004276   0.011532   0.004176   0.025286
     35      -0.013169   0.132923   0.050495  -0.061098   0.051854   0.076200
     36      -0.119071  -0.013037  -0.039561  -0.031353  -0.038493   0.033774
     37      -0.734440  -0.016239  -0.050007   0.114832   0.017828  -0.015360
     38       0.631886   0.043067  -0.029448  -0.001103   0.003098   0.065229
     39      -0.001172  -0.026665  -0.029241  -0.012364  -0.039168  -0.005925
     40       0.000325  -0.035135   0.011977  -0.012081  -0.049372   0.042897
     41      -0.000494  -0.151440   0.024760  -0.007217   0.002729   0.125207
     42      -0.018904   0.010388  -0.072536   0.041163   0.041688  -0.031567
     43      -0.003477  -0.157886  -0.027484   0.036568  -0.040942   0.065497
     44       0.003927   0.344657   0.099195  -0.097725   0.094643   0.032412
     45       0.047740  -0.004933  -0.019425   0.037941   0.032368  -0.025293
     46       0.028890   0.290269   0.057855  -0.038716   0.051638  -0.027550
     47      -0.011906   0.235994   0.072652  -0.079766   0.071783   0.055287
     48      -0.004535  -0.037304   0.016763  -0.052307  -0.063442  -0.089830
     49       0.000757   0.135991   0.046677  -0.039316   0.004961  -0.043487
     50      -0.001473  -0.377300  -0.045571   0.050022  -0.057702   0.283570
     51       0.007678  -0.054247  -0.075827  -0.003204  -0.075449   0.117694
     52       0.010824  -0.309742  -0.056202   0.052376  -0.114871   0.196149
     53       0.004572  -0.241643   0.002532   0.013899  -0.018721   0.175117
     54       0.005279   0.042277   0.011451   0.041777   0.020522   0.022993
     55      -0.018126  -0.019647  -0.008332   0.020432   0.163423   0.028318
     56      -0.000285   0.040221  -0.025186  -0.024311  -0.062687   0.076854
     57      -0.002356  -0.003359  -0.115347   0.016796   0.021870   0.020425
     58       0.017332  -0.021273  -0.042769   0.083432   0.129110  -0.004732
     59       0.015937   0.051758  -0.074159   0.087353  -0.136357   0.016491
     60      -0.010326   0.013732  -0.060461   0.025949   0.028925   0.015469
     61       0.070667  -0.023861  -0.024333   0.060473   0.150100   0.007794
     62      -0.017583   0.047341  -0.057564   0.037245  -0.107298   0.040819
     63      -0.009391   0.008796  -0.109827   0.014159   0.035438   0.011369
     64       0.012510  -0.014560  -0.057645   0.062832   0.149464  -0.008396
     65      -0.000469   0.090367  -0.030308   0.107280  -0.111613  -0.014729
     66       0.019741  -0.018290  -0.134331  -0.015101  -0.074581   0.049628
     67      -0.032550  -0.015552  -0.054574   0.123377   0.026347  -0.022394
     68      -0.093968   0.036166  -0.086823   0.054598  -0.074480   0.036899
     69      -0.028069   0.068680   0.010978   0.007789  -0.062681   0.007368
     70      -0.024557  -0.011719  -0.008599   0.008776   0.140463   0.024036
     71      -0.062132   0.019311  -0.018065  -0.066324   0.071873   0.089489
     72       0.016517  -0.039109  -0.067216   0.024023   0.017230  -0.021164
     73       0.045146  -0.021191  -0.049300   0.098105   0.056101  -0.010162
     74      -0.084323   0.030192   0.000993  -0.098008   0.038823   0.106864
     75      -0.002150   0.009462  -0.017517   0.006466  -0.033821  -0.071318
     76       0.001808   0.006763  -0.054451  -0.087846  -0.197229  -0.063711
     77      -0.002117  -0.041806  -0.036307  -0.004546   0.140326  -0.016169
     78      -0.000044   0.027418  -0.015023   0.046135   0.151544  -0.023888
     79       0.001498  -0.001687  -0.017398  -0.021231  -0.134197   0.024719
     80      -0.003990  -0.019490  -0.124421  -0.155133   0.021597  -0.215713
     81      -0.001109  -0.009745  -0.017493  -0.005089  -0.009839  -0.050026
     82      -0.001286   0.042142   0.065483  -0.087147  -0.091977  -0.037559
     83       0.000457   0.000807   0.129573  -0.066698   0.062510  -0.125669
     84      -0.003487  -0.039587  -0.069662   0.044235   0.024409   0.049505
     85       0.002391  -0.071994   0.036114  -0.066777  -0.152932   0.040227
     86      -0.001204   0.179631   0.196544  -0.119390   0.133852  -0.284790
     87      -0.002261   0.042645   0.034311  -0.020748   0.025723  -0.186613
     88       0.002624   0.239250   0.126601  -0.141338  -0.012606  -0.182501
     89       0.000164   0.062830   0.148706  -0.083742   0.087406  -0.171007
     90       0.000457  -0.018223  -0.004684  -0.042611  -0.071368  -0.048703
     91      -0.000487   0.009249   0.076451  -0.117540  -0.160297  -0.034401
     92       0.000240  -0.150146   0.123295  -0.038265  -0.001911  -0.115690
     93      -0.000136  -0.016040   0.030379  -0.079353  -0.107880  -0.116826
     94       0.000484   0.099706   0.095864  -0.130957  -0.104349  -0.089895
     95      -0.001312  -0.279313   0.081523  -0.004331  -0.066434  -0.009333
     96       0.000084  -0.011639  -0.000193  -0.034360  -0.049602  -0.071025
     97       0.000675   0.045305   0.103692  -0.162055  -0.191320  -0.075558
     98      -0.001062  -0.085409   0.170726  -0.062418   0.036157  -0.240488
     99       0.001425  -0.034885  -0.035357  -0.041308  -0.102027   0.043083
    100       0.001126  -0.141699   0.037394  -0.081605  -0.235061   0.065011
    101       0.000681  -0.196517   0.112457  -0.027078  -0.023868  -0.088704
    102       0.030647  -0.027713  -0.032371  -0.048848  -0.038439   0.055444
    103       0.020349  -0.020671  -0.135747   0.163908  -0.039597  -0.043842
    104      -0.026049   0.046893  -0.092663   0.046849  -0.057116   0.045211
    105      -0.012226  -0.027389  -0.036265  -0.043839  -0.039801   0.050866
    106       0.003186  -0.003040   0.005912   0.105727   0.017607  -0.023295
    107      -0.000507   0.024663  -0.002407   0.027054  -0.013479   0.037241
    108      -0.020720  -0.020013  -0.076535  -0.041285  -0.056022   0.054918
    109       0.000476   0.004162   0.090158   0.136915  -0.009289   0.027738
    110       0.011507   0.016761   0.031608   0.022448   0.005474   0.028652
    111       0.047839  -0.042833  -0.079134  -0.041964  -0.025684   0.018775
    112       0.000412  -0.001736  -0.009629   0.077893   0.038402  -0.042872
    113      -0.022492   0.025384  -0.030571  -0.016136   0.020072   0.003336
    114       0.003355  -0.022640   0.098133  -0.053666  -0.020645   0.081393
    115      -0.000184   0.001174  -0.003182   0.057808   0.052054  -0.044193
    116      -0.001376   0.020359   0.046805   0.088866  -0.053978   0.073832
    117      -0.000229  -0.011398   0.125162  -0.138209  -0.017337   0.202271
    118      -0.002826  -0.000662   0.009866   0.086908   0.028084  -0.024183
    119      -0.003569   0.018796   0.069262   0.123393  -0.089381   0.116888
    120      -0.006269  -0.026457   0.145428  -0.010347  -0.013452   0.027823
    121       0.000959  -0.003586  -0.076013   0.066792   0.073172  -0.138576
    122       0.005552   0.024728   0.003022   0.043396  -0.063166   0.136261
    123      -0.000348  -0.026743   0.133445  -0.007641  -0.015710   0.022658
    124      -0.001508   0.014611   0.070004  -0.051429   0.095837   0.043469
    125      -0.000615   0.012866   0.123589   0.174364  -0.041153  -0.037835
    126      -0.000574  -0.023187   0.087526  -0.051180  -0.022011   0.079474
    127       0.003154   0.014931   0.079524  -0.071611   0.078354   0.080626
    128       0.001072   0.009249   0.168421   0.220817  -0.032234  -0.100131
    129      -0.000610  -0.036057   0.132584   0.087504  -0.023844  -0.081218
    130       0.001982   0.018869   0.088478  -0.078365   0.119691   0.053819
    131       0.001559   0.018070   0.149930   0.144999  -0.007769  -0.033177
    132       0.001034  -0.023126   0.224848  -0.031486   0.008724   0.025180
[...]
  28:       284.31    0.000000  (  0.000000   0.000000   0.000000)
  29:       343.99    0.000000  (  0.000000   0.000000   0.000000)
  30:       352.68    0.000000  (  0.000000   0.000000   0.000000)
  31:       380.69    0.000000  (  0.000000   0.000000   0.000000)
  32:       390.81    0.000000  (  0.000000   0.000000   0.000000)
  33:       394.88    0.000000  (  0.000000   0.000000   0.000000)
  34:       406.08    0.000000  (  0.000000   0.000000   0.000000)
  35:       418.48    0.000000  (  0.000000   0.000000   0.000000)
  36:       429.76    0.000000  (  0.000000   0.000000   0.000000)
  37:       477.12    0.000000  (  0.000000   0.000000   0.000000)
  38:       521.46    0.000000  (  0.000000   0.000000   0.000000)
  39:       537.75    0.000000  (  0.000000   0.000000   0.000000)
  40:       588.96    0.000000  (  0.000000   0.000000   0.000000)
  41:       607.03    0.000000  (  0.000000   0.000000   0.000000)
  42:       641.31    0.000000  (  0.000000   0.000000   0.000000)
  43:       666.37    0.000000  (  0.000000   0.000000   0.000000)
  44:       681.28    0.000000  (  0.000000   0.000000   0.000000)
  45:       742.12    0.000000  (  0.000000   0.000000   0.000000)
  46:       767.14    0.000000  (  0.000000   0.000000   0.000000)
  47:       772.21    0.000000  (  0.000000   0.000000   0.000000)
  48:       804.91    0.000000  (  0.000000   0.000000   0.000000)
  49:       819.32    0.000000  (  0.000000   0.000000   0.000000)
  50:       828.99    0.000000  (  0.000000   0.000000   0.000000)
  51:       839.87    0.000000  (  0.000000   0.000000   0.000000)
  52:       883.99    0.000000  (  0.000000   0.000000   0.000000)
  53:       899.49    0.000000  (  0.000000   0.000000   0.000000)
  54:       907.40    0.000000  (  0.000000   0.000000   0.000000)
  55:       929.95    0.000000  (  0.000000   0.000000   0.000000)
  56:       933.55    0.000000  (  0.000000   0.000000   0.000000)
  57:       935.91    0.000000  (  0.000000   0.000000   0.000000)
  58:       945.53    0.000000  (  0.000000   0.000000   0.000000)
  59:       952.24    0.000000  (  0.000000   0.000000   0.000000)
  60:       953.19    0.000000  (  0.000000   0.000000   0.000000)
  61:       978.02    0.000000  (  0.000000   0.000000   0.000000)
  62:       996.64    0.000000  (  0.000000   0.000000   0.000000)
  63:      1014.53    0.000000  (  0.000000   0.000000   0.000000)
  64:      1027.15    0.000000  (  0.000000   0.000000   0.000000)
  65:      1042.41    0.000000  (  0.000000   0.000000   0.000000)
  66:      1070.47    0.000000  (  0.000000   0.000000   0.000000)
  67:      1071.99    0.000000  (  0.000000   0.000000   0.000000)
  68:      1089.77    0.000000  (  0.000000   0.000000   0.000000)
  69:      1094.17    0.000000  (  0.000000   0.000000   0.000000)
  70:      1095.14    0.000000  (  0.000000   0.000000   0.000000)
  71:      1110.76    0.000000  (  0.000000   0.000000   0.000000)
  72:      1121.34    0.000000  (  0.000000   0.000000   0.000000)
  73:      1128.02    0.000000  (  0.000000   0.000000   0.000000)
  74:      1138.91    0.000000  (  0.000000   0.000000   0.000000)
  75:      1154.85    0.000000  (  0.000000   0.000000   0.000000)
  76:      1158.95    0.000000  (  0.000000   0.000000   0.000000)
  77:      1177.15    0.000000  (  0.000000   0.000000   0.000000)
  78:      1185.73    0.000000  (  0.000000   0.000000   0.000000)
  79:      1196.21    0.000000  (  0.000000   0.000000   0.000000)
  80:      1197.53    0.000000  (  0.000000   0.000000   0.000000)
  81:      1217.65    0.000000  (  0.000000   0.000000   0.000000)
  82:      1236.72    0.000000  (  0.000000   0.000000   0.000000)
  83:      1246.12    0.000000  (  0.000000   0.000000   0.000000)
  84:      1254.09    0.000000  (  0.000000   0.000000   0.000000)
  85:      1270.02    0.000000  (  0.000000   0.000000   0.000000)
  86:      1274.53    0.000000  (  0.000000   0.000000   0.000000)
  87:      1277.66    0.000000  (  0.000000   0.000000   0.000000)
  88:      1278.65    0.000000  (  0.000000   0.000000   0.000000)
  89:      1281.09    0.000000  (  0.000000   0.000000   0.000000)
  90:      1282.91    0.000000  (  0.000000   0.000000   0.000000)
  91:      1285.64    0.000000  (  0.000000   0.000000   0.000000)
  92:      1293.58    0.000000  (  0.000000   0.000000   0.000000)
  93:      1312.13    0.000000  (  0.000000   0.000000   0.000000)
  94:      1341.77    0.000000  (  0.000000   0.000000   0.000000)
  95:      1352.76    0.000000  (  0.000000   0.000000   0.000000)
  96:      1372.56    0.000000  (  0.000000   0.000000   0.000000)
  97:      1373.47    0.000000  (  0.000000   0.000000   0.000000)
  98:      1413.63    0.000000  (  0.000000   0.000000   0.000000)
  99:      1419.15    0.000000  (  0.000000   0.000000   0.000000)
 100:      1427.77    0.000000  (  0.000000   0.000000   0.000000)
 101:      1429.83    0.000000  (  0.000000   0.000000   0.000000)
 102:      1445.61    0.000000  (  0.000000   0.000000   0.000000)
 103:      1456.78    0.000000  (  0.000000   0.000000   0.000000)
 104:      1467.50    0.000000  (  0.000000   0.000000   0.000000)
 105:      1469.23    0.000000  (  0.000000   0.000000   0.000000)
 106:      1481.18    0.000000  (  0.000000   0.000000   0.000000)
 107:      1494.94    0.000000  (  0.000000   0.000000   0.000000)
 108:      1497.12    0.000000  (  0.000000   0.000000   0.000000)
 109:      1502.96    0.000000  (  0.000000   0.000000   0.000000)
 110:      1504.09    0.000000  (  0.000000   0.000000   0.000000)
 111:      1507.15    0.000000  (  0.000000   0.000000   0.000000)
 112:      1507.61    0.000000  (  0.000000   0.000000   0.000000)
 113:      1511.17    0.000000  (  0.000000   0.000000   0.000000)
 114:      1513.28    0.000000  (  0.000000   0.000000   0.000000)
 115:      1556.00    0.000000  (  0.000000   0.000000   0.000000)
 116:      1565.71    0.000000  (  0.000000   0.000000   0.000000)
 117:      1573.18    0.000000  (  0.000000   0.000000   0.000000)
 118:      2174.64    0.000000  (  0.000000   0.000000   0.000000)
 119:      2652.44    0.000000  (  0.000000   0.000000   0.000000)
 120:      2938.80    0.000000  (  0.000000   0.000000   0.000000)
 121:      2945.13    0.000000  (  0.000000   0.000000   0.000000)
 122:      2945.45    0.000000  (  0.000000   0.000000   0.000000)
 123:      2955.35    0.000000  (  0.000000   0.000000   0.000000)
 124:      2955.89    0.000000  (  0.000000   0.000000   0.000000)
 125:      2964.94    0.000000  (  0.000000   0.000000   0.000000)
 126:      2972.78    0.000000  (  0.000000   0.000000   0.000000)
 127:      2975.04    0.000000  (  0.000000   0.000000   0.000000)
 128:      2975.85    0.000000  (  0.000000   0.000000   0.000000)
 129:      2978.74    0.000000  (  0.000000   0.000000   0.000000)
 130:      2981.34    0.000000  (  0.000000   0.000000   0.000000)
 131:      2983.79    0.000000  (  0.000000   0.000000   0.000000)
 132:      2985.16    0.000000  (  0.000000   0.000000   0.000000)
 133:      2989.78    0.000000  (  0.000000   0.000000   0.000000)
 134:      2998.80    0.000000  (  0.000000   0.000000   0.000000)
 135:      3001.87    0.000000  (  0.000000   0.000000   0.000000)
 136:      3015.11    0.000000  (  0.000000   0.000000   0.000000)
 137:      3024.15    0.000000  (  0.000000   0.000000   0.000000)
 138:      3040.46    0.000000  (  0.000000   0.000000   0.000000)
 139:      3048.09    0.000000  (  0.000000   0.000000   0.000000)
 140:      3052.72    0.000000  (  0.000000   0.000000   0.000000)
 141:      3064.02    0.000000  (  0.000000   0.000000   0.000000)
 142:      3066.21    0.000000  (  0.000000   0.000000   0.000000)
 143:      3091.16    0.000000  (  0.000000   0.000000   0.000000)
 144:      3360.19    0.000000  (  0.000000   0.000000   0.000000)
 145:      3398.11    0.000000  (  0.000000   0.000000   0.000000)
 146:      3607.05    0.000000  (  0.000000   0.000000   0.000000)

The first frequency considered to be a vibration is 8
The total number of vibrations considered is 139


--------------------------
THERMOCHEMISTRY AT 298.15K
--------------------------

Temperature         ... 298.15 K
Pressure            ... 1.00 atm
Total Mass          ... 270.42 AMU

Throughout the following assumptions are being made:
  (1) The electronic state is orbitally nondegenerate
  (2) There are no thermally accessible electronically excited states
  (3) Hindered rotations indicated by low frequency modes are not
      treated as such but are treated as vibrations and this may
      cause some error
  (4) All equations used are the standard statistical mechanics
      equations for an ideal gas
  (5) All vibrations are strictly harmonic

freq.      38.30  E(vib)   ...       0.54 
freq.      48.04  E(vib)   ...       0.53 
freq.      55.32  E(vib)   ...       0.52 
freq.      67.46  E(vib)   ...       0.50 
freq.      71.91  E(vib)   ...       0.50 
freq.      80.62  E(vib)   ...       0.48 
freq.      83.09  E(vib)   ...       0.48 
freq.      94.03  E(vib)   ...       0.47 
freq.     104.49  E(vib)   ...       0.46 
freq.     109.97  E(vib)   ...       0.45 
freq.     126.38  E(vib)   ...       0.43 
freq.     133.34  E(vib)   ...       0.42 
freq.     152.97  E(vib)   ...       0.40 
freq.     177.51  E(vib)   ...       0.37 
freq.     188.97  E(vib)   ...       0.36 
freq.     212.93  E(vib)   ...       0.34 
freq.     223.36  E(vib)   ...       0.33 
freq.     237.27  E(vib)   ...       0.32 
freq.     260.89  E(vib)   ...       0.30 
freq.     274.75  E(vib)   ...       0.28 
freq.     284.31  E(vib)   ...       0.28 
freq.     343.99  E(vib)   ...       0.23 
freq.     352.68  E(vib)   ...       0.22 
freq.     380.69  E(vib)   ...       0.21 
freq.     390.81  E(vib)   ...       0.20 
freq.     394.88  E(vib)   ...       0.20 
freq.     406.08  E(vib)   ...       0.19 
freq.     418.48  E(vib)   ...       0.18 
freq.     429.76  E(vib)   ...       0.18 
freq.     477.12  E(vib)   ...       0.15 
freq.     521.46  E(vib)   ...       0.13 
freq.     537.75  E(vib)   ...       0.12 
freq.     588.96  E(vib)   ...       0.10 
freq.     607.03  E(vib)   ...       0.10 
freq.     641.31  E(vib)   ...       0.09 
freq.     666.37  E(vib)   ...       0.08 
freq.     681.28  E(vib)   ...       0.08 
freq.     742.12  E(vib)   ...       0.06 
freq.     767.14  E(vib)   ...       0.06 
freq.     772.21  E(vib)   ...       0.05 
freq.     804.91  E(vib)   ...       0.05 
freq.     819.32  E(vib)   ...       0.05 
freq.     828.99  E(vib)   ...       0.04 
freq.     839.87  E(vib)   ...       0.04 
freq.     883.99  E(vib)   ...       0.04 
freq.     899.49  E(vib)   ...       0.03 
freq.     907.40  E(vib)   ...       0.03 
freq.     929.95  E(vib)   ...       0.03 
freq.     933.55  E(vib)   ...       0.03 
freq.     935.91  E(vib)   ...       0.03 
freq.     945.53  E(vib)   ...       0.03 
freq.     952.24  E(vib)   ...       0.03 
freq.     953.19  E(vib)   ...       0.03 
freq.     978.02  E(vib)   ...       0.03 
freq.     996.64  E(vib)   ...       0.02 
freq.    1014.53  E(vib)   ...       0.02 
freq.    1027.15  E(vib)   ...       0.02 
freq.    1042.41  E(vib)   ...       0.02 
freq.    1070.47  E(vib)   ...       0.02 
freq.    1071.99  E(vib)   ...       0.02 
freq.    1089.77  E(vib)   ...       0.02 
freq.    1094.17  E(vib)   ...       0.02 
freq.    1095.14  E(vib)   ...       0.02 
freq.    1110.76  E(vib)   ...       0.01 
freq.    1121.34  E(vib)   ...       0.01 
freq.    1128.02  E(vib)   ...       0.01 
freq.    1138.91  E(vib)   ...       0.01 
freq.    1154.85  E(vib)   ...       0.01 
freq.    1158.95  E(vib)   ...       0.01 
freq.    1177.15  E(vib)   ...       0.01 
freq.    1185.73  E(vib)   ...       0.01 
freq.    1196.21  E(vib)   ...       0.01 
freq.    1197.53  E(vib)   ...       0.01 
freq.    1217.65  E(vib)   ...       0.01 
freq.    1236.72  E(vib)   ...       0.01 
freq.    1246.12  E(vib)   ...       0.01 
freq.    1254.09  E(vib)   ...       0.01 
freq.    1270.02  E(vib)   ...       0.01 
freq.    1274.53  E(vib)   ...       0.01 
freq.    1277.66  E(vib)   ...       0.01 
freq.    1278.65  E(vib)   ...       0.01 
freq.    1281.09  E(vib)   ...       0.01 
freq.    1282.91  E(vib)   ...       0.01 
freq.    1285.64  E(vib)   ...       0.01 
freq.    1293.58  E(vib)   ...       0.01 
freq.    1312.13  E(vib)   ...       0.01 
freq.    1341.77  E(vib)   ...       0.01 
freq.    1352.76  E(vib)   ...       0.01 
freq.    1372.56  E(vib)   ...       0.01 
freq.    1373.47  E(vib)   ...       0.01 
freq.    1413.63  E(vib)   ...       0.00 
freq.    1419.15  E(vib)   ...       0.00 
freq.    1427.77  E(vib)   ...       0.00 
freq.    1429.83  E(vib)   ...       0.00 
freq.    1445.61  E(vib)   ...       0.00 
freq.    1456.78  E(vib)   ...       0.00 
freq.    1467.50  E(vib)   ...       0.00 
freq.    1469.23  E(vib)   ...       0.00 
freq.    1481.18  E(vib)   ...       0.00 
freq.    1494.94  E(vib)   ...       0.00 
freq.    1497.12  E(vib)   ...       0.00 
freq.    1502.96  E(vib)   ...       0.00 
freq.    1504.09  E(vib)   ...       0.00 
freq.    1507.15  E(vib)   ...       0.00 
freq.    1507.61  E(vib)   ...       0.00 
freq.    1511.17  E(vib)   ...       0.00 
freq.    1513.28  E(vib)   ...       0.00 
freq.    1556.00  E(vib)   ...       0.00 
freq.    1565.71  E(vib)   ...       0.00 
freq.    1573.18  E(vib)   ...       0.00 
freq.    2174.64  E(vib)   ...       0.00 
freq.    2652.44  E(vib)   ...       0.00 
freq.    2938.80  E(vib)   ...       0.00 
freq.    2945.13  E(vib)   ...       0.00 
freq.    2945.45  E(vib)   ...       0.00 
freq.    2955.35  E(vib)   ...       0.00 
freq.    2955.89  E(vib)   ...       0.00 
freq.    2964.94  E(vib)   ...       0.00 
freq.    2972.78  E(vib)   ...       0.00 
freq.    2975.04  E(vib)   ...       0.00 
freq.    2975.85  E(vib)   ...       0.00 
freq.    2978.74  E(vib)   ...       0.00 
freq.    2981.34  E(vib)   ...       0.00 
freq.    2983.79  E(vib)   ...       0.00 
freq.    2985.16  E(vib)   ...       0.00 
freq.    2989.78  E(vib)   ...       0.00 
freq.    2998.80  E(vib)   ...       0.00 
freq.    3001.87  E(vib)   ...       0.00 
freq.    3015.11  E(vib)   ...       0.00 
freq.    3024.15  E(vib)   ...       0.00 
freq.    3040.46  E(vib)   ...       0.00 
freq.    3048.09  E(vib)   ...       0.00 
freq.    3052.72  E(vib)   ...       0.00 
freq.    3064.02  E(vib)   ...       0.00 
freq.    3066.21  E(vib)   ...       0.00 
freq.    3091.16  E(vib)   ...       0.00 
freq.    3360.19  E(vib)   ...       0.00 
freq.    3398.11  E(vib)   ...       0.00 
freq.    3607.05  E(vib)   ...       0.00 

------------
INNER ENERGY
------------

The inner energy is: U= E(el) + E(ZPE) + E(vib) + E(rot) + E(trans)
    E(el)   - is the total energy from the electronic structure calculation
              = E(kin-el) + E(nuc-el) + E(el-el) + E(nuc-nuc)
    E(ZPE)  - the the zero temperature vibrational energy from the frequency calculation
    E(vib)  - the the finite temperature correction to E(ZPE) due to population
              of excited vibrational states
    E(rot)  - is the rotational thermal energy
    E(trans)- is the translational thermal energy

Summary of contributions to the inner energy U:
Electronic energy                ...    -61.37213976 Eh
Zero point energy                ...      0.42298379 Eh     265.43 kcal/mol
Thermal vibrational correction   ...      0.01968298 Eh      12.35 kcal/mol
Thermal rotational correction    ...      0.00141627 Eh       0.89 kcal/mol
Thermal translational correction ...      0.00141627 Eh       0.89 kcal/mol
-----------------------------------------------------------------------
Total thermal energy                    -60.92664044 Eh


Summary of corrections to the electronic energy:
(perhaps to be used in another calculation)
Total thermal correction                  0.02251552 Eh      14.13 kcal/mol
Non-thermal (ZPE) correction              0.42298379 Eh     265.43 kcal/mol
-----------------------------------------------------------------------
Total correction                          0.44549932 Eh     279.55 kcal/mol


--------
ENTHALPY
--------

The enthalpy is H = U + kB*T
                kB is Boltzmann's constant
Total free energy                 ...    -60.92664044 Eh 
Thermal Enthalpy correction       ...      0.00094421 Eh       0.59 kcal/mol
-----------------------------------------------------------------------
Total Enthalpy                    ...    -60.92569623 Eh


Note: Only C1 symmetry has been detected, increase convergence thresholds 
      if your molecule has a higher symmetry. Symmetry factor of 1.0 is   
      used for the rotational entropy correction. 
 

Note: Rotational entropy computed according to Herzberg 
Infrared and Raman Spectra, Chapter V,1, Van Nostrand Reinhold, 1945 
Point Group:  C1, Symmetry Number:   1  
Rotational constants in cm-1:     0.015043     0.007133     0.005988 

Vibrational entropy computed according to the QRRHO of S. Grimme
Chem.Eur.J. 2012 18 9955


-------
ENTROPY
-------

The entropy contributions are T*S = T*(S(el)+S(vib)+S(rot)+S(trans))
     S(el)   - electronic entropy
     S(vib)  - vibrational entropy
     S(rot)  - rotational entropy
     S(trans)- translational entropy
The entropies will be listed as mutliplied by the temperature to get
units of energy

Electronic entropy                ...      0.00000000 Eh      0.00 kcal/mol
Vibrational entropy               ...      0.03507870 Eh     22.01 kcal/mol
Rotational entropy                ...      0.01624177 Eh     10.19 kcal/mol
Translational entropy             ...      0.02028014 Eh     12.73 kcal/mol
-----------------------------------------------------------------------
Final entropy term                ...      0.07160061 Eh     44.93 kcal/mol

In case the symmetry of your molecule has not been determined correctly
or in case you have a reason to use a different symmetry number we print 
out the resulting rotational entropy values for sn=1,12 :
 --------------------------------------------------------
|  sn= 1 | S(rot)=       0.01624177 Eh     10.19 kcal/mol|
|  sn= 2 | S(rot)=       0.01558731 Eh      9.78 kcal/mol|
|  sn= 3 | S(rot)=       0.01520448 Eh      9.54 kcal/mol|
|  sn= 4 | S(rot)=       0.01493285 Eh      9.37 kcal/mol|
|  sn= 5 | S(rot)=       0.01472217 Eh      9.24 kcal/mol|
|  sn= 6 | S(rot)=       0.01455002 Eh      9.13 kcal/mol|
|  sn= 7 | S(rot)=       0.01440448 Eh      9.04 kcal/mol|
|  sn= 8 | S(rot)=       0.01427840 Eh      8.96 kcal/mol|
|  sn= 9 | S(rot)=       0.01416719 Eh      8.89 kcal/mol|
|  sn=10 | S(rot)=       0.01406771 Eh      8.83 kcal/mol|
|  sn=11 | S(rot)=       0.01397772 Eh      8.77 kcal/mol|
|  sn=12 | S(rot)=       0.01389557 Eh      8.72 kcal/mol|
 --------------------------------------------------------


-------------------
GIBBS FREE ENERGY
-------------------

The Gibbs free energy is G = H - T*S

Total enthalpy                    ...    -60.92569623 Eh 
Total entropy correction          ...     -0.07160061 Eh    -44.93 kcal/mol
-----------------------------------------------------------------------
Final Gibbs free energy         ...    -60.99729684 Eh

For completeness - the Gibbs free energy minus the electronic energy
G-E(el)                           ...      0.37484292 Eh    235.22 kcal/mol


Total Time for Numerical Frequencies  :       104.625 sec
Time for Reference State(s)           :         0.096 sec
Time for Displacements                :        92.500 sec

Timings for individual modules:

Sum of individual times         ...        0.203 sec (=   0.003 min)
XTB module                      ...        0.203 sec (=   0.003 min) 100.0 %
                             ****ORCA TERMINATED NORMALLY****
TOTAL RUN TIME: 0 days 0 hours 1 minutes 45 seconds 157 msec
(SLURM) EXECUTION TIME: 105.178143904 seconds.
