(SLURM) JOB ID:         736

                                 *****************
                                 * O   R   C   A *
                                 *****************

           --- An Ab Initio, DFT and Semiempirical electronic structure package ---

                  #######################################################
                  #                        -***-                        #
                  #          Department of theory and spectroscopy      #
                  #               Directorship: Frank Neese             #
                  #        Max Planck Institute fuer Kohlenforschung    #
                  #                Kaiser Wilhelm Platz 1               #
                  #                 D-45470 Muelheim/Ruhr               #
                  #                      Germany                        #
                  #                                                     #
                  #                  All rights reserved                #
                  #                        -***-                        #
                  #######################################################


                         Program Version 4.2.1 -  RELEASE  -


 With contributions from (in alphabetic order):
   Daniel Aravena         : Magnetic Suceptibility
   Michael Atanasov       : Ab Initio Ligand Field Theory (pilot matlab implementation)
   Alexander A. Auer      : GIAO ZORA, VPT2
   Ute Becker             : Parallelization
   Giovanni Bistoni       : ED, misc. LED, open-shell LED, HFLD
   Martin Brehm           : Molecular dynamics
   Dmytro Bykov           : SCF Hessian
   Vijay G. Chilkuri      : MRCI spin determinant printing, contributions to CSF-ICE
   Dipayan Datta          : RHF DLPNO-CCSD density
   Achintya Kumar Dutta   : EOM-CC, STEOM-CC
   Dmitry Ganyushin       : Spin-Orbit,Spin-Spin,Magnetic field MRCI
   Miquel Garcia          : C-PCM Hessian, Gaussian charge scheme
   Yang Guo               : DLPNO-NEVPT2, CIM, IAO-localization
   Andreas Hansen         : Spin unrestricted coupled pair/coupled cluster methods
   Benjamin Helmich-Paris : CASSCF linear response (MC-RPA)
   Lee Huntington         : MR-EOM, pCC
   Robert Izsak           : Overlap fitted RIJCOSX, COSX-SCS-MP3, EOM
   Christian Kollmar      : KDIIS, OOCD, Brueckner-CCSD(T), CCSD density
   Simone Kossmann        : Meta GGA functionals, TD-DFT gradient, OOMP2, MP2 Hessian
   Martin Krupicka        : AUTO-CI
   Lucas Lang             : DCDCAS
   Dagmar Lenk            : GEPOL surface, SMD
   Dimitrios Liakos       : Extrapolation schemes; Compound Job, initial MDCI parallelization
   Dimitrios Manganas     : Further ROCIS development; embedding schemes
   Dimitrios Pantazis     : SARC Basis sets
   Taras Petrenko         : DFT Hessian,TD-DFT gradient, ASA, ECA, R-Raman, ABS, FL, XAS/XES, NRVS
   Peter Pinski           : DLPNO-MP2, DLPNO-MP2 Gradient
   Christoph Reimann      : Effective Core Potentials
   Marius Retegan         : Local ZFS, SOC
   Christoph Riplinger    : Optimizer, TS searches, QM/MM, DLPNO-CCSD(T), (RO)-DLPNO pert. Triples
   Tobias Risthaus        : Range-separated hybrids, TD-DFT gradient, RPA, STAB
   Michael Roemelt        : Original ROCIS implementation
   Masaaki Saitow         : Open-shell DLPNO-CCSD energy and density
   Barbara Sandhoefer     : DKH picture change effects
   Avijit Sen             : IP-ROCIS
   Kantharuban Sivalingam : CASSCF convergence, NEVPT2, FIC-MRCI
   Bernardo de Souza      : ESD, SOC TD-DFT
   Georgi Stoychev        : AutoAux, RI-MP2 NMR
   Willem Van den Heuvel  : Paramagnetic NMR
   Boris Wezisla          : Elementary symmetry handling
   Frank Wennmohs         : Technical directorship


 We gratefully acknowledge several colleagues who have allowed us to
 interface, adapt or use parts of their codes:
   Stefan Grimme, W. Hujo, H. Kruse,             : VdW corrections, initial TS optimization,
                  C. Bannwarth                     DFT functionals, gCP, sTDA/sTD-DF
   Ed Valeev, F. Pavosevic, A. Kumar             : LibInt (2-el integral package), F12 methods
   Garnet Chan, S. Sharma, J. Yang, R. Olivares  : DMRG
   Ulf Ekstrom                                   : XCFun DFT Library
   Mihaly Kallay                                 : mrcc  (arbitrary order and MRCC methods)
   Andreas Klamt, Michael Diedenhofen            : otool_cosmo (COSMO solvation model)
   Jiri Pittner, Ondrej Demel                    : Mk-CCSD
   Frank Weinhold                                : gennbo (NPA and NBO analysis)
   Christopher J. Cramer and Donald G. Truhlar   : smd solvation model
   Lars Goerigk                                  : TD-DFT with DH, B97 family of functionals
   V. Asgeirsson, H. Jonsson                     : NEB implementation
   FAccTs GmbH                                   : IRC, NEB, NEB-TS, Multilevel, MM, QM/MM, CI optimization
   S Lehtola, MJT Oliveira, MAL Marques          : LibXC Library


 Your calculation uses the libint2 library for the computation of 2-el integrals
 For citations please refer to: http://libint.valeyev.net

 Your ORCA version has been built with support for libXC version: 4.2.3
 For citations please refer to: https://tddft.org/programs/libxc/

 This ORCA versions uses:
   CBLAS   interface :  Fast vector & matrix operations
   LAPACKE interface :  Fast linear algebra routines
   SCALAPACK package :  Parallel linear algebra routines




***************************************
The coordinates will be read from file: init.xyz
***************************************


Your calculation utilizes the SMD solvation module
Please cite in your paper:
A.V. Marenich, C.J. Cramer, D.G. Truhlar J. Phys. Chem. B, 113, (2009), 6378 

Your calculation utilizes the semiempirical GFN2-xTB method
Please cite in your paper:
C. Bannwarth, Ehlert S., S. Grimme,  J. Chem. Theory Comput., 15, (2019), 1652.
   

----- Orbital basis set information -----
Your calculation utilizes the basis: def2-SVP
   F. Weigend and R. Ahlrichs, Phys. Chem. Chem. Phys. 7, 3297 (2005).

================================================================================
                                        WARNINGS
                       Please study these warnings very carefully!
================================================================================

WARNING: Gradients needed for Numerical Frequencies
  ===> : Setting RunTyp to EnGrad

WARNING: The environment variable RSH_COMMAND is not set!
  ===> : All Displacements for the Numerical Hessian calculation
         will be started on localhost

WARNING: Found dipole moment calculation with XTB calculation
  ===> : Switching off dipole moment calculation


INFO   : the flag for use of LIBINT has been found!

================================================================================
                                       INPUT FILE
================================================================================
NAME = /tmp/slurm-scratch/freq.736/freq.inp
|  1> ! XTB2 NumFreq
|  2> %maxcore 1150
|  3> 
|  4> * xyzfile 0 1 init.xyz
|  5> 
|  6> %cpcm
|  7>  smd true
|  8>  smdsolvent "ch2cl2"
|  9> end
| 10> %pal nprocs 9 end
| 11> 
| 12>                          ****END OF INPUT****
================================================================================

                     *******************************
                     * Energy+Gradient Calculation *
                     *******************************

      -----------------------------------------------------------      
     |                   =====================                   |     
     |                           x T B                           |     
     |                   =====================                   |     
     |                         S. Grimme                         |     
     |          Mulliken Center for Theoretical Chemistry        |     
     |                    University of Bonn                     |     
      -----------------------------------------------------------      

   * xtb version 6.3.2 (30e43eb) compiled by 'schneider@apollo14' on 2020-08-08

   xtb is free software: you can redistribute it and/or modify it under
   the terms of the GNU Lesser General Public License as published by
   the Free Software Foundation, either version 3 of the License, or
   (at your option) any later version.
   
   xtb is distributed in the hope that it will be useful,
   but WITHOUT ANY WARRANTY; without even the implied warranty of
   MERCHANTABILITY or FITNESS FOR A PARTICULAR PURPOSE.  See the
   GNU Lesser General Public License for more details.
   
   Cite this work as:
   * S. Grimme, C. Bannwarth, P. Shushkov, J. Chem. Theory Comput., 2017,
     13, 1989-2009. DOI: 10.1021/acs.jctc.7b00118
   * C. Bannwarth, S. Ehlert and S. Grimme., J. Chem. Theory Comput., 2019,
     15, 1652-1671. DOI: 10.1021/acs.jctc.8b01176
   * P. Pracht, E. Caldeweyher, S. Ehlert, S. Grimme, ChemRxiv, 2019, preprint.
     DOI: 10.26434/chemrxiv.8326202.v1
   
   for GFN-FF:
   * S. Spicher and S. Grimme, Angew. Chem. Int. Ed., 2020,
     DOI: 10.1002/anie.202004239
   
   for DFT-D4:
   * E. Caldeweyher, C. Bannwarth and S. Grimme, J. Chem. Phys., 2017,
     147, 034112. DOI: 10.1063/1.4993215
   * E. Caldeweyher, S. Ehlert, A. Hansen, H. Neugebauer, S. Spicher,
     C. Bannwarth and S. Grimme, J. Chem. Phys., 2019, 150, 154122.
     DOI: 10.1063/1.5090222
   
   for sTDA-xTB:
   * S. Grimme and C. Bannwarth, J. Chem. Phys., 2016, 145, 054103.
     DOI: 10.1063/1.4959605
   
   in the mass-spec context:
   * V. Asgeirsson, C. Bauer and S. Grimme, Chem. Sci., 2017, 8, 4879.
     DOI: 10.1039/c7sc00601b
   * J. Koopman and S. Grimme, ACS Omega 2019, 4, 12, 15120-15133.
     DOI: 10.1021/acsomega.9b02011
   
   for metadynamics refer to:
   * S. Grimme, J. Chem. Theory Comput., 2019, 155, 2847-2862
     DOI: 10.1021/acs.jctc.9b00143
   
   with help from (in alphabetical order)
   C. Bannwarth, F. Bohle, G. Brandenburg, E. Caldeweyher, M. Checinski,
   S. Dohm, S. Ehlert, S. Ehrlich, F. März, H. Neugebauer, J. Pisarek,
   P. Pracht, P. Shushkov, and S. Spicher.
   
 * started run on 2021/03/06 at 19:42:40.605     

           -------------------------------------------------
          |                Calculation Setup                |
           -------------------------------------------------

          program call               : /opt/orca/otool_xtb /tmp/slurm-scratch/freq.736/freq_XTB.xyz --grad -c 0 -u 0 -P 9 --namespace /tmp/slurm-scratch/freq.736/freq --gbsa CH2Cl2
          hostname                   : apollo14
          calculation namespace      : /tmp/slurm-scratch/freq.736/freq
          coordinate file            : /tmp/slurm-scratch/freq.736/freq_XTB.xyz
          omp threads                :                     9
          number of atoms            :                    30
          number of electrons        :                    72
          charge                     :                     0
          spin                       :                   0.0
          first test random number   :      0.53917900651730

   ID    Z sym.   atoms
    1    6 C      1-6, 11, 16, 19, 22, 27
    2    1 H      7-9, 12-15, 17, 20, 21, 23-26, 28-30
    3    7 N      10
    4    8 O      18

molecular fragmentation (1/2 indicates fragments):
111111111111122112111111111111
# atoms in fragment 1/2:    27     3
 fragment masses (1/2) :      161.24       18.02
CMA distance (Bohr)    :   6.246
constraining FC (au)   :  0.0500
########################################################################
[WARNING] Please study the warnings concerning your input carefully
-1- prog_main_parseArguments: Process number higher than OMP_NUM_THREADS, I hope you know what you are doing.
########################################################################

           -------------------------------------------------
          |                 G F N 2 - x T B                 |
           -------------------------------------------------

        Reference                      10.1021/acs.jctc.8b01176
      * Hamiltonian:
        H0-scaling (s, p, d)           1.850000    2.230000    2.230000
        zeta-weighting                 0.500000
      * Dispersion:
        s8                             2.700000
        a1                             0.520000
        a2                             5.000000
        s9                             5.000000
      * Repulsion:
        kExp                           1.500000    1.000000
        rExp                           1.000000
      * Coulomb:
        alpha                          2.000000
        third order                    shell-resolved
        anisotropic                    true
        a3                             3.000000
        a5                             4.000000
        cn-shift                       1.200000
        cn-exp                         4.000000
        max-rad                        5.000000

      * Solvation model:               GBSA
        Solvent                        CH2Cl2
        Parameter file                 internal GFN2-xTB/GBSA
        Dielectric constant                8.9300E+00
        Reference state                gsolv [1 M gas/solution]
        Free energy shift                  4.4408E-03 Eh       2.7867E+00 kcal/mol
        Temperature                        2.9815E+02 K
        Density                            1.3300E+00 kg/L
        Solvent mass                       8.4930E+01 g/mol
        Interaction kernel             Still
        Born radius scaling (c1)           1.4917E+00
        Born radii integrator          GBOBC
        Born offset                        0.0000E+00 a0       0.0000E+00 AA
        H-bond correction              false
        Ion screening                  false
        Surface tension                    1.0000E-05 Eh       1.5569E+01 dyn/cm
        Grid points                               230 per atom

          ...................................................
          :                      SETUP                      :
          :.................................................:
          :  # basis functions                  69          :
          :  # atomic orbitals                  69          :
          :  # shells                           43          :
          :  # electrons                        72          :
          :  max. iterations                   250          :
          :  Hamiltonian                  GFN2-xTB          :
          :  restarted?                      false          :
          :  GBSA solvation                   true          :
          :  PC potential                    false          :
          :  electronic temp.          300.0000000     K    :
          :  accuracy                    1.0000000          :
          :  -> integral cutoff          0.2500000E+02      :
          :  -> integral neglect         0.1000000E-07      :
          :  -> SCF convergence          0.1000000E-05 Eh   :
          :  -> wf. convergence          0.1000000E-03 e    :
          :  Broyden damping             0.4000000          :
          ...................................................

 iter      E             dE          RMSdq      gap      omega  full diag
   1    -39.7115306 -0.397115E+02  0.409E+00    3.27       0.0  T
   2    -39.7475059 -0.359753E-01  0.248E+00    3.26       1.0  T
   3    -39.7410006  0.650530E-02  0.847E-01    2.86       1.0  T
   4    -39.7501915 -0.919083E-02  0.371E-01    3.04       1.0  T
   5    -39.7523633 -0.217182E-02  0.703E-02    2.98       1.0  T
   6    -39.7523776 -0.143497E-04  0.367E-02    2.99       1.0  T
   7    -39.7523864 -0.881352E-05  0.166E-02    2.99       1.1  T
   8    -39.7523882 -0.175276E-05  0.417E-03    2.99       4.4  T
   9    -39.7523884 -0.166951E-06  0.179E-03    2.99      10.2  T
  10    -39.7523884 -0.756993E-08  0.105E-03    2.99      17.5  T
  11    -39.7523884 -0.832745E-08  0.274E-04    2.99      66.6  T
  12    -39.7523884 -0.168164E-09  0.147E-04    2.99     124.2  T

   *** convergence criteria satisfied after 12 iterations ***

         #    Occupation            Energy/Eh            Energy/eV
      -------------------------------------------------------------
         1        2.0000           -0.6623229             -18.0227
       ...           ...                  ...                  ...
        30        2.0000           -0.4321561             -11.7596
        31        2.0000           -0.4317662             -11.7490
        32        2.0000           -0.4250908             -11.5673
        33        2.0000           -0.4239111             -11.5352
        34        2.0000           -0.4112088             -11.1896
        35        2.0000           -0.4030035             -10.9663
        36        2.0000           -0.3903902             -10.6231 (HOMO)
        37                         -0.2805773              -7.6349 (LUMO)
        38                         -0.2340720              -6.3694
        39                         -0.1981646              -5.3923
        40                         -0.0982454              -2.6734
        41                          0.0115740               0.3149
       ...                                ...                  ...
        69                          0.6210889              16.9007
      -------------------------------------------------------------
                  HL-Gap            0.1098129 Eh            2.9882 eV
             Fermi-level           -0.3354837 Eh           -9.1290 eV

 SCC (total)                   0 d,  0 h,  0 min,  0.120 sec
 SCC setup                      ...        0 min,  0.008 sec (  6.481%)
 Dispersion                     ...        0 min,  0.008 sec (  7.081%)
 classical contributions        ...        0 min,  0.009 sec (  7.888%)
 integral evaluation            ...        0 min,  0.011 sec (  9.175%)
 iterations                     ...        0 min,  0.036 sec ( 30.434%)
 molecular gradient             ...        0 min,  0.046 sec ( 38.771%)
 printout                       ...        0 min,  0.000 sec (  0.150%)

         :::::::::::::::::::::::::::::::::::::::::::::::::::::
         ::                     SUMMARY                     ::
         :::::::::::::::::::::::::::::::::::::::::::::::::::::
         :: total energy             -39.193020610842 Eh    ::
         :: total w/o Gsasa/hb       -39.176223696492 Eh    ::
         :: gradient norm              0.047131464562 Eh/a0 ::
         :: HOMO-LUMO gap              2.988161691483 eV    ::
         ::.................................................::
         :: SCC energy               -39.752388382209 Eh    ::
         :: -> isotropic ES            0.049334033041 Eh    ::
         :: -> anisotropic ES          0.001235270365 Eh    ::
         :: -> anisotropic XC          0.028643191296 Eh    ::
         :: -> dispersion             -0.022459503995 Eh    ::
         :: -> Gsolv                  -0.021719260215 Eh    ::
         ::    -> Gborn               -0.004922345865 Eh    ::
         ::    -> Gsasa               -0.021237743523 Eh    ::
         ::    -> Ghb                  0.000000000000 Eh    ::
         ::    -> Gshift               0.004440829173 Eh    ::
         :: repulsion energy           0.559433461476 Eh    ::
         :: add. restraining           0.000000000000 Eh    ::
         :: total charge              -0.000000000000 e     ::
         :::::::::::::::::::::::::::::::::::::::::::::::::::::

           -------------------------------------------------
          |                Property Printout                |
           -------------------------------------------------

    * Orbital Energies and Occupations

         #    Occupation            Energy/Eh            Energy/eV
      -------------------------------------------------------------
         1        2.0000           -0.6623229             -18.0227
       ...           ...                  ...                  ...
        24        2.0000           -0.4770097             -12.9801
        25        2.0000           -0.4732293             -12.8772
        26        2.0000           -0.4622243             -12.5778
        27        2.0000           -0.4471404             -12.1673
        28        2.0000           -0.4413643             -12.0101
        29        2.0000           -0.4381670             -11.9231
        30        2.0000           -0.4321561             -11.7596
        31        2.0000           -0.4317662             -11.7490
        32        2.0000           -0.4250908             -11.5673
        33        2.0000           -0.4239111             -11.5352
        34        2.0000           -0.4112088             -11.1896
        35        2.0000           -0.4030035             -10.9663
        36        2.0000           -0.3903902             -10.6231 (HOMO)
        37                         -0.2805773              -7.6349 (LUMO)
        38                         -0.2340720              -6.3694
        39                         -0.1981646              -5.3923
        40                         -0.0982454              -2.6734
        41                          0.0115740               0.3149
        42                          0.0673962               1.8339
        43                          0.0833936               2.2693
        44                          0.0864456               2.3523
        45                          0.1079109               2.9364
        46                          0.1112128               3.0263
        47                          0.1213909               3.3032
       ...                                ...                  ...
        69                          0.6210889              16.9007
      -------------------------------------------------------------
                  HL-Gap            0.1098129 Eh            2.9882 eV
             Fermi-level           -0.3354837 Eh           -9.1290 eV

     #   Z          covCN         q      C6AA      α(0)
     1   6 C        2.907    -0.028    28.693     8.783
     2   6 C        2.915    -0.029    28.716     8.787
     3   6 C        2.962     0.004    27.923     8.667
     4   6 C        2.910    -0.028    28.689     8.783
     5   6 C        2.908    -0.026    28.662     8.779
     6   6 C        2.909    -0.023    28.582     8.766
     7   1 H        0.925     0.038     2.473     2.459
     8   1 H        0.925     0.061     2.188     2.313
     9   1 H        0.925     0.044     2.395     2.420
    10   7 N        1.822    -0.264    27.708     7.800
    11   6 C        3.755     0.019    20.310     6.426
    12   1 H        0.923     0.013     2.847     2.639
    13   1 H        0.923     0.045     2.390     2.418
    14   1 H        0.799     0.309     0.697     1.312
    15   1 H        0.804     0.275     0.800     1.405
    16   6 C        2.847     0.078    26.259     8.398
    17   1 H        0.923     0.008     2.916     2.671
    18   8 O        1.603    -0.625    25.810     6.856
    19   6 C        3.797    -0.058    21.618     6.620
    20   1 H        0.923     0.033     2.546     2.495
    21   1 H        0.923     0.049     2.338     2.391
    22   6 C        3.795    -0.052    21.507     6.604
    23   1 H        0.923     0.033     2.547     2.496
    24   1 H        0.923     0.031     2.580     2.512
    25   1 H        0.925     0.042     2.420     2.433
    26   1 H        0.925     0.045     2.388     2.416
    27   6 C        3.745    -0.100    22.490     6.765
    28   1 H        0.923     0.037     2.490     2.467
    29   1 H        0.923     0.036     2.501     2.473
    30   1 H        0.923     0.034     2.524     2.485

 Mol. C6AA /au·bohr⁶  :       8343.360432
 Mol. C8AA /au·bohr⁸  :     189131.531193
 Mol. α(0) /au        :        141.840072


Wiberg/Mayer (AO) data.
largest (>0.10) Wiberg bond orders for each atom

 ---------------------------------------------------------------------------
     #   Z sym  total        # sym  WBO       # sym  WBO       # sym  WBO
 ---------------------------------------------------------------------------
     1   6 C    3.990 --     2 C    1.453     6 C    1.435    25 H    0.970
                             4 C    0.105
     2   6 C    3.986 --     1 C    1.453     3 C    1.374     7 H    0.968
                             5 C    0.104
     3   6 C    3.987 --     2 C    1.374     4 C    1.363    16 C    1.092
     4   6 C    3.988 --     5 C    1.466     3 C    1.363     8 H    0.962
                             1 C    0.105
     5   6 C    3.990 --     4 C    1.466     6 C    1.422    26 H    0.970
                             2 C    0.104
     6   6 C    3.986 --     1 C    1.435     5 C    1.422     9 H    0.971
     7   1 H    0.999 --     2 C    0.968
     8   1 H    0.996 --     4 C    0.962
     9   1 H    0.998 --     6 C    0.971
    10   7 N    3.112 --    16 C    1.824    11 C    1.018
    11   6 C    3.982 --    10 N    1.018    19 C    0.986    12 H    0.967
                            13 H    0.960
    12   1 H    1.000 --    11 C    0.967
    13   1 H    0.995 --    11 C    0.960
    14   1 H    0.905 --    18 O    0.844
    15   1 H    0.924 --    18 O    0.923
    16   6 C    3.966 --    10 N    1.824     3 C    1.092    17 H    0.941
    17   1 H    0.999 --    16 C    0.941
    18   8 O    1.804 --    15 H    0.923    14 H    0.844
    19   6 C    3.989 --    22 C    1.005    11 C    0.986    20 H    0.978
                            21 H    0.976
    20   1 H    0.999 --    19 C    0.978
    21   1 H    0.998 --    19 C    0.976
    22   6 C    3.995 --    27 C    1.018    19 C    1.005    24 H    0.978
                            23 H    0.978
    23   1 H    0.999 --    22 C    0.978
    24   1 H    0.999 --    22 C    0.978
    25   1 H    0.998 --     1 C    0.970
    26   1 H    0.998 --     5 C    0.970
    27   6 C    3.995 --    22 C    1.018    30 H    0.988    29 H    0.988
                            28 H    0.987
    28   1 H    0.998 --    27 C    0.987
    29   1 H    0.999 --    27 C    0.988
    30   1 H    0.999 --    27 C    0.988
 ---------------------------------------------------------------------------

Topologies differ in total number of bonds
Writing topology from bond orders to xtbtopo.mol

molecular dipole:
                 x           y           z       tot (Debye)
 q only:        0.667       0.836      -0.098
   full:        0.716       1.400      -0.215       4.034
molecular quadrupole (traceless):
                xx          xy          yy          xz          yz          zz
 q only:        6.072      -6.750      -7.152      -0.775       0.744       1.080
  q+dip:        6.428     -10.796      -4.882       1.119       2.202      -1.546
   full:        5.190     -10.849      -7.316       0.149       1.629       2.126


           -------------------------------------------------
          | TOTAL ENERGY              -39.193020610842 Eh   |
          | GRADIENT NORM               0.047131464562 Eh/α |
          | HOMO-LUMO GAP               2.988161691483 eV   |
           -------------------------------------------------

------------------------------------------------------------------------
 * finished run on 2021/03/06 at 19:42:40.798     
------------------------------------------------------------------------
 total:
 * wall-time:     0 d,  0 h,  0 min,  0.193 sec
 *  cpu-time:     0 d,  0 h,  0 min,  2.224 sec
 * ratio c/w:    11.530 speedup
 SCF:
 * wall-time:     0 d,  0 h,  0 min,  0.129 sec
 *  cpu-time:     0 d,  0 h,  0 min,  1.493 sec
 * ratio c/w:    11.587 speedup


-------------------------   --------------------
FINAL SINGLE POINT ENERGY       -39.193020610840
-------------------------   --------------------


----------------------------------------------------------------------------
                           ORCA NUMERICAL FREQUENCIES
                              (9-process run)
----------------------------------------------------------------------------

Number of atoms                ... 30
Central differences            ... used
Number of displacements        ... 180
Numerical increment            ... 5.000e-03 bohr
IR-spectrum generation         ... on
Raman-spectrum generation      ... off
Surface Crossing Hessian       ... off
List of participating nodes    ...  /tmp/slurm-scratch/freq.736/freq.hostnames

The output will be reduced. Please look at the following files:
SCF program output             ... >/tmp/slurm-scratch/freq.736/freq.lastscf
Integral program output        ... >/tmp/slurm-scratch/freq.736/freq.lastint
Gradient program output        ... >/tmp/slurm-scratch/freq.736/freq.lastgrad
Dipole moment program output   ... >/tmp/slurm-scratch/freq.736/freq.lastmom
AutoCI program output          ... >/tmp/slurm-scratch/freq.736/freq.lastautoci


         <<< Energy and Gradient at the input geometry >>>

        <<< Energy and Gradient at displaced geometries >>>
             <<<Displacing   3/coordinate 2 (+)>>>
             <<<Displacing   1/coordinate 1 (+)>>>
             <<<Displacing   2/coordinate 3 (+)>>>
             <<<Displacing   1/coordinate 1 (-)>>>
             <<<Displacing   3/coordinate 2 (-)>>>
             <<<Displacing   2/coordinate 1 (+)>>>
             <<<Displacing   2/coordinate 3 (-)>>>
             <<<Displacing   1/coordinate 2 (+)>>>
             <<<Displacing   2/coordinate 2 (+)>>>
             <<<Displacing   2/coordinate 1 (-)>>>
             <<<Displacing   1/coordinate 2 (-)>>>
             <<<Displacing   2/coordinate 2 (-)>>>
             <<<Displacing   3/coordinate 1 (+)>>>
             <<<Displacing   3/coordinate 3 (+)>>>
             <<<Displacing   1/coordinate 3 (+)>>>
             <<<Displacing   3/coordinate 3 (-)>>>
             <<<Displacing   1/coordinate 3 (-)>>>
             <<<Displacing   3/coordinate 1 (-)>>>
             <<<Displacing   4/coordinate 2 (+)>>>
             <<<Displacing   4/coordinate 3 (+)>>>
             <<<Displacing   4/coordinate 2 (-)>>>
             <<<Displacing   4/coordinate 3 (-)>>>
             <<<Displacing   5/coordinate 3 (+)>>>
             <<<Displacing   5/coordinate 3 (-)>>>
             <<<Displacing   4/coordinate 1 (+)>>>
             <<<Displacing   4/coordinate 1 (-)>>>
             <<<Displacing   5/coordinate 2 (+)>>>
             <<<Displacing   5/coordinate 1 (+)>>>
             <<<Displacing   5/coordinate 2 (-)>>>
             <<<Displacing   5/coordinate 1 (-)>>>
             <<<Displacing   6/coordinate 1 (+)>>>
             <<<Displacing   6/coordinate 3 (+)>>>
             <<<Displacing   6/coordinate 1 (-)>>>
             <<<Displacing   6/coordinate 2 (+)>>>
             <<<Displacing   6/coordinate 3 (-)>>>
             <<<Displacing   6/coordinate 2 (-)>>>
             <<<Displacing   7/coordinate 1 (+)>>>
             <<<Displacing   7/coordinate 1 (-)>>>
             <<<Displacing   7/coordinate 2 (+)>>>
             <<<Displacing   7/coordinate 3 (+)>>>
             <<<Displacing   7/coordinate 2 (-)>>>
             <<<Displacing   7/coordinate 3 (-)>>>
             <<<Displacing   8/coordinate 1 (+)>>>
             <<<Displacing   8/coordinate 2 (+)>>>
             <<<Displacing   8/coordinate 3 (+)>>>
             <<<Displacing   8/coordinate 1 (-)>>>
             <<<Displacing   8/coordinate 2 (-)>>>
             <<<Displacing   8/coordinate 3 (-)>>>
             <<<Displacing   9/coordinate 1 (+)>>>
             <<<Displacing   9/coordinate 1 (-)>>>
             <<<Displacing   9/coordinate 2 (+)>>>
             <<<Displacing   9/coordinate 3 (+)>>>
             <<<Displacing   9/coordinate 2 (-)>>>
             <<<Displacing   9/coordinate 3 (-)>>>
             <<<Displacing  10/coordinate 2 (+)>>>
             <<<Displacing  10/coordinate 1 (+)>>>
             <<<Displacing  10/coordinate 2 (-)>>>
             <<<Displacing  10/coordinate 1 (-)>>>
             <<<Displacing  10/coordinate 3 (+)>>>
             <<<Displacing  12/coordinate 1 (+)>>>
             <<<Displacing  12/coordinate 1 (-)>>>
             <<<Displacing  10/coordinate 3 (-)>>>
             <<<Displacing  11/coordinate 1 (+)>>>
             <<<Displacing  11/coordinate 1 (-)>>>
             <<<Displacing  11/coordinate 2 (+)>>>
             <<<Displacing  12/coordinate 3 (+)>>>
             <<<Displacing  11/coordinate 3 (+)>>>
             <<<Displacing  11/coordinate 2 (-)>>>
             <<<Displacing  12/coordinate 3 (-)>>>
             <<<Displacing  11/coordinate 3 (-)>>>
             <<<Displacing  12/coordinate 2 (+)>>>
             <<<Displacing  12/coordinate 2 (-)>>>
             <<<Displacing  13/coordinate 1 (+)>>>
             <<<Displacing  13/coordinate 2 (+)>>>
             <<<Displacing  13/coordinate 2 (-)>>>
             <<<Displacing  13/coordinate 1 (-)>>>
             <<<Displacing  14/coordinate 1 (+)>>>
             <<<Displacing  14/coordinate 1 (-)>>>
             <<<Displacing  15/coordinate 1 (+)>>>
             <<<Displacing  13/coordinate 3 (+)>>>
             <<<Displacing  13/coordinate 3 (-)>>>
             <<<Displacing  14/coordinate 2 (+)>>>
             <<<Displacing  15/coordinate 1 (-)>>>
             <<<Displacing  14/coordinate 2 (-)>>>
             <<<Displacing  15/coordinate 2 (+)>>>
             <<<Displacing  14/coordinate 3 (+)>>>
             <<<Displacing  15/coordinate 2 (-)>>>
             <<<Displacing  14/coordinate 3 (-)>>>
             <<<Displacing  15/coordinate 3 (+)>>>
             <<<Displacing  15/coordinate 3 (-)>>>
             <<<Displacing  16/coordinate 2 (+)>>>
             <<<Displacing  16/coordinate 2 (-)>>>
             <<<Displacing  16/coordinate 1 (+)>>>
             <<<Displacing  16/coordinate 1 (-)>>>
             <<<Displacing  17/coordinate 2 (+)>>>
             <<<Displacing  16/coordinate 3 (+)>>>
             <<<Displacing  16/coordinate 3 (-)>>>
             <<<Displacing  17/coordinate 2 (-)>>>
             <<<Displacing  18/coordinate 3 (+)>>>
             <<<Displacing  17/coordinate 3 (+)>>>
             <<<Displacing  17/coordinate 1 (+)>>>
             <<<Displacing  17/coordinate 3 (-)>>>
             <<<Displacing  18/coordinate 3 (-)>>>
             <<<Displacing  17/coordinate 1 (-)>>>
             <<<Displacing  18/coordinate 2 (+)>>>
             <<<Displacing  18/coordinate 2 (-)>>>
             <<<Displacing  18/coordinate 1 (+)>>>
             <<<Displacing  18/coordinate 1 (-)>>>
             <<<Displacing  19/coordinate 1 (+)>>>
             <<<Displacing  20/coordinate 1 (+)>>>
             <<<Displacing  19/coordinate 2 (+)>>>
             <<<Displacing  19/coordinate 1 (-)>>>
             <<<Displacing  20/coordinate 1 (-)>>>
             <<<Displacing  19/coordinate 2 (-)>>>
             <<<Displacing  19/coordinate 3 (+)>>>
             <<<Displacing  19/coordinate 3 (-)>>>
             <<<Displacing  20/coordinate 3 (+)>>>
             <<<Displacing  20/coordinate 3 (-)>>>
             <<<Displacing  21/coordinate 1 (+)>>>
             <<<Displacing  20/coordinate 2 (+)>>>
             <<<Displacing  20/coordinate 2 (-)>>>
             <<<Displacing  21/coordinate 1 (-)>>>
             <<<Displacing  21/coordinate 2 (+)>>>
             <<<Displacing  21/coordinate 2 (-)>>>
             <<<Displacing  21/coordinate 3 (+)>>>
             <<<Displacing  21/coordinate 3 (-)>>>
             <<<Displacing  22/coordinate 2 (+)>>>
             <<<Displacing  22/coordinate 1 (+)>>>
             <<<Displacing  22/coordinate 3 (+)>>>
             <<<Displacing  22/coordinate 1 (-)>>>
             <<<Displacing  22/coordinate 2 (-)>>>
             <<<Displacing  23/coordinate 1 (+)>>>
             <<<Displacing  22/coordinate 3 (-)>>>
             <<<Displacing  23/coordinate 1 (-)>>>
             <<<Displacing  23/coordinate 2 (+)>>>
             <<<Displacing  23/coordinate 2 (-)>>>
             <<<Displacing  23/coordinate 3 (+)>>>
             <<<Displacing  24/coordinate 1 (+)>>>
             <<<Displacing  23/coordinate 3 (-)>>>
             <<<Displacing  24/coordinate 1 (-)>>>
             <<<Displacing  24/coordinate 2 (+)>>>
             <<<Displacing  24/coordinate 2 (-)>>>
             <<<Displacing  24/coordinate 3 (+)>>>
             <<<Displacing  24/coordinate 3 (-)>>>
             <<<Displacing  25/coordinate 2 (+)>>>
             <<<Displacing  25/coordinate 3 (+)>>>
             <<<Displacing  25/coordinate 2 (-)>>>
             <<<Displacing  25/coordinate 3 (-)>>>
             <<<Displacing  26/coordinate 1 (+)>>>
             <<<Displacing  25/coordinate 1 (+)>>>
             <<<Displacing  26/coordinate 1 (-)>>>
             <<<Displacing  25/coordinate 1 (-)>>>
             <<<Displacing  26/coordinate 2 (+)>>>
             <<<Displacing  26/coordinate 3 (+)>>>
             <<<Displacing  26/coordinate 2 (-)>>>
             <<<Displacing  26/coordinate 3 (-)>>>
             <<<Displacing  27/coordinate 1 (+)>>>
             <<<Displacing  27/coordinate 1 (-)>>>
             <<<Displacing  27/coordinate 2 (+)>>>
             <<<Displacing  27/coordinate 2 (-)>>>
             <<<Displacing  27/coordinate 3 (+)>>>
             <<<Displacing  27/coordinate 3 (-)>>>
             <<<Displacing  28/coordinate 1 (+)>>>
             <<<Displacing  28/coordinate 1 (-)>>>
             <<<Displacing  28/coordinate 2 (+)>>>
             <<<Displacing  28/coordinate 2 (-)>>>
             <<<Displacing  29/coordinate 1 (+)>>>
             <<<Displacing  28/coordinate 3 (+)>>>
             <<<Displacing  29/coordinate 1 (-)>>>
             <<<Displacing  28/coordinate 3 (-)>>>
             <<<Displacing  29/coordinate 3 (+)>>>
             <<<Displacing  29/coordinate 3 (-)>>>
             <<<Displacing  29/coordinate 2 (+)>>>
             <<<Displacing  29/coordinate 2 (-)>>>
             <<<Displacing  30/coordinate 1 (+)>>>
             <<<Displacing  30/coordinate 1 (-)>>>
             <<<Displacing  30/coordinate 2 (+)>>>
             <<<Displacing  30/coordinate 2 (-)>>>
             <<<Displacing  30/coordinate 3 (+)>>>
             <<<Displacing  30/coordinate 3 (-)>>>

-----------------------
VIBRATIONAL FREQUENCIES
-----------------------

Scaling factor for frequencies =  1.000000000 (already applied!)

   0:         0.00 cm**-1
   1:         0.00 cm**-1
   2:         0.00 cm**-1
   3:         0.00 cm**-1
   4:         0.00 cm**-1
   5:         0.00 cm**-1
   6:        60.60 cm**-1
   7:        79.18 cm**-1
   8:        94.83 cm**-1
   9:       106.78 cm**-1
  10:       143.11 cm**-1
  11:       151.82 cm**-1
  12:       166.68 cm**-1
  13:       180.13 cm**-1
  14:       192.71 cm**-1
  15:       249.99 cm**-1
  16:       288.66 cm**-1
  17:       300.24 cm**-1
  18:       354.49 cm**-1
  19:       398.98 cm**-1
  20:       405.80 cm**-1
  21:       428.05 cm**-1
  22:       434.74 cm**-1
  23:       474.46 cm**-1
  24:       520.51 cm**-1
  25:       568.10 cm**-1
  26:       589.25 cm**-1
  27:       625.63 cm**-1
  28:       679.90 cm**-1
  29:       747.03 cm**-1
  30:       784.91 cm**-1
  31:       800.05 cm**-1
  32:       836.77 cm**-1
  33:       865.31 cm**-1
  34:       899.60 cm**-1
  35:       923.57 cm**-1
  36:       935.10 cm**-1
  37:       944.61 cm**-1
  38:       952.30 cm**-1
  39:       957.81 cm**-1
  40:       964.58 cm**-1
  41:       973.66 cm**-1
  42:      1004.40 cm**-1
  43:      1039.96 cm**-1
  44:      1055.35 cm**-1
  45:      1075.64 cm**-1
  46:      1110.38 cm**-1
  47:      1119.02 cm**-1
  48:      1146.08 cm**-1
  49:      1182.74 cm**-1
  50:      1186.47 cm**-1
  51:      1206.26 cm**-1
  52:      1215.33 cm**-1
  53:      1244.90 cm**-1
  54:      1259.35 cm**-1
  55:      1272.55 cm**-1
  56:      1280.36 cm**-1
  57:      1282.90 cm**-1
  58:      1329.98 cm**-1
  59:      1358.65 cm**-1
  60:      1369.95 cm**-1
  61:      1407.73 cm**-1
  62:      1432.91 cm**-1
  63:      1437.74 cm**-1
  64:      1473.35 cm**-1
  65:      1504.42 cm**-1
  66:      1508.45 cm**-1
  67:      1511.40 cm**-1
  68:      1516.07 cm**-1
  69:      1522.84 cm**-1
  70:      1531.85 cm**-1
  71:      1580.52 cm**-1
  72:      1599.75 cm**-1
  73:      2800.43 cm**-1
  74:      2820.67 cm**-1
  75:      2871.96 cm**-1
  76:      2878.28 cm**-1
  77:      2890.26 cm**-1
  78:      2896.67 cm**-1
  79:      2912.30 cm**-1
  80:      2913.51 cm**-1
  81:      2919.85 cm**-1
  82:      2930.69 cm**-1
  83:      2931.31 cm**-1
  84:      2980.99 cm**-1
  85:      2987.88 cm**-1
  86:      2993.87 cm**-1
  87:      3002.84 cm**-1
  88:      3020.92 cm**-1
  89:      3426.08 cm**-1


------------
NORMAL MODES
------------

These modes are the cartesian displacements weighted by the diagonal matrix
M(i,i)=1/sqrt(m[i]) where m[i] is the mass of the displaced atom
Thus, these vectors are normalized but *not* orthogonal

                  0          1          2          3          4          5    
      0       0.000000   0.000000   0.000000   0.000000   0.000000   0.000000
      1       0.000000   0.000000   0.000000   0.000000   0.000000   0.000000
      2       0.000000   0.000000   0.000000   0.000000   0.000000   0.000000
      3       0.000000   0.000000   0.000000   0.000000   0.000000   0.000000
      4       0.000000   0.000000   0.000000   0.000000   0.000000   0.000000
      5       0.000000   0.000000   0.000000   0.000000   0.000000   0.000000
      6       0.000000   0.000000   0.000000   0.000000   0.000000   0.000000
      7       0.000000   0.000000   0.000000   0.000000   0.000000   0.000000
      8       0.000000   0.000000   0.000000   0.000000   0.000000   0.000000
      9       0.000000   0.000000   0.000000   0.000000   0.000000   0.000000
     10       0.000000   0.000000   0.000000   0.000000   0.000000   0.000000
     11       0.000000   0.000000   0.000000   0.000000   0.000000   0.000000
     12       0.000000   0.000000   0.000000   0.000000   0.000000   0.000000
     13       0.000000   0.000000   0.000000   0.000000   0.000000   0.000000
     14       0.000000   0.000000   0.000000   0.000000   0.000000   0.000000
     15       0.000000   0.000000   0.000000   0.000000   0.000000   0.000000
     16       0.000000   0.000000   0.000000   0.000000   0.000000   0.000000
     17       0.000000   0.000000   0.000000   0.000000   0.000000   0.000000
     18       0.000000   0.000000   0.000000   0.000000   0.000000   0.000000
     19       0.000000   0.000000   0.000000   0.000000   0.000000   0.000000
     20       0.000000   0.000000   0.000000   0.000000   0.000000   0.000000
     21       0.000000   0.000000   0.000000   0.000000   0.000000   0.000000
     22       0.000000   0.000000   0.000000   0.000000   0.000000   0.000000
     23       0.000000   0.000000   0.000000   0.000000   0.000000   0.000000
     24       0.000000   0.000000   0.000000   0.000000   0.000000   0.000000
     25       0.000000   0.000000   0.000000   0.000000   0.000000   0.000000
     26       0.000000   0.000000   0.000000   0.000000   0.000000   0.000000
     27       0.000000   0.000000   0.000000   0.000000   0.000000   0.000000
     28       0.000000   0.000000   0.000000   0.000000   0.000000   0.000000
     29       0.000000   0.000000   0.000000   0.000000   0.000000   0.000000
     30       0.000000   0.000000   0.000000   0.000000   0.000000   0.000000
     31       0.000000   0.000000   0.000000   0.000000   0.000000   0.000000
     32       0.000000   0.000000   0.000000   0.000000   0.000000   0.000000
     33       0.000000   0.000000   0.000000   0.000000   0.000000   0.000000
     34       0.000000   0.000000   0.000000   0.000000   0.000000   0.000000
     35       0.000000   0.000000   0.000000   0.000000   0.000000   0.000000
     36       0.000000   0.000000   0.000000   0.000000   0.000000   0.000000
     37       0.000000   0.000000   0.000000   0.000000   0.000000   0.000000
     38       0.000000   0.000000   0.000000   0.000000   0.000000   0.000000
     39       0.000000   0.000000   0.000000   0.000000   0.000000   0.000000
     40       0.000000   0.000000   0.000000   0.000000   0.000000   0.000000
     41       0.000000   0.000000   0.000000   0.000000   0.000000   0.000000
     42       0.000000   0.000000   0.000000   0.000000   0.000000   0.000000
     43       0.000000   0.000000   0.000000   0.000000   0.000000   0.000000
     44       0.000000   0.000000   0.000000   0.000000   0.000000   0.000000
     45       0.000000   0.000000   0.000000   0.000000   0.000000   0.000000
     46       0.000000   0.000000   0.000000   0.000000   0.000000   0.000000
     47       0.000000   0.000000   0.000000   0.000000   0.000000   0.000000
     48       0.000000   0.000000   0.000000   0.000000   0.000000   0.000000
     49       0.000000   0.000000   0.000000   0.000000   0.000000   0.000000
     50       0.000000   0.000000   0.000000   0.000000   0.000000   0.000000
     51       0.000000   0.000000   0.000000   0.000000   0.000000   0.000000
     52       0.000000   0.000000   0.000000   0.000000   0.000000   0.000000
     53       0.000000   0.000000   0.000000   0.000000   0.000000   0.000000
     54       0.000000   0.000000   0.000000   0.000000   0.000000   0.000000
     55       0.000000   0.000000   0.000000   0.000000   0.000000   0.000000
     56       0.000000   0.000000   0.000000   0.000000   0.000000   0.000000
     57       0.000000   0.000000   0.000000   0.000000   0.000000   0.000000
     58       0.000000   0.000000   0.000000   0.000000   0.000000   0.000000
     59       0.000000   0.000000   0.000000   0.000000   0.000000   0.000000
     60       0.000000   0.000000   0.000000   0.000000   0.000000   0.000000
     61       0.000000   0.000000   0.000000   0.000000   0.000000   0.000000
     62       0.000000   0.000000   0.000000   0.000000   0.000000   0.000000
     63       0.000000   0.000000   0.000000   0.000000   0.000000   0.000000
     64       0.000000   0.000000   0.000000   0.000000   0.000000   0.000000
     65       0.000000   0.000000   0.000000   0.000000   0.000000   0.000000
     66       0.000000   0.000000   0.000000   0.000000   0.000000   0.000000
     67       0.000000   0.000000   0.000000   0.000000   0.000000   0.000000
     68       0.000000   0.000000   0.000000   0.000000   0.000000   0.000000
     69       0.000000   0.000000   0.000000   0.000000   0.000000   0.000000
     70       0.000000   0.000000   0.000000   0.000000   0.000000   0.000000
     71       0.000000   0.000000   0.000000   0.000000   0.000000   0.000000
     72       0.000000   0.000000   0.000000   0.000000   0.000000   0.000000
     73       0.000000   0.000000   0.000000   0.000000   0.000000   0.000000
     74       0.000000   0.000000   0.000000   0.000000   0.000000   0.000000
     75       0.000000   0.000000   0.000000   0.000000   0.000000   0.000000
     76       0.000000   0.000000   0.000000   0.000000   0.000000   0.000000
     77       0.000000   0.000000   0.000000   0.000000   0.000000   0.000000
     78       0.000000   0.000000   0.000000   0.000000   0.000000   0.000000
     79       0.000000   0.000000   0.000000   0.000000   0.000000   0.000000
     80       0.000000   0.000000   0.000000   0.000000   0.000000   0.000000
     81       0.000000   0.000000   0.000000   0.000000   0.000000   0.000000
     82       0.000000   0.000000   0.000000   0.000000   0.000000   0.000000
     83       0.000000   0.000000   0.000000   0.000000   0.000000   0.000000
     84       0.000000   0.000000   0.000000   0.000000   0.000000   0.000000
     85       0.000000   0.000000   0.000000   0.000000   0.000000   0.000000
     86       0.000000   0.000000   0.000000   0.000000   0.000000   0.000000
     87       0.000000   0.000000   0.000000   0.000000   0.000000   0.000000
     88       0.000000   0.000000   0.000000   0.000000   0.000000   0.000000
     89       0.000000   0.000000   0.000000   0.000000   0.000000   0.000000
                  6          7          8          9         10         11    
      0      -0.072164  -0.030593   0.015894  -0.052855  -0.005980  -0.019992
      1       0.018594   0.048132   0.101407   0.008417   0.003184   0.019076
      2       0.012798   0.113094  -0.033350   0.200307  -0.034217   0.102441
      3      -0.074917  -0.025587  -0.002005  -0.056750  -0.014110  -0.014010
      4      -0.012436   0.035235   0.028928  -0.012153  -0.011524  -0.044139
      5      -0.015294   0.026195   0.035564   0.207561   0.036811  -0.091608
      6      -0.050626  -0.003187   0.048173  -0.022096  -0.008141   0.038619
      7      -0.035268   0.024517  -0.017920  -0.015144  -0.020901  -0.079001
      8       0.002810  -0.033683   0.058866  -0.005035   0.072512  -0.194004
      9      -0.024722   0.005613   0.118608   0.018255   0.004405   0.104530
     10      -0.025299   0.028540   0.011218   0.002602  -0.016753  -0.055852
     11       0.057339   0.006709  -0.002667  -0.218939   0.053896  -0.160548
     12      -0.022130  -0.000492   0.136434   0.021984   0.012706   0.101748
     13       0.006209   0.041520   0.083351   0.022705  -0.001231   0.006962
     14       0.084298   0.100328  -0.070165  -0.230250  -0.014599   0.029436
     15      -0.045704  -0.019301   0.084775  -0.012223   0.007855   0.039089
     16       0.027933   0.051855   0.127872   0.026547   0.008713   0.040754
     17       0.061171   0.149584  -0.083328  -0.026913  -0.064415   0.180022
     18      -0.094992  -0.037851  -0.054100  -0.085288  -0.023969  -0.055196
     19      -0.019577   0.030826   0.008679  -0.025159  -0.015649  -0.059266
     20      -0.051238   0.001676   0.071928   0.367362   0.053547  -0.131064
     21      -0.005302   0.010353   0.150720   0.047898   0.010152   0.160716
     22      -0.042796   0.028682  -0.016819  -0.004295  -0.025142  -0.091515
     23       0.077504  -0.041710  -0.002195  -0.361884   0.084661  -0.257726
     24      -0.043332  -0.022938   0.097559  -0.008521   0.014455   0.032679
     25       0.051408   0.061387   0.180026   0.042529   0.020077   0.082408
     26       0.080426   0.212474  -0.131496  -0.039563  -0.120770   0.338634
     27      -0.036642   0.029810   0.044282  -0.014007   0.013794  -0.024569
     28      -0.083056  -0.027271  -0.118475  -0.030105  -0.038298  -0.076666
     29      -0.043438  -0.150132   0.149462  -0.069552  -0.004615   0.024029
     30      -0.039186   0.020553   0.044884  -0.013191   0.000875  -0.023527
     31      -0.088098  -0.060730  -0.109500  -0.025723  -0.100765  -0.049433
     32      -0.046923  -0.137802   0.099954  -0.071947  -0.056973   0.088967
     33      -0.033447  -0.005511   0.063722  -0.006582  -0.047720   0.007938
     34      -0.086698  -0.061924  -0.107275  -0.025235  -0.104551  -0.047826
     35      -0.138924  -0.193278   0.063249  -0.097645   0.012897   0.067641
     36      -0.068546  -0.016531   0.082502  -0.023061   0.070703  -0.066435
     37      -0.169251  -0.124710  -0.125027  -0.047671  -0.056943  -0.053846
     38      -0.002414  -0.096251   0.088449  -0.058710  -0.103870   0.108538
     39       0.202495  -0.208703  -0.097422   0.038754  -0.000908  -0.011655
     40      -0.082332  -0.081926  -0.183367  -0.086800   0.250792   0.227273
     41      -0.247045  -0.076744  -0.060789   0.130804   0.061063   0.065557
     42       0.306733  -0.317531  -0.171617   0.059427  -0.026864  -0.032945
     43      -0.029775  -0.114483  -0.145693  -0.121264   0.256726   0.269765
     44      -0.266253  -0.075582  -0.121298   0.174166   0.035590  -0.000688
     45      -0.053941   0.000156   0.028173  -0.023925  -0.010761   0.032090
     46      -0.067264  -0.003886  -0.090834  -0.031154  -0.032036  -0.088004
     47      -0.028893  -0.114534   0.112584  -0.012909   0.078608  -0.197546
     48      -0.074935  -0.029825  -0.005156  -0.037232  -0.032731   0.065319
     49      -0.071424  -0.010556  -0.096420  -0.038151  -0.042276  -0.069905
     50      -0.035731  -0.121612   0.093965   0.035677   0.128767  -0.326496
     51       0.290500  -0.326196  -0.196210   0.087784  -0.015612  -0.011236
     52      -0.077200  -0.075263  -0.159355  -0.100631   0.243125   0.225404
     53      -0.270268  -0.083243  -0.132237   0.186949   0.041573   0.013260
     54      -0.009802   0.108581  -0.053713  -0.002078  -0.030387  -0.033908
     55       0.027801  -0.019043  -0.039993   0.013038  -0.208858  -0.001804
     56       0.032773  -0.054228   0.063993  -0.044794  -0.134491   0.111969
     57       0.057878   0.189352  -0.091998   0.041163   0.003716  -0.054537
     58       0.061925   0.004290  -0.044607   0.001852  -0.348662   0.037724
     59      -0.010224  -0.098765   0.082570  -0.059618  -0.095953   0.105132
     60      -0.067464   0.098892  -0.123622  -0.044895  -0.102404  -0.034542
     61       0.021990  -0.020200  -0.046447   0.008877  -0.213713  -0.001877
     62       0.091998  -0.031689   0.093664  -0.040412  -0.264197   0.155933
     63       0.007184   0.106960  -0.023587   0.010917   0.001149  -0.036058
     64       0.106627  -0.010446   0.063637   0.072161  -0.073637  -0.001365
     65       0.085864   0.061175  -0.050521   0.002447  -0.061446   0.049891
     66      -0.053326   0.029420   0.016413  -0.030379  -0.113494   0.010471
     67       0.092917  -0.022728   0.062619   0.095513  -0.139687  -0.000665
     68       0.117007   0.099142  -0.067304   0.011358   0.013478   0.029353
     69       0.065790   0.113234   0.053807   0.050964   0.112501  -0.031906
     70       0.111245  -0.009991   0.070007   0.075528  -0.064494  -0.001019
     71       0.047974   0.051677  -0.092149   0.014745  -0.178759   0.042607
     72      -0.089923  -0.043284  -0.023494  -0.079126  -0.009871  -0.071886
     73       0.034796   0.053885   0.135075   0.011140   0.010138   0.049768
     74      -0.001763   0.150513  -0.047792   0.354574  -0.066497   0.195900
     75      -0.002706   0.010975   0.190147   0.050426   0.022793   0.145352
     76       0.013225   0.045610   0.103934   0.034834   0.002757   0.023067
     77       0.121408   0.129324  -0.111157  -0.388356  -0.031509   0.066797
     78       0.025943   0.200407  -0.150037   0.026096   0.043865  -0.116014
     79       0.195973   0.011012   0.162752   0.090630   0.159936   0.008502
     80       0.143499   0.137616  -0.091741   0.022239   0.083955  -0.000009
     81       0.032708   0.192111  -0.126372   0.029135   0.057314  -0.105603
     82       0.226080   0.001593   0.222794   0.108137   0.218177   0.027424
     83       0.161961   0.206294  -0.177718   0.043717   0.115660  -0.062821
     84      -0.010838   0.208106  -0.216647   0.007665  -0.031349  -0.135752
     85       0.194842   0.011588   0.160172   0.089749   0.158284   0.007645
     86       0.193323   0.156500  -0.048564   0.022823   0.234304   0.000471
     87       0.067978   0.266180  -0.195846   0.052424   0.136197  -0.166947
     88       0.228662   0.034086   0.174010   0.085664   0.269108  -0.000382
     89       0.114825   0.103477  -0.078365   0.013965   0.006790   0.022895
                 12         13         14         15         16         17    
      0      -0.057613  -0.006364  -0.008261   0.084731  -0.120294   0.034199
      1       0.031469   0.020242   0.026869  -0.025570   0.030759  -0.006737
      2      -0.053037  -0.026415  -0.004252   0.024206  -0.007492  -0.054678
      3      -0.077369  -0.009435  -0.021710   0.085157  -0.107420   0.042109
      4      -0.051822  -0.006461  -0.061091   0.019281  -0.000106   0.021995
      5       0.048502  -0.038337  -0.001587   0.025292  -0.074234  -0.138084
      6      -0.026023   0.004328   0.020344   0.036723  -0.038069   0.010449
      7      -0.101337  -0.022338  -0.101977   0.053716  -0.046450   0.030175
      8       0.098764  -0.013241   0.006116   0.012969  -0.027424  -0.017779
      9       0.040884   0.026159   0.101343   0.025193  -0.061960   0.015520
     10      -0.076079  -0.014412  -0.073071   0.046992  -0.049239   0.034130
     11       0.091549   0.021151   0.015073   0.013310  -0.075713  -0.158720
     12       0.064250   0.030293   0.120572   0.021761  -0.067854  -0.002070
     13       0.007701   0.011644   0.011408   0.000069  -0.009281   0.001462
     14      -0.004117   0.037802   0.022636  -0.014729  -0.030750  -0.011997
     15       0.014493   0.014082   0.067812   0.061645  -0.123582   0.000276
     16       0.059385   0.027573   0.056244  -0.034093   0.028808  -0.022692
     17      -0.091545   0.015585   0.011650  -0.012615   0.055871   0.166389
     18      -0.132980  -0.023820  -0.070409   0.126803  -0.158943   0.068509
     19      -0.073386  -0.011506  -0.079130   0.035643  -0.020818   0.033239
     20       0.065705  -0.065150  -0.008161   0.038445  -0.111776  -0.210263
     21       0.081811   0.040887   0.155340   0.008480  -0.059255   0.013265
     22      -0.115887  -0.028647  -0.119318   0.060495  -0.044798   0.045149
     23       0.139202   0.036790   0.017386   0.009929  -0.109646  -0.239645
     24       0.031497   0.015870   0.076744   0.058604  -0.126476  -0.022168
     25       0.117509   0.044989   0.111632  -0.062734   0.049612  -0.047036
     26      -0.178135   0.028899   0.014313  -0.037168   0.140793   0.384253
     27      -0.026361  -0.016342  -0.074671   0.012809   0.012023   0.018823
     28      -0.079988   0.000773   0.045517  -0.017557  -0.076472  -0.007775
     29      -0.064877  -0.027421  -0.044663   0.164252   0.296914  -0.051749
     30      -0.010153  -0.008088  -0.039888  -0.024564   0.104837  -0.009894
     31      -0.040086   0.041817   0.209817  -0.102661   0.049355  -0.058120
     32      -0.110270   0.006488   0.007676  -0.112231   0.093021  -0.045598
     33       0.027218   0.019895   0.069925  -0.084781   0.190187  -0.034278
     34      -0.037709   0.042427   0.213683  -0.104936   0.056314  -0.059820
     35      -0.295929   0.163335   0.186638  -0.348086   0.135004  -0.120578
     36      -0.055453   0.001943  -0.059540   0.143292   0.196137   0.019532
     37      -0.199006   0.190645   0.403108  -0.317717   0.136297  -0.136477
     38      -0.027689  -0.054540  -0.056694  -0.104865   0.016779  -0.027231
     39      -0.015598  -0.000625  -0.020342   0.016994   0.001576   0.002424
     40       0.143174  -0.025279  -0.052727  -0.014992  -0.011568   0.011952
     41       0.031603   0.017598  -0.037922   0.053660   0.080916  -0.028373
     42      -0.032450   0.006519  -0.004100   0.014680   0.002855  -0.025226
     43       0.140924  -0.037847  -0.067467   0.048145   0.081570  -0.026366
     44       0.021752   0.034536  -0.013506  -0.014325  -0.018225   0.001664
     45      -0.024243   0.001616   0.015396   0.016398   0.010196  -0.032021
     46      -0.115091  -0.022494  -0.062470   0.037683  -0.039224  -0.018596
     47       0.074930  -0.004884   0.022819  -0.064909   0.034404   0.270762
     48      -0.024929   0.013378   0.094465   0.026352   0.018132  -0.093886
     49      -0.120619  -0.021956  -0.048169   0.063776  -0.019009  -0.066268
     50       0.138509   0.032386   0.109199  -0.365615  -0.220670   0.685612
     51      -0.023687   0.006987  -0.002452  -0.005191   0.006305   0.001291
     52       0.134343  -0.029022  -0.056633   0.003641   0.009706   0.001632
     53       0.026047   0.034085  -0.013370  -0.020448  -0.010392   0.012724
     54       0.043728  -0.042595  -0.084577  -0.151060   0.004315  -0.035868
     55       0.181571  -0.103828   0.075658   0.066038   0.030140   0.031928
     56       0.035489  -0.091153  -0.088801  -0.103860  -0.054620  -0.016490
     57       0.075015   0.060664  -0.150005  -0.123976  -0.063310  -0.032182
     58       0.358407  -0.377549   0.043064   0.104763  -0.042388   0.088894
     59      -0.045553  -0.033062  -0.046090  -0.128409   0.003981  -0.038570
     60       0.070867  -0.205364   0.014885  -0.197533  -0.027625  -0.048077
     61       0.181458  -0.116865   0.084570   0.059581   0.026928   0.029358
     62       0.223220  -0.335849  -0.157062  -0.020920  -0.107369   0.058028
     63       0.027647   0.011077  -0.129798  -0.168618   0.054152  -0.043128
     64       0.102373   0.146790  -0.085015   0.061278   0.067974   0.021698
     65       0.028712   0.089956  -0.059276   0.013362  -0.136812  -0.006677
     66       0.080247  -0.089918  -0.168963  -0.259839   0.035495  -0.057489
     67       0.174158   0.449144  -0.265186   0.105137   0.054501   0.017785
     68      -0.021349   0.018735   0.026702   0.036904  -0.121932   0.001526
     69      -0.049962   0.166450  -0.241828  -0.209977   0.038268  -0.063336
     70       0.095639   0.161499  -0.095402   0.056944   0.065159   0.019428
     71       0.145733   0.376775  -0.207081   0.102574  -0.124783   0.003531
     72      -0.097800  -0.020774  -0.060094   0.102663  -0.125269   0.047783
     73       0.070167   0.034183   0.070134  -0.041292   0.032534  -0.014218
     74      -0.105273  -0.045282  -0.014830   0.036720   0.005929  -0.082358
     75       0.121200   0.045444   0.173961  -0.016037  -0.020222  -0.023993
     76       0.029288   0.017068   0.031213  -0.014101   0.009208  -0.006907
     77      -0.018412   0.066424   0.033644  -0.038898  -0.038301   0.002669
     78       0.046889  -0.010148   0.043336   0.019979   0.252428   0.011064
     79      -0.107814  -0.044792   0.001068  -0.077195  -0.008379  -0.013260
     80      -0.062876  -0.019181   0.112001   0.092252  -0.061700   0.017487
     81       0.030130   0.001307   0.013636  -0.008994   0.210704   0.002364
     82      -0.161507   0.014543  -0.081711  -0.130820  -0.106943  -0.029850
     83      -0.038385   0.038193   0.197266   0.265951   0.117779   0.068957
     84       0.116340  -0.052310   0.117580   0.084278   0.359708   0.030354
     85      -0.106358  -0.049313   0.006095  -0.075307  -0.004199  -0.012716
     86      -0.205129  -0.222656   0.238340   0.001702  -0.098108  -0.006020
     87       0.010817   0.006493   0.127583   0.135862   0.372047   0.045961
     88      -0.209536  -0.237674   0.142473  -0.129010  -0.001510  -0.025929
     89      -0.010260   0.047782   0.025770   0.067265  -0.109978   0.008954
                 18         19         20         21         22         23    
      0       0.002897  -0.051594   0.003546   0.045615   0.007606  -0.081012
      1      -0.002720   0.001765   0.009217  -0.046738  -0.004973   0.049837
      2       0.001090   0.016757  -0.199201   0.010029   0.014563   0.070182
      3       0.003267  -0.048320  -0.032782   0.027016   0.007174  -0.061914
      4       0.001761  -0.090148  -0.031994  -0.065659  -0.007680  -0.042489
      5       0.001718  -0.098436   0.199870   0.008870  -0.011542  -0.000163
      6       0.001118  -0.033065  -0.007444  -0.054433  -0.006859   0.059070
      7       0.003239  -0.104372  -0.024467  -0.003939  -0.000045  -0.090629
      8       0.001038   0.055499   0.002741  -0.025458   0.000850  -0.150502
      9      -0.001629   0.028387   0.022993   0.052256   0.003056  -0.024681
     10       0.002561  -0.094856  -0.014377   0.024377   0.001177  -0.135976
     11      -0.002453   0.008652  -0.200124   0.009503   0.021464   0.014686
     12      -0.002612   0.063304  -0.007148   0.071076   0.009212  -0.016320
     13      -0.001760  -0.000038  -0.010721   0.026721   0.006367  -0.035644
     14      -0.003251  -0.086167   0.200419   0.019048  -0.005932   0.059347
     15      -0.000320   0.009577   0.000729   0.120079   0.016686  -0.087802
     16      -0.004071   0.030720   0.007133  -0.014069  -0.000791   0.054176
     17      -0.000585   0.066287  -0.002604  -0.006021   0.000607  -0.102258
     18       0.005763  -0.085206  -0.066147   0.077708   0.015866  -0.177587
     19       0.002677  -0.102089  -0.047776  -0.043919  -0.003575  -0.089450
     20       0.003111  -0.210597   0.441409   0.031860  -0.029577   0.073910
     21      -0.004220   0.091212   0.063649   0.108518   0.014346  -0.029558
     22       0.004863  -0.147649  -0.019024  -0.026827  -0.009771  -0.141855
     23      -0.003912   0.021318  -0.446822   0.028374   0.021747   0.135389
     24      -0.000772   0.009837   0.004032   0.120743   0.016853  -0.073688
     25      -0.006636   0.072975   0.019322  -0.007222  -0.001706   0.089788
     26      -0.000329   0.146176  -0.017044  -0.022299  -0.005376  -0.175081
     27       0.002514  -0.040334  -0.007105  -0.140074  -0.016476   0.183050
     28      -0.006058   0.190268   0.046219   0.101315   0.014374   0.157126
     29       0.000661   0.158603   0.051235  -0.014136  -0.008488  -0.088405
     30       0.002245  -0.051219  -0.009889  -0.182241  -0.025101   0.082340
     31      -0.003632   0.014503  -0.000477  -0.073398  -0.012021  -0.117316
     32      -0.002959  -0.137575  -0.026511   0.079714   0.011970   0.066482
     33       0.006147  -0.260400  -0.063337  -0.346605  -0.048095  -0.079314
     34      -0.003509   0.003799  -0.003047  -0.080438  -0.013063  -0.122997
     35       0.005538  -0.346151  -0.081591   0.018706   0.006393  -0.041811
     36       0.006268   0.110131   0.033613  -0.213520  -0.033354   0.140994
     37       0.005890  -0.256106  -0.068616  -0.196748  -0.024326  -0.258462
     38      -0.008370  -0.104640  -0.019951   0.139392   0.019948   0.090198
     39      -0.000730   0.029892   0.011167  -0.052467   0.104219   0.096193
     40       0.003147  -0.048168  -0.018738  -0.002141  -0.026243   0.017857
     41      -0.002179   0.038094   0.035248  -0.043118   0.073302  -0.123566
     42      -0.000462   0.015523  -0.138574   0.368533  -0.861392  -0.002283
     43       0.003759  -0.003113   0.038849  -0.072536   0.133200  -0.166661
     44      -0.003070  -0.006467  -0.079634   0.188296  -0.446321   0.018615
     45      -0.000027   0.004394   0.005709  -0.105908  -0.013131   0.133056
     46      -0.003020   0.140978   0.039812   0.068160   0.010984   0.160129
     47       0.002015   0.052374  -0.011103  -0.008681  -0.003522   0.037315
     48      -0.004611   0.161142   0.045029  -0.050041  -0.007045   0.188328
     49      -0.004211   0.194720   0.053834   0.078903   0.012158   0.143543
     50       0.002925  -0.170286  -0.074780   0.043056   0.004296   0.361644
     51      -0.001902  -0.004658   0.010601  -0.021792   0.048798  -0.007303
     52       0.003220  -0.025879  -0.008632  -0.006323  -0.013972  -0.001809
     53      -0.003762  -0.014101  -0.000369  -0.013024   0.022856   0.002335
     54      -0.006080   0.097096   0.018079  -0.054032  -0.010616  -0.089056
     55      -0.010246  -0.027367  -0.007312  -0.078070  -0.011202  -0.018225
     56      -0.011763  -0.050111  -0.010537   0.115884   0.016341   0.041861
     57       0.020446   0.201216   0.038405  -0.093990  -0.018658  -0.170053
     58      -0.063268  -0.006225  -0.003379  -0.050011  -0.005851   0.006809
     59      -0.003662  -0.103940  -0.021018   0.120172   0.017344   0.068427
     60      -0.046051   0.164392   0.030039  -0.115704  -0.020693  -0.184206
     61      -0.013894  -0.020083  -0.005952  -0.081152  -0.011804  -0.027209
     62      -0.055150  -0.071444  -0.013382   0.155657   0.026814   0.126871
     63       0.002749   0.088847   0.018311   0.041395   0.002720  -0.099190
     64       0.033243  -0.058687  -0.010295   0.062071   0.010115   0.051643
     65       0.021949   0.076336   0.012795  -0.101997  -0.018101  -0.038392
     66      -0.001500   0.084348   0.016641   0.081913   0.007813  -0.117790
     67       0.065347  -0.018065  -0.000265   0.068772   0.011076   0.056764
     68       0.011202   0.060301   0.009194  -0.119835  -0.020390  -0.029751
     69       0.008879   0.125019   0.027295   0.099573   0.011230  -0.100936
     70       0.033181  -0.052948  -0.009016   0.064893   0.010449   0.049145
     71       0.057180   0.085668   0.016310  -0.103917  -0.018469  -0.013279
     72       0.005372  -0.110452   0.011876  -0.003216   0.000135  -0.104089
     73      -0.004841   0.047229   0.029970  -0.006912  -0.000070   0.050999
     74       0.002095   0.033659  -0.427620   0.020184   0.026006   0.195758
     75      -0.005297   0.129169  -0.013883   0.030560   0.004595   0.081595
     76      -0.002735   0.024935  -0.015216   0.009914   0.004598   0.000508
     77      -0.005452  -0.186417   0.415597   0.032890  -0.022303   0.189153
     78      -0.000461  -0.076554  -0.012233   0.173457   0.023693   0.012690
     79      -0.008668   0.015236   0.003134   0.021878   0.003810  -0.014084
     80      -0.000289   0.004578  -0.001214  -0.091612  -0.015395   0.018225
     81      -0.107162  -0.041733  -0.006225   0.132409   0.017016  -0.018664
     82      -0.493696   0.091593   0.015466  -0.086755  -0.014112  -0.095957
     83      -0.313119  -0.169538  -0.034242   0.049583   0.006673   0.133146
     84       0.474089  -0.161424  -0.026112   0.290544   0.042833   0.100485
     85       0.016903   0.012249   0.002674   0.026160   0.004515  -0.010562
     86       0.302158   0.052129   0.008483  -0.118091  -0.017976  -0.006751
     87      -0.374573  -0.195884  -0.035455   0.257348   0.036679   0.082124
     88       0.410423   0.026446   0.006451   0.035885   0.007279  -0.005694
     89      -0.016023   0.045935   0.006399  -0.128319  -0.021606  -0.011463
                 24         25         26         27         28         29    
      0       0.000068   0.000590  -0.298306   0.090225   0.018524   0.010348
      1      -0.032122  -0.005860  -0.189976   0.182569   0.009595   0.011778
      2       0.149044  -0.001400  -0.035764   0.023230  -0.196423   0.001820
      3       0.010897  -0.001178  -0.206084   0.106861  -0.014762   0.008509
      4       0.001821  -0.001898   0.259436   0.206835  -0.007722   0.004727
      5      -0.034043   0.006360  -0.006983   0.014884   0.175767  -0.003916
      6      -0.002538  -0.007307   0.034134   0.249076   0.024939   0.003315
      7       0.037911   0.003750   0.122392  -0.011841   0.013037  -0.000869
      8      -0.291918   0.003381   0.009268   0.017949  -0.272863   0.008958
      9       0.011125   0.001996   0.275080   0.001794  -0.015790   0.000262
     10       0.045003   0.008113   0.160346  -0.117422  -0.005749  -0.001933
     11      -0.017242  -0.004504   0.036562  -0.011319   0.174145  -0.010947
     12      -0.003859   0.002344   0.217689  -0.037036   0.017555  -0.007771
     13       0.009928   0.003766  -0.296644  -0.154737   0.009299  -0.004717
     14       0.143016  -0.004229   0.005615  -0.004332  -0.194598   0.001146
     15       0.057381   0.008139  -0.040141  -0.237371  -0.013275  -0.017560
     16      -0.007352  -0.002878  -0.139449   0.030798  -0.007109   0.001548
     17      -0.184736   0.004576  -0.009296  -0.027532   0.162309  -0.005538
     18       0.030899   0.005767  -0.070013  -0.042094  -0.044354  -0.002503
     19       0.007412   0.000796   0.297205   0.147321  -0.023303   0.000348
     20       0.168397   0.012318   0.003876   0.009710   0.505188   0.006832
     21      -0.000709   0.000768   0.131816  -0.188316  -0.048890   0.029592
     22       0.027984   0.007520   0.263151   0.040588  -0.016385  -0.026030
     23       0.202894   0.003995   0.019512  -0.015679   0.500756   0.031199
     24       0.064919   0.007558   0.023998  -0.234013  -0.040632  -0.021200
     25      -0.006177  -0.002449   0.246188  -0.014425  -0.021254  -0.013047
     26      -0.285114   0.009495   0.011996  -0.028442   0.459699   0.014572
     27      -0.079602  -0.010820   0.014396  -0.134851  -0.011786  -0.008715
     28      -0.038333  -0.010409   0.042440   0.061437   0.000621  -0.002055
     29       0.120611   0.026406  -0.004389   0.031282   0.023882  -0.012427
     30      -0.026502  -0.000751  -0.001605  -0.209554  -0.005062  -0.010758
     31       0.046388   0.004358  -0.003091   0.036023   0.002951   0.008764
     32      -0.069752  -0.000049   0.004061  -0.044034  -0.004336   0.002779
     33      -0.004704   0.009871  -0.043295  -0.362664  -0.015571  -0.000862
     34       0.046388   0.005668  -0.005006   0.021545   0.002206   0.008575
     35      -0.122584  -0.002775  -0.022123  -0.183005  -0.037253  -0.018104
     36       0.063809   0.005156   0.014909  -0.165751   0.033328  -0.017030
     37       0.003444   0.005495  -0.042999  -0.172953  -0.029996  -0.021082
     38      -0.091571  -0.002923   0.011816   0.019309  -0.009296   0.019191
     39      -0.007824   0.293531   0.076732  -0.157302   0.037648   0.881892
     40      -0.011210   0.169540  -0.015690   0.032639  -0.011809  -0.110127
     41       0.041630  -0.584312   0.042501  -0.124877   0.038297   0.431195
     42      -0.027596  -0.149618  -0.023994  -0.021606  -0.008517   0.074837
     43       0.049954  -0.716961   0.008182  -0.054937   0.027282  -0.036737
     44      -0.019622   0.011046  -0.013345  -0.008323  -0.006374   0.041240
     45      -0.067370  -0.010156   0.014055   0.139834  -0.003240  -0.005807
     46      -0.054972  -0.006999   0.029534  -0.180003  -0.008545  -0.008383
     47       0.125447  -0.004143  -0.000958   0.017484   0.013672  -0.000161
     48      -0.096133  -0.011837   0.013597   0.276715  -0.007526   0.001510
     49      -0.075813  -0.004224   0.030419  -0.128634  -0.019787  -0.006457
     50       0.314732  -0.034480   0.005108  -0.024486   0.147278  -0.003270
     51       0.001515  -0.002500  -0.003682   0.010486  -0.002163  -0.039521
     52      -0.002184   0.044915  -0.002143  -0.005302  -0.002200   0.006554
     53      -0.000648   0.018203  -0.002265   0.003564  -0.000781  -0.020206
     54       0.058631   0.003341  -0.005075  -0.016297   0.004601  -0.000117
     55       0.025722   0.001755  -0.005312  -0.042422   0.006110   0.004404
     56      -0.064670  -0.005452   0.006235   0.039483  -0.013241   0.005065
     57       0.125878   0.007902  -0.011633   0.024979   0.013416   0.003658
     58       0.031128  -0.002074  -0.007032  -0.032512   0.006727  -0.037256
     59      -0.094500  -0.006057   0.009581   0.014989  -0.016587   0.018579
     60       0.127185   0.021942  -0.010214   0.020541   0.015652  -0.006529
     61       0.031077   0.004211  -0.005432  -0.036531   0.006710   0.004175
     62      -0.093406  -0.018410   0.006115   0.010822  -0.017888  -0.050711
     63       0.059389   0.004150  -0.005103   0.034469   0.008011   0.000558
     64      -0.034119  -0.003049   0.003006  -0.009365  -0.004328   0.000540
     65       0.032720   0.003054  -0.002949  -0.001844   0.003274   0.000718
     66       0.053872   0.002327  -0.005062   0.054239   0.005022   0.013214
     67      -0.025830   0.001536   0.005176   0.011724  -0.001363  -0.022648
     68       0.029991   0.001904  -0.003517  -0.018840   0.003130   0.003821
     69       0.056542   0.004643  -0.002006   0.080826   0.007149  -0.014494
     70      -0.032307  -0.002592   0.003131  -0.004615  -0.003960  -0.000938
     71       0.030127   0.007071  -0.000609  -0.001246   0.005096  -0.019592
     72      -0.033083  -0.002273  -0.162382   0.291391   0.003140   0.021091
     73      -0.038074  -0.003005  -0.286267   0.009487   0.001440   0.000262
     74       0.430478  -0.003229  -0.031056   0.046279  -0.025125   0.015494
     75      -0.069713  -0.004611   0.081792   0.135353   0.001237  -0.002581
     76      -0.017601   0.001019  -0.334740  -0.084425   0.001719  -0.002375
     77       0.418319  -0.006380  -0.013549   0.025355  -0.032810   0.022761
     78      -0.017605  -0.000678   0.001175   0.035714   0.000371   0.000923
     79       0.004684  -0.003129   0.000311   0.013858   0.000643   0.000384
     80      -0.001355  -0.000709  -0.000222  -0.033880  -0.000819  -0.001053
     81       0.004808   0.000726  -0.001000   0.033932   0.003612   0.000224
     82       0.060701   0.001240  -0.005198   0.009586   0.008836  -0.001496
     83      -0.092950  -0.005203   0.008448  -0.028364  -0.014531   0.000110
     84      -0.078619  -0.004217   0.007256   0.041089  -0.008811   0.003307
     85       0.002379  -0.003233   0.000559   0.013737   0.000323   0.000318
     86       0.019634  -0.002217  -0.001576  -0.029709   0.003127  -0.007732
     87      -0.076121  -0.003450   0.006867   0.040833  -0.008407  -0.000090
     88       0.002804  -0.006057   0.000994   0.017446   0.001404  -0.004484
     89       0.021681   0.001430  -0.002624  -0.036664   0.002254   0.001281
                 30         31         32         33         34         35    
      0      -0.003422  -0.008432  -0.078728   0.052953   0.005245   0.001952
      1      -0.002507  -0.010904  -0.092598   0.058496   0.003128  -0.000121
      2       0.034744  -0.002391  -0.012437   0.006469  -0.053614  -0.041164
      3      -0.005775  -0.005357  -0.042899   0.025551   0.008770  -0.003071
      4      -0.003551  -0.002973  -0.009149  -0.002326   0.002863  -0.001573
      5       0.063173  -0.002859  -0.007206   0.001423  -0.088545   0.031652
      6       0.008477  -0.000526   0.034282  -0.040094   0.000459   0.000116
      7       0.004046  -0.000090  -0.009821   0.010189   0.000032  -0.002665
      8      -0.091063   0.003693   0.014014   0.001972  -0.011593   0.035220
      9      -0.006124  -0.004403  -0.038879   0.024468  -0.005781  -0.004754
     10       0.000209   0.009915   0.076239  -0.035241  -0.001197  -0.000593
     11       0.058346  -0.001135  -0.002982   0.000617   0.074049   0.049716
     12      -0.005155  -0.006161  -0.063652   0.039483  -0.006524  -0.002996
     13       0.001459   0.014769   0.132122  -0.081748  -0.002149   0.002944
     14       0.029246  -0.000662  -0.000907  -0.000936   0.062793   0.012625
     15      -0.006304   0.010908   0.078230  -0.045766  -0.004232   0.005261
     16      -0.003445  -0.002341  -0.021048   0.012645  -0.001185   0.002000
     17       0.064116  -0.001152   0.002389  -0.005671   0.015726  -0.064132
     18       0.034722  -0.001486  -0.014456   0.012496  -0.053077   0.017005
     19       0.017776  -0.002121  -0.004040  -0.003046  -0.029550   0.009261
     20      -0.380100   0.010085   0.004898   0.003883   0.578157  -0.220197
     21       0.033591  -0.006595  -0.041637   0.029780   0.051810   0.035618
     22       0.012034   0.011020   0.084011  -0.045059   0.015988   0.011554
     23      -0.325511   0.006697   0.008855   0.001614  -0.486603  -0.342197
     24       0.046395   0.008152   0.063595  -0.040186   0.006586  -0.035994
     25       0.020436  -0.004379  -0.040695   0.020435   0.002537  -0.020122
     26      -0.518949   0.016106   0.030822   0.012638  -0.105760   0.381840
     27      -0.007264   0.002409   0.000409  -0.010069   0.002459  -0.008296
     28       0.001498  -0.000533   0.042380  -0.036692   0.000497  -0.000965
     29       0.016260  -0.007433  -0.011786  -0.015242  -0.011156   0.041386
     30      -0.001267   0.008219  -0.009025   0.057040   0.002266  -0.013371
     31       0.002439   0.018900   0.063419   0.031778   0.001179  -0.011580
     32       0.003602   0.011659   0.020144   0.047382  -0.004146   0.036382
     33      -0.013539  -0.009345  -0.140454   0.089148   0.006826  -0.038369
     34       0.001500   0.015185   0.047758   0.031400   0.001460  -0.012736
     35      -0.039552  -0.244524  -0.354538  -0.320960   0.001159  -0.017275
     36       0.030020  -0.039442   0.007280  -0.051498  -0.014063   0.079592
     37      -0.040420  -0.217930  -0.340241  -0.273930   0.007141  -0.061690
     38       0.004855   0.117800   0.158372   0.199393   0.001459   0.009380
     39       0.050327  -0.067454   0.021347  -0.060199   0.016118   0.010325
     40      -0.005809   0.008562  -0.004028   0.006404  -0.001032  -0.001691
     41       0.024169  -0.032884   0.015905  -0.026360   0.007508   0.008181
     42       0.011778  -0.009107   0.001756  -0.005904   0.008572   0.006176
     43      -0.008646   0.002856   0.001891   0.011392  -0.014825  -0.000187
     44       0.006612  -0.004653  -0.000210  -0.003265   0.006294   0.002842
[...]
     31       0.000108  -0.000060   0.000034  -0.000171   0.000017   0.000019
     32      -0.000102   0.000071  -0.000012   0.000166   0.000033  -0.000016
     33       0.000501  -0.000234   0.000031  -0.000394  -0.000571   0.000083
     34      -0.002482   0.001364  -0.000342   0.003307   0.001088  -0.000003
     35      -0.000099   0.000039  -0.000041   0.000105  -0.000012   0.000201
     36       0.000584  -0.000436   0.000126  -0.000995  -0.000124   0.000072
     37       0.000582  -0.000337   0.000104  -0.000785  -0.000145  -0.000313
     38       0.001335  -0.000917   0.000229  -0.002117  -0.000307  -0.000293
     39      -0.000267  -0.000266  -0.000549  -0.000050  -0.003336   0.014227
     40      -0.016577   0.013246   0.002354   0.022968   0.045273  -0.023912
     41      -0.004241   0.003274   0.000452   0.005757   0.010523  -0.033944
     42       0.000010  -0.000473  -0.000604  -0.000518  -0.003153  -0.441359
     43       0.000567  -0.000488  -0.000114  -0.000722  -0.002124   0.105282
     44      -0.000119   0.000381   0.000387   0.000565   0.002417   0.887988
     45      -0.000464   0.000120  -0.000051   0.000363  -0.000255   0.000079
     46       0.000416  -0.000193   0.000141  -0.000468  -0.000526  -0.000057
     47       0.000008  -0.000010   0.000005  -0.000008  -0.000073  -0.000014
     48       0.005219  -0.001919   0.000709  -0.002439  -0.000470  -0.000323
     49      -0.010642   0.004118  -0.000620   0.006819   0.003508  -0.000009
     50      -0.000578   0.000233   0.000005   0.000456   0.000319  -0.000203
     51       0.000021   0.000021   0.000032  -0.000009   0.000116   0.026981
     52       0.001032  -0.000823  -0.000153  -0.001431  -0.002823  -0.005195
     53       0.000278  -0.000247  -0.000073  -0.000418  -0.000959  -0.053860
     54       0.000034  -0.000016   0.000015  -0.000052   0.000035  -0.000037
     55      -0.000040   0.000002  -0.000036   0.000017  -0.000041   0.000144
     56       0.000051  -0.000020   0.000025  -0.000051   0.000082  -0.000069
     57      -0.000240   0.000112  -0.000095   0.000358  -0.000364   0.000334
     58      -0.000186   0.000057  -0.000094   0.000158  -0.000607   0.000157
     59      -0.000660   0.000220  -0.000313   0.000529  -0.001161   0.000883
     60      -0.000116  -0.000001  -0.000099   0.000111  -0.000141  -0.000438
     61       0.000635   0.000019   0.000550  -0.000110   0.001160  -0.001330
     62      -0.000011   0.000012   0.000015  -0.000002   0.000233   0.000170
     63      -0.000028   0.000013  -0.000007   0.000007  -0.000017  -0.000017
     64       0.000019  -0.000015   0.000004  -0.000029   0.000050   0.000004
     65      -0.000047   0.000026  -0.000011   0.000042  -0.000010   0.000009
     66       0.000248  -0.000116   0.000060  -0.000112   0.000012   0.000044
     67       0.000261  -0.000111   0.000084  -0.000154   0.000085  -0.000059
     68       0.000591  -0.000285   0.000152  -0.000398   0.000111  -0.000105
     69       0.000053  -0.000009   0.000031   0.000028   0.000098   0.000275
     70      -0.000513   0.000264  -0.000125   0.000439  -0.000743  -0.000352
     71      -0.000031   0.000004  -0.000018  -0.000009  -0.000013   0.000028
     72       0.245375   0.184903  -0.392940   0.377958  -0.012444  -0.000002
     73       0.301729   0.229350  -0.482249   0.466541  -0.015717   0.000048
     74       0.036465   0.027556  -0.058343   0.056261  -0.001874   0.000010
     75       0.010420   0.198121   0.243265   0.143497  -0.063929  -0.000165
     76      -0.029991  -0.527953  -0.643072  -0.383390   0.171693   0.000186
     77      -0.000351  -0.004617  -0.005509  -0.003431   0.001570   0.000029
     78      -0.000031   0.000014  -0.000011   0.000013  -0.000004  -0.000021
     79      -0.000033   0.000004  -0.000014  -0.000003   0.000011   0.000036
     80       0.000025  -0.000010   0.000007   0.000002   0.000016  -0.000004
     81       0.000615  -0.000305   0.000204  -0.000373   0.000128   0.000214
     82      -0.000178   0.000083  -0.000051   0.000114  -0.000037  -0.000076
     83       0.000063  -0.000026   0.000023  -0.000050   0.000013  -0.000013
     84      -0.000052   0.000017  -0.000025   0.000055  -0.000014  -0.000052
     85       0.000713  -0.000195   0.000272  -0.000069   0.000081  -0.000358
     86      -0.000003  -0.000003  -0.000004  -0.000011   0.000033   0.000022
     87      -0.000167   0.000075  -0.000042   0.000078  -0.000092   0.000054
     88      -0.000153   0.000064  -0.000023   0.000022  -0.000114   0.000070
     89      -0.000386   0.000158  -0.000096   0.000042  -0.000263   0.000166


-----------
IR SPECTRUM  
-----------

 Mode    freq (cm**-1)   T**2         TX         TY         TZ
-------------------------------------------------------------------
   6:        60.60    0.000000  (  0.000000   0.000000   0.000000)
   7:        79.18    0.000000  (  0.000000   0.000000   0.000000)
   8:        94.83    0.000000  (  0.000000   0.000000   0.000000)
   9:       106.78    0.000000  (  0.000000   0.000000   0.000000)
  10:       143.11    0.000000  (  0.000000   0.000000   0.000000)
  11:       151.82    0.000000  (  0.000000   0.000000   0.000000)
  12:       166.68    0.000000  (  0.000000   0.000000   0.000000)
  13:       180.13    0.000000  (  0.000000   0.000000   0.000000)
  14:       192.71    0.000000  (  0.000000   0.000000   0.000000)
  15:       249.99    0.000000  (  0.000000   0.000000   0.000000)
  16:       288.66    0.000000  (  0.000000   0.000000   0.000000)
  17:       300.24    0.000000  (  0.000000   0.000000   0.000000)
  18:       354.49    0.000000  (  0.000000   0.000000   0.000000)
  19:       398.98    0.000000  (  0.000000   0.000000   0.000000)
  20:       405.80    0.000000  (  0.000000   0.000000   0.000000)
  21:       428.05    0.000000  (  0.000000   0.000000   0.000000)
  22:       434.74    0.000000  (  0.000000   0.000000   0.000000)
  23:       474.46    0.000000  (  0.000000   0.000000   0.000000)
  24:       520.51    0.000000  (  0.000000   0.000000   0.000000)
  25:       568.10    0.000000  (  0.000000   0.000000   0.000000)
  26:       589.25    0.000000  (  0.000000   0.000000   0.000000)
  27:       625.63    0.000000  (  0.000000   0.000000   0.000000)
  28:       679.90    0.000000  (  0.000000   0.000000   0.000000)
  29:       747.03    0.000000  (  0.000000   0.000000   0.000000)
  30:       784.91    0.000000  (  0.000000   0.000000   0.000000)
  31:       800.05    0.000000  (  0.000000   0.000000   0.000000)
  32:       836.77    0.000000  (  0.000000   0.000000   0.000000)
  33:       865.31    0.000000  (  0.000000   0.000000   0.000000)
  34:       899.60    0.000000  (  0.000000   0.000000   0.000000)
  35:       923.57    0.000000  (  0.000000   0.000000   0.000000)
  36:       935.10    0.000000  (  0.000000   0.000000   0.000000)
  37:       944.61    0.000000  (  0.000000   0.000000   0.000000)
  38:       952.30    0.000000  (  0.000000   0.000000   0.000000)
  39:       957.81    0.000000  (  0.000000   0.000000   0.000000)
  40:       964.58    0.000000  (  0.000000   0.000000   0.000000)
  41:       973.66    0.000000  (  0.000000   0.000000   0.000000)
  42:      1004.40    0.000000  (  0.000000   0.000000   0.000000)
  43:      1039.96    0.000000  (  0.000000   0.000000   0.000000)
  44:      1055.35    0.000000  (  0.000000   0.000000   0.000000)
  45:      1075.64    0.000000  (  0.000000   0.000000   0.000000)
  46:      1110.38    0.000000  (  0.000000   0.000000   0.000000)
  47:      1119.02    0.000000  (  0.000000   0.000000   0.000000)
  48:      1146.08    0.000000  (  0.000000   0.000000   0.000000)
  49:      1182.74    0.000000  (  0.000000   0.000000   0.000000)
  50:      1186.47    0.000000  (  0.000000   0.000000   0.000000)
  51:      1206.26    0.000000  (  0.000000   0.000000   0.000000)
  52:      1215.33    0.000000  (  0.000000   0.000000   0.000000)
  53:      1244.90    0.000000  (  0.000000   0.000000   0.000000)
  54:      1259.35    0.000000  (  0.000000   0.000000   0.000000)
  55:      1272.55    0.000000  (  0.000000   0.000000   0.000000)
  56:      1280.36    0.000000  (  0.000000   0.000000   0.000000)
  57:      1282.90    0.000000  (  0.000000   0.000000   0.000000)
  58:      1329.98    0.000000  (  0.000000   0.000000   0.000000)
  59:      1358.65    0.000000  (  0.000000   0.000000   0.000000)
  60:      1369.95    0.000000  (  0.000000   0.000000   0.000000)
  61:      1407.73    0.000000  (  0.000000   0.000000   0.000000)
  62:      1432.91    0.000000  (  0.000000   0.000000   0.000000)
  63:      1437.74    0.000000  (  0.000000   0.000000   0.000000)
  64:      1473.35    0.000000  (  0.000000   0.000000   0.000000)
  65:      1504.42    0.000000  (  0.000000   0.000000   0.000000)
  66:      1508.45    0.000000  (  0.000000   0.000000   0.000000)
  67:      1511.40    0.000000  (  0.000000   0.000000   0.000000)
  68:      1516.07    0.000000  (  0.000000   0.000000   0.000000)
  69:      1522.84    0.000000  (  0.000000   0.000000   0.000000)
  70:      1531.85    0.000000  (  0.000000   0.000000   0.000000)
  71:      1580.52    0.000000  (  0.000000   0.000000   0.000000)
  72:      1599.75    0.000000  (  0.000000   0.000000   0.000000)
  73:      2800.43    0.000000  (  0.000000   0.000000   0.000000)
  74:      2820.67    0.000000  (  0.000000   0.000000   0.000000)
  75:      2871.96    0.000000  (  0.000000   0.000000   0.000000)
  76:      2878.28    0.000000  (  0.000000   0.000000   0.000000)
  77:      2890.26    0.000000  (  0.000000   0.000000   0.000000)
  78:      2896.67    0.000000  (  0.000000   0.000000   0.000000)
  79:      2912.30    0.000000  (  0.000000   0.000000   0.000000)
  80:      2913.51    0.000000  (  0.000000   0.000000   0.000000)
  81:      2919.85    0.000000  (  0.000000   0.000000   0.000000)
  82:      2930.69    0.000000  (  0.000000   0.000000   0.000000)
  83:      2931.31    0.000000  (  0.000000   0.000000   0.000000)
  84:      2980.99    0.000000  (  0.000000   0.000000   0.000000)
  85:      2987.88    0.000000  (  0.000000   0.000000   0.000000)
  86:      2993.87    0.000000  (  0.000000   0.000000   0.000000)
  87:      3002.84    0.000000  (  0.000000   0.000000   0.000000)
  88:      3020.92    0.000000  (  0.000000   0.000000   0.000000)
  89:      3426.08    0.000000  (  0.000000   0.000000   0.000000)

The first frequency considered to be a vibration is 6
The total number of vibrations considered is 84


--------------------------
THERMOCHEMISTRY AT 298.15K
--------------------------

Temperature         ... 298.15 K
Pressure            ... 1.00 atm
Total Mass          ... 179.26 AMU

Throughout the following assumptions are being made:
  (1) The electronic state is orbitally nondegenerate
  (2) There are no thermally accessible electronically excited states
  (3) Hindered rotations indicated by low frequency modes are not
      treated as such but are treated as vibrations and this may
      cause some error
  (4) All equations used are the standard statistical mechanics
      equations for an ideal gas
  (5) All vibrations are strictly harmonic

freq.      60.60  E(vib)   ...       0.51 
freq.      79.18  E(vib)   ...       0.49 
freq.      94.83  E(vib)   ...       0.47 
freq.     106.78  E(vib)   ...       0.45 
freq.     143.11  E(vib)   ...       0.41 
freq.     151.82  E(vib)   ...       0.40 
freq.     166.68  E(vib)   ...       0.39 
freq.     180.13  E(vib)   ...       0.37 
freq.     192.71  E(vib)   ...       0.36 
freq.     249.99  E(vib)   ...       0.31 
freq.     288.66  E(vib)   ...       0.27 
freq.     300.24  E(vib)   ...       0.26 
freq.     354.49  E(vib)   ...       0.22 
freq.     398.98  E(vib)   ...       0.19 
freq.     405.80  E(vib)   ...       0.19 
freq.     428.05  E(vib)   ...       0.18 
freq.     434.74  E(vib)   ...       0.17 
freq.     474.46  E(vib)   ...       0.15 
freq.     520.51  E(vib)   ...       0.13 
freq.     568.10  E(vib)   ...       0.11 
freq.     589.25  E(vib)   ...       0.10 
freq.     625.63  E(vib)   ...       0.09 
freq.     679.90  E(vib)   ...       0.08 
freq.     747.03  E(vib)   ...       0.06 
freq.     784.91  E(vib)   ...       0.05 
freq.     800.05  E(vib)   ...       0.05 
freq.     836.77  E(vib)   ...       0.04 
freq.     865.31  E(vib)   ...       0.04 
freq.     899.60  E(vib)   ...       0.03 
freq.     923.57  E(vib)   ...       0.03 
freq.     935.10  E(vib)   ...       0.03 
freq.     944.61  E(vib)   ...       0.03 
freq.     952.30  E(vib)   ...       0.03 
freq.     957.81  E(vib)   ...       0.03 
freq.     964.58  E(vib)   ...       0.03 
freq.     973.66  E(vib)   ...       0.03 
freq.    1004.40  E(vib)   ...       0.02 
freq.    1039.96  E(vib)   ...       0.02 
freq.    1055.35  E(vib)   ...       0.02 
freq.    1075.64  E(vib)   ...       0.02 
freq.    1110.38  E(vib)   ...       0.02 
freq.    1119.02  E(vib)   ...       0.01 
freq.    1146.08  E(vib)   ...       0.01 
freq.    1182.74  E(vib)   ...       0.01 
freq.    1186.47  E(vib)   ...       0.01 
freq.    1206.26  E(vib)   ...       0.01 
freq.    1215.33  E(vib)   ...       0.01 
freq.    1244.90  E(vib)   ...       0.01 
freq.    1259.35  E(vib)   ...       0.01 
freq.    1272.55  E(vib)   ...       0.01 
freq.    1280.36  E(vib)   ...       0.01 
freq.    1282.90  E(vib)   ...       0.01 
freq.    1329.98  E(vib)   ...       0.01 
freq.    1358.65  E(vib)   ...       0.01 
freq.    1369.95  E(vib)   ...       0.01 
freq.    1407.73  E(vib)   ...       0.00 
freq.    1432.91  E(vib)   ...       0.00 
freq.    1437.74  E(vib)   ...       0.00 
freq.    1473.35  E(vib)   ...       0.00 
freq.    1504.42  E(vib)   ...       0.00 
freq.    1508.45  E(vib)   ...       0.00 
freq.    1511.40  E(vib)   ...       0.00 
freq.    1516.07  E(vib)   ...       0.00 
freq.    1522.84  E(vib)   ...       0.00 
freq.    1531.85  E(vib)   ...       0.00 
freq.    1580.52  E(vib)   ...       0.00 
freq.    1599.75  E(vib)   ...       0.00 
freq.    2800.43  E(vib)   ...       0.00 
freq.    2820.67  E(vib)   ...       0.00 
freq.    2871.96  E(vib)   ...       0.00 
freq.    2878.28  E(vib)   ...       0.00 
freq.    2890.26  E(vib)   ...       0.00 
freq.    2896.67  E(vib)   ...       0.00 
freq.    2912.30  E(vib)   ...       0.00 
freq.    2913.51  E(vib)   ...       0.00 
freq.    2919.85  E(vib)   ...       0.00 
freq.    2930.69  E(vib)   ...       0.00 
freq.    2931.31  E(vib)   ...       0.00 
freq.    2980.99  E(vib)   ...       0.00 
freq.    2987.88  E(vib)   ...       0.00 
freq.    2993.87  E(vib)   ...       0.00 
freq.    3002.84  E(vib)   ...       0.00 
freq.    3020.92  E(vib)   ...       0.00 
freq.    3426.08  E(vib)   ...       0.00 

------------
INNER ENERGY
------------

The inner energy is: U= E(el) + E(ZPE) + E(vib) + E(rot) + E(trans)
    E(el)   - is the total energy from the electronic structure calculation
              = E(kin-el) + E(nuc-el) + E(el-el) + E(nuc-nuc)
    E(ZPE)  - the the zero temperature vibrational energy from the frequency calculation
    E(vib)  - the the finite temperature correction to E(ZPE) due to population
              of excited vibrational states
    E(rot)  - is the rotational thermal energy
    E(trans)- is the translational thermal energy

Summary of contributions to the inner energy U:
Electronic energy                ...    -39.19302061 Eh
Zero point energy                ...      0.25065708 Eh     157.29 kcal/mol
Thermal vibrational correction   ...      0.01123121 Eh       7.05 kcal/mol
Thermal rotational correction    ...      0.00141627 Eh       0.89 kcal/mol
Thermal translational correction ...      0.00141627 Eh       0.89 kcal/mol
-----------------------------------------------------------------------
Total thermal energy                    -38.92829978 Eh


Summary of corrections to the electronic energy:
(perhaps to be used in another calculation)
Total thermal correction                  0.01406375 Eh       8.83 kcal/mol
Non-thermal (ZPE) correction              0.25065708 Eh     157.29 kcal/mol
-----------------------------------------------------------------------
Total correction                          0.26472083 Eh     166.11 kcal/mol


--------
ENTHALPY
--------

The enthalpy is H = U + kB*T
                kB is Boltzmann's constant
Total free energy                 ...    -38.92829978 Eh 
Thermal Enthalpy correction       ...      0.00094421 Eh       0.59 kcal/mol
-----------------------------------------------------------------------
Total Enthalpy                    ...    -38.92735557 Eh


Note: Only C1 symmetry has been detected, increase convergence thresholds 
      if your molecule has a higher symmetry. Symmetry factor of 1.0 is   
      used for the rotational entropy correction. 
 

Note: Rotational entropy computed according to Herzberg 
Infrared and Raman Spectra, Chapter V,1, Van Nostrand Reinhold, 1945 
Point Group:  C1, Symmetry Number:   1  
Rotational constants in cm-1:     0.051851     0.009437     0.008475 

Vibrational entropy computed according to the QRRHO of S. Grimme
Chem.Eur.J. 2012 18 9955


-------
ENTROPY
-------

The entropy contributions are T*S = T*(S(el)+S(vib)+S(rot)+S(trans))
     S(el)   - electronic entropy
     S(vib)  - vibrational entropy
     S(rot)  - rotational entropy
     S(trans)- translational entropy
The entropies will be listed as mutliplied by the temperature to get
units of energy

Electronic entropy                ...      0.00000000 Eh      0.00 kcal/mol
Vibrational entropy               ...      0.01941074 Eh     12.18 kcal/mol
Rotational entropy                ...      0.01536151 Eh      9.64 kcal/mol
Translational entropy             ...      0.01969790 Eh     12.36 kcal/mol
-----------------------------------------------------------------------
Final entropy term                ...      0.05447014 Eh     34.18 kcal/mol

In case the symmetry of your molecule has not been determined correctly
or in case you have a reason to use a different symmetry number we print 
out the resulting rotational entropy values for sn=1,12 :
 --------------------------------------------------------
|  sn= 1 | S(rot)=       0.01536151 Eh      9.64 kcal/mol|
|  sn= 2 | S(rot)=       0.01470705 Eh      9.23 kcal/mol|
|  sn= 3 | S(rot)=       0.01432422 Eh      8.99 kcal/mol|
|  sn= 4 | S(rot)=       0.01405259 Eh      8.82 kcal/mol|
|  sn= 5 | S(rot)=       0.01384191 Eh      8.69 kcal/mol|
|  sn= 6 | S(rot)=       0.01366976 Eh      8.58 kcal/mol|
|  sn= 7 | S(rot)=       0.01352422 Eh      8.49 kcal/mol|
|  sn= 8 | S(rot)=       0.01339814 Eh      8.41 kcal/mol|
|  sn= 9 | S(rot)=       0.01328693 Eh      8.34 kcal/mol|
|  sn=10 | S(rot)=       0.01318745 Eh      8.28 kcal/mol|
|  sn=11 | S(rot)=       0.01309746 Eh      8.22 kcal/mol|
|  sn=12 | S(rot)=       0.01301531 Eh      8.17 kcal/mol|
 --------------------------------------------------------


-------------------
GIBBS FREE ENERGY
-------------------

The Gibbs free energy is G = H - T*S

Total enthalpy                    ...    -38.92735557 Eh 
Total entropy correction          ...     -0.05447014 Eh    -34.18 kcal/mol
-----------------------------------------------------------------------
Final Gibbs free energy         ...    -38.98182571 Eh

For completeness - the Gibbs free energy minus the electronic energy
G-E(el)                           ...      0.21119490 Eh    132.53 kcal/mol


Total Time for Numerical Frequencies  :        79.771 sec
Time for Reference State(s)           :         0.218 sec
Time for Displacements                :        72.531 sec

Timings for individual modules:

Sum of individual times         ...        0.418 sec (=   0.007 min)
XTB module                      ...        0.418 sec (=   0.007 min) 100.0 %
                             ****ORCA TERMINATED NORMALLY****
TOTAL RUN TIME: 0 days 0 hours 1 minutes 20 seconds 971 msec
(SLURM) EXECUTION TIME: 80.995524356 seconds.
