(SLURM) JOB ID:         100

                                 *****************
                                 * O   R   C   A *
                                 *****************

           --- An Ab Initio, DFT and Semiempirical electronic structure package ---

                  #######################################################
                  #                        -***-                        #
                  #          Department of theory and spectroscopy      #
                  #               Directorship: Frank Neese             #
                  #        Max Planck Institute fuer Kohlenforschung    #
                  #                Kaiser Wilhelm Platz 1               #
                  #                 D-45470 Muelheim/Ruhr               #
                  #                      Germany                        #
                  #                                                     #
                  #                  All rights reserved                #
                  #                        -***-                        #
                  #######################################################


                         Program Version 4.2.1 -  RELEASE  -


 With contributions from (in alphabetic order):
   Daniel Aravena         : Magnetic Suceptibility
   Michael Atanasov       : Ab Initio Ligand Field Theory (pilot matlab implementation)
   Alexander A. Auer      : GIAO ZORA, VPT2
   Ute Becker             : Parallelization
   Giovanni Bistoni       : ED, misc. LED, open-shell LED, HFLD
   Martin Brehm           : Molecular dynamics
   Dmytro Bykov           : SCF Hessian
   Vijay G. Chilkuri      : MRCI spin determinant printing, contributions to CSF-ICE
   Dipayan Datta          : RHF DLPNO-CCSD density
   Achintya Kumar Dutta   : EOM-CC, STEOM-CC
   Dmitry Ganyushin       : Spin-Orbit,Spin-Spin,Magnetic field MRCI
   Miquel Garcia          : C-PCM Hessian, Gaussian charge scheme
   Yang Guo               : DLPNO-NEVPT2, CIM, IAO-localization
   Andreas Hansen         : Spin unrestricted coupled pair/coupled cluster methods
   Benjamin Helmich-Paris : CASSCF linear response (MC-RPA)
   Lee Huntington         : MR-EOM, pCC
   Robert Izsak           : Overlap fitted RIJCOSX, COSX-SCS-MP3, EOM
   Christian Kollmar      : KDIIS, OOCD, Brueckner-CCSD(T), CCSD density
   Simone Kossmann        : Meta GGA functionals, TD-DFT gradient, OOMP2, MP2 Hessian
   Martin Krupicka        : AUTO-CI
   Lucas Lang             : DCDCAS
   Dagmar Lenk            : GEPOL surface, SMD
   Dimitrios Liakos       : Extrapolation schemes; Compound Job, initial MDCI parallelization
   Dimitrios Manganas     : Further ROCIS development; embedding schemes
   Dimitrios Pantazis     : SARC Basis sets
   Taras Petrenko         : DFT Hessian,TD-DFT gradient, ASA, ECA, R-Raman, ABS, FL, XAS/XES, NRVS
   Peter Pinski           : DLPNO-MP2, DLPNO-MP2 Gradient
   Christoph Reimann      : Effective Core Potentials
   Marius Retegan         : Local ZFS, SOC
   Christoph Riplinger    : Optimizer, TS searches, QM/MM, DLPNO-CCSD(T), (RO)-DLPNO pert. Triples
   Tobias Risthaus        : Range-separated hybrids, TD-DFT gradient, RPA, STAB
   Michael Roemelt        : Original ROCIS implementation
   Masaaki Saitow         : Open-shell DLPNO-CCSD energy and density
   Barbara Sandhoefer     : DKH picture change effects
   Avijit Sen             : IP-ROCIS
   Kantharuban Sivalingam : CASSCF convergence, NEVPT2, FIC-MRCI
   Bernardo de Souza      : ESD, SOC TD-DFT
   Georgi Stoychev        : AutoAux, RI-MP2 NMR
   Willem Van den Heuvel  : Paramagnetic NMR
   Boris Wezisla          : Elementary symmetry handling
   Frank Wennmohs         : Technical directorship


 We gratefully acknowledge several colleagues who have allowed us to
 interface, adapt or use parts of their codes:
   Stefan Grimme, W. Hujo, H. Kruse,             : VdW corrections, initial TS optimization,
                  C. Bannwarth                     DFT functionals, gCP, sTDA/sTD-DF
   Ed Valeev, F. Pavosevic, A. Kumar             : LibInt (2-el integral package), F12 methods
   Garnet Chan, S. Sharma, J. Yang, R. Olivares  : DMRG
   Ulf Ekstrom                                   : XCFun DFT Library
   Mihaly Kallay                                 : mrcc  (arbitrary order and MRCC methods)
   Andreas Klamt, Michael Diedenhofen            : otool_cosmo (COSMO solvation model)
   Jiri Pittner, Ondrej Demel                    : Mk-CCSD
   Frank Weinhold                                : gennbo (NPA and NBO analysis)
   Christopher J. Cramer and Donald G. Truhlar   : smd solvation model
   Lars Goerigk                                  : TD-DFT with DH, B97 family of functionals
   V. Asgeirsson, H. Jonsson                     : NEB implementation
   FAccTs GmbH                                   : IRC, NEB, NEB-TS, Multilevel, MM, QM/MM, CI optimization
   S Lehtola, MJT Oliveira, MAL Marques          : LibXC Library


 Your calculation uses the libint2 library for the computation of 2-el integrals
 For citations please refer to: http://libint.valeyev.net

 Your ORCA version has been built with support for libXC version: 4.2.3
 For citations please refer to: https://tddft.org/programs/libxc/

 This ORCA versions uses:
   CBLAS   interface :  Fast vector & matrix operations
   LAPACKE interface :  Fast linear algebra routines
   SCALAPACK package :  Parallel linear algebra routines




***************************************
The coordinates will be read from file: init.xyz
***************************************


Your calculation utilizes the SMD solvation module
Please cite in your paper:
A.V. Marenich, C.J. Cramer, D.G. Truhlar J. Phys. Chem. B, 113, (2009), 6378 

Your calculation utilizes the semiempirical GFN2-xTB method
Please cite in your paper:
C. Bannwarth, Ehlert S., S. Grimme,  J. Chem. Theory Comput., 15, (2019), 1652.
   

----- Orbital basis set information -----
Your calculation utilizes the basis: def2-SVP
   F. Weigend and R. Ahlrichs, Phys. Chem. Chem. Phys. 7, 3297 (2005).

================================================================================
                                        WARNINGS
                       Please study these warnings very carefully!
================================================================================

WARNING: Gradients needed for Numerical Frequencies
  ===> : Setting RunTyp to EnGrad

WARNING: The environment variable RSH_COMMAND is not set!
  ===> : All Displacements for the Numerical Hessian calculation
         will be started on localhost

WARNING: Found dipole moment calculation with XTB calculation
  ===> : Switching off dipole moment calculation


INFO   : the flag for use of LIBINT has been found!

================================================================================
                                       INPUT FILE
================================================================================
NAME = /tmp/slurm-scratch/freq.100/freq.inp
|  1> ! XTB2 NumFreq
|  2> %maxcore 1450
|  3> 
|  4> * xyzfile 0 1 init.xyz
|  5> 
|  6> %cpcm
|  7>  smd true
|  8>  smdsolvent "ch2cl2"
|  9> end
| 10> %pal nprocs 8 end
| 11> 
| 12>                          ****END OF INPUT****
================================================================================

                     *******************************
                     * Energy+Gradient Calculation *
                     *******************************

      -----------------------------------------------------------      
     |                   =====================                   |     
     |                           x T B                           |     
     |                   =====================                   |     
     |                         S. Grimme                         |     
     |          Mulliken Center for Theoretical Chemistry        |     
     |                    University of Bonn                     |     
      -----------------------------------------------------------      

   * xtb version 6.3.0 (preview) compiled by 'ehlert@majestix' on 2020-01-15

   This program is distributed in the hope that it will be useful,
   but WITHOUT ANY WARRANTY; without even the implied warranty of
   MERCHANTABILITY or FITNESS FOR A PARTICULAR PURPOSE.
   
   FOR NON-COMMERCIAL, ACADEMIA USE ONLY.
   
   Cite this work as:
   * S. Grimme, C. Bannwarth, P. Shushkov, J. Chem. Theory Comput., 2017,
     13, 1989-2009. DOI: 10.1021/acs.jctc.7b00118
   * C. Bannwarth, S. Ehlert and S. Grimme., J. Chem. Theory Comput., 2019,
     15, 1652-1671. DOI: 10.1021/acs.jctc.8b01176
   * P. Pracht, E. Caldeweyher, S. Ehlert, S. Grimme, ChemRxiv, 2019, preprint.
     DOI: 10.26434/chemrxiv.8326202.v1
   * S. Grimme, S. Spicher unpublished
   
   for DFT-D4:
   * E. Caldeweyher, C. Bannwarth and S. Grimme, J. Chem. Phys., 2017,
     147, 034112. DOI: 10.1063/1.4993215
   * E. Caldeweyher, S. Ehlert, A. Hansen, H. Neugebauer, S. Spicher,
     C. Bannwarth and S. Grimme, J. Chem. Phys., 2019, 150, 154122.
     DOI: 10.1063/1.5090222
   
   for sTDA-xTB:
   * S. Grimme and C. Bannwarth, J. Chem. Phys., 2016, 145, 054103.
     DOI: 10.1063/1.4959605
   
   in the mass-spec context:
   * V. Asgeirsson, C. Bauer and S. Grimme, Chem. Sci., 2017, 8, 4879.
     DOI: 10.1039/c7sc00601b
   
   for metadynamics refer to:
   * S. Grimme, J. Chem. Theory Comput., 2019, 155, 2847-2862
     DOI: 10.1021/acs.jctc.9b00143
   
   with help from (in alphabetical order)
   C. Bannwarth, F. Bohle, G. Brandenburg, E. Caldeweyher, M. Checinski,
   S. Dohm, S. Ehlert, S. Ehrlich, F. März, H. Neugebauer, J. Pisarek,
   P. Pracht, P. Shushkov, and S. Spicher.
   
 * started run on 2020/08/19 at 08:37:58.853     

           -------------------------------------------------
          |                Calculation Setup                |
           -------------------------------------------------

          program call               : /opt/orca/otool_xtb /tmp/slurm-scratch/freq.100/freq_XTB.xyz --grad -c 0 -u 0 -P 8 --namespace /tmp/slurm-scratch/freq.100/freq --gbsa CH2Cl2
          hostname                   : headnode-pbs
          calculation namespace      : /tmp/slurm-scratch/freq.100/freq
          coordinate file            : /tmp/slurm-scratch/freq.100/freq_XTB.xyz
          omp threads                :                     8
          number of atoms            :                    33
          number of electrons        :                    80
          charge                     :                     0
          spin                       :                   0.0
          first test random number   :      0.72277250906250


molecular fragmentation (1/2 indicates fragments):
111111111111111211111112111111111
# atoms in fragment 1/2:    31     2
 fragment masses (1/2) :      180.27       17.01
CMA distance (Bohr)    :   6.519
constraining FC (au)   :  0.0500

########################################################################
# WARNING! Please study the warnings concerning your input carefully
#  - Process number higher than OMP_NUM_THREADS, I hope you know what you are doing.
########################################################################

           ------------------------------------------------- 
          |                 G F N 2 - x T B                 |
          | Geometry, Frequencies, Noncovalent interactions |
          |            JCTC 2019 parametrisation            |
           ------------------------------------------------- 
             k(s)              :                1.8500
             k(p)              :                2.2300
             k(d)              :                2.2300
             k(f)              :                2.0000
             kEN (H0ij)        :               -2.0000
             D4 a1             :                0.5200
             D4 a2             :                5.0000
             D4 s6             :                1.0000
             D4 s8             :                2.7000
             D4 s9             :                5.0000
             alphaj            :                2.0000

  Z AO/shell   Hii/eV     exponent
  1     Wed Apr 25 08:07:45 CEST 2018   EN: 2.200 GM2: 0.406  GM3: 0.0800  RAES: 1.40
     1s    -10.707211    1.230000
  6     Wed Apr 25 08:07:45 CEST 2018   EN: 2.550 GM2: 0.538  GM3: 0.1500  RAES: 3.00
     2s    -13.970922    2.096432
     2p    -10.063292    1.800000
  7     Wed Apr 25 08:07:45 CEST 2018   EN: 3.040 GM2: 0.461  GM3:-0.0640  RAES: 1.90
     2s    -16.686243    2.339881
     2p    -12.523956    2.014332
  8     Wed Apr 25 08:07:45 CEST 2018   EN: 3.440 GM2: 0.452  GM3:-0.0517  RAES: 1.80
     2s    -20.229985    2.439742
     2p    -15.503117    2.137023

 Solvent             : CH2Cl2
 Using internal parameter file: .param_gbsa2_CH2Cl2
 Gsolv ref. state (COSMO-RS): gsolv [1 M gas/solution]
 temperature (mdtemp)       :    298.150000000000     
 dielectric constant        :    8.93000000000000     
 rho                        :    1.33000000000000     
 mass                       :    84.9300000000000     
 surface tension            :    15.5689454083859     
 probe radius               :   0.719875900000000     
 Gshift (Eh)                :   4.440829173451759E-003
 c1                         :    1.49173776000000     
 soset                      :   0.000000000000000E+000
 HB correction              :  F
           ------------------------------------------------- 
          |        Self-Consistent Charge Iterations        |
           ------------------------------------------------- 

          ...................................................
          :                      SETUP                      :
          :.................................................:
          :  # basis functions                  75          :
          :  # atomic orbitals                  75          :
          :  # shells                           47          :
          :  # electrons                        80          :
          :  max. iterations                   250          :
          :  Hamiltonian                  GFN2-xTB          :
          :  GBSA solvation                   true          :
          :  PC potential                    false          :
          :  electronic temp.          300.0000000     K    :
          :  accuracy                    1.0000000          :
          :  -> integral cutoff          0.2500000E+02      :
          :  -> integral neglect         0.1000000E-07      :
          :  -> SCF convergence          0.1000000E-05 Eh   :
          :  -> wf. convergence          0.1000000E-03 e    :
          :  Broyden damping             0.4000000          :
          ...................................................
  Checking positiv definite overlap ...  done.
 

 iter      E             dE          RMSdq      gap      omega  full diag
   1    -44.6779844 -0.446780E+02  0.380E+00    4.52       0.0  T
   2    -44.7868749 -0.108890E+00  0.210E+00    4.21       1.0  T
   3    -44.7892838 -0.240891E-02  0.941E-01    3.68       1.0  T
   4    -44.7886341  0.649666E-03  0.336E-01    3.64       1.0  T
   5    -44.7918161 -0.318198E-02  0.821E-02    3.70       1.0  T
   6    -44.7918479 -0.318069E-04  0.298E-02    3.76       1.0  T
   7    -44.7918501 -0.213934E-05  0.151E-02    3.76       1.2  T
   8    -44.7918526 -0.255477E-05  0.452E-03    3.76       3.9  T
   9    -44.7918527 -0.135069E-06  0.209E-03    3.76       8.3  T
  10    -44.7918528 -0.407404E-07  0.843E-04    3.76      20.6  T
  11    -44.7918528 -0.338160E-08  0.421E-04    3.76      41.4  T

   *** convergence criteria satisfied after 11 iterations ***

         #    Occupation            Energy/Eh            Energy/eV
      -------------------------------------------------------------
         1        2.0000           -0.6901342             -18.7795
       ...           ...                  ...                  ...
        34        2.0000           -0.4326306             -11.7725
        35        2.0000           -0.4279544             -11.6452
        36        2.0000           -0.4105903             -11.1727
        37        2.0000           -0.4092131             -11.1353
        38        2.0000           -0.3991639             -10.8618
        39        2.0000           -0.3936924             -10.7129
        40        2.0000           -0.3788038             -10.3078 (HOMO)
        41                         -0.2407761              -6.5519 (LUMO)
        42                         -0.2335717              -6.3558
        43                         -0.1247751              -3.3953
        44                         -0.0760430              -2.0692
        45                         -0.0267564              -0.7281
       ...                                ...                  ...
        75                          0.6119717              16.6526
      -------------------------------------------------------------
                  HL-Gap            0.1380277 Eh            3.7559 eV
             Fermi-level           -0.3097899 Eh           -8.4298 eV

 SCC (total)                   0 d,  0 h,  0 min,  0.214 sec
 SCC setup                      ...        0 min,  0.006 sec (  2.793%)
 Dispersion                     ...        0 min,  0.002 sec (  0.996%)
 integral evaluation            ...        0 min,  0.014 sec (  6.680%)
 zeroth order Hamiltonian       ...        0 min,  0.000 sec (  0.006%)
 iterations                     ...        0 min,  0.183 sec ( 85.446%)
 molecular gradient             ...        0 min,  0.008 sec (  3.585%)
 printout                       ...        0 min,  0.001 sec (  0.471%)

         :::::::::::::::::::::::::::::::::::::::::::::::::::::
         ::                     SUMMARY                     ::
         :::::::::::::::::::::::::::::::::::::::::::::::::::::
         :: total energy             -44.261600923596 Eh    ::
         :: total w/o Gsasa/hb       -44.245094455321 Eh    ::
         :: gradient norm              0.047472184274 Eh/a0 ::
         :: HOMO-LUMO gap              3.755925824943 eV    ::
         ::.................................................::
         :: SCC energy               -44.808359257412 Eh    ::
         :: -> isotropic ES            0.130343459413 Eh    ::
         :: -> anisotropic ES         -0.003200035219 Eh    ::
         :: -> anisotropic XC          0.020137574096 Eh    ::
         :: -> dispersion             -0.026352545504 Eh    ::
         :: -> Gsolv                  -0.036107457985 Eh    ::
         ::    -> Gborn               -0.019600989710 Eh    ::
         ::    -> Gsasa               -0.020947297448 Eh    ::
         ::    -> Ghb                  0.000000000000 Eh    ::
         ::    -> Gshift               0.004440829173 Eh    ::
         :: repulsion energy           0.546681256322 Eh    ::
         :: add. restraining           0.000000000000 Eh    ::
         :::::::::::::::::::::::::::::::::::::::::::::::::::::

           -------------------------------------------------
          |                Property Printout                |
           -------------------------------------------------

    * Orbital Energies and Occupations

         #    Occupation            Energy/Eh            Energy/eV
      -------------------------------------------------------------
         1        2.0000           -0.6901342             -18.7795
       ...           ...                  ...                  ...
        28        2.0000           -0.4791138             -13.0374
        29        2.0000           -0.4689947             -12.7620
        30        2.0000           -0.4574867             -12.4488
        31        2.0000           -0.4557114             -12.4005
        32        2.0000           -0.4452755             -12.1166
        33        2.0000           -0.4405926             -11.9891
        34        2.0000           -0.4326306             -11.7725
        35        2.0000           -0.4279544             -11.6452
        36        2.0000           -0.4105903             -11.1727
        37        2.0000           -0.4092131             -11.1353
        38        2.0000           -0.3991639             -10.8618
        39        2.0000           -0.3936924             -10.7129
        40        2.0000           -0.3788038             -10.3078 (HOMO)
        41                         -0.2407761              -6.5519 (LUMO)
        42                         -0.2335717              -6.3558
        43                         -0.1247751              -3.3953
        44                         -0.0760430              -2.0692
        45                         -0.0267564              -0.7281
        46                          0.0237397               0.6460
        47                          0.0532009               1.4477
        48                          0.0654620               1.7813
        49                          0.0843026               2.2940
        50                          0.0948197               2.5802
        51                          0.1054951               2.8707
       ...                                ...                  ...
        75                          0.6119717              16.6526
      -------------------------------------------------------------
                  HL-Gap            0.1380277 Eh            3.7559 eV
             Fermi-level           -0.3097899 Eh           -8.4298 eV

     #   Z        covCN         q      C6AA      α(0)
     1   6 C      2.908    -0.029    28.727     8.789
     2   6 C      2.912    -0.043    29.067     8.841
     3   6 C      2.959    -0.023    28.567     8.767
     4   6 C      2.911    -0.025    28.632     8.774
     5   6 C      2.909    -0.028    28.704     8.785
     6   6 C      2.908    -0.028    28.702     8.785
     7   1 H      0.924     0.042     2.427     2.436
     8   1 H      0.925     0.047     2.355     2.400
     9   1 H      0.925     0.044     2.396     2.420
    10   7 N      3.498    -0.140    24.015     7.278
    11   1 H      0.854     0.277     0.786     1.389
    12   6 C      3.729    -0.012    20.891     6.525
    13   1 H      0.924     0.074     2.045     2.236
    14   1 H      0.924     0.081     1.968     2.194
    15   1 H      0.859     0.205     1.080     1.628
    16   1 H      0.804     0.209     1.075     1.628
    17   1 H      0.928     0.340     0.601     1.212
    18   6 C      3.645     0.177    18.073     6.110
    19   1 H      0.923     0.045     2.387     2.416
    20   8 O      1.528    -0.570    24.546     6.683
    21   6 C      3.797    -0.068    21.799     6.648
    22   1 H      0.923     0.051     2.302     2.373
    23   1 H      0.923     0.053     2.289     2.366
    24   8 O      1.066    -0.806    31.592     7.542
    25   6 C      3.796    -0.055    21.563     6.612
    26   1 H      0.923     0.040     2.455     2.450
    27   1 H      0.923     0.041     2.439     2.442
    28   1 H      0.925     0.040     2.443     2.444
    29   1 H      0.925     0.047     2.362     2.403
    30   6 C      3.746    -0.104    22.555     6.775
    31   1 H      0.923     0.040     2.454     2.450
    32   1 H      0.923     0.038     2.472     2.459
    33   1 H      0.923     0.040     2.454     2.450

 Mol. C6AA /au·bohr⁶  :       9412.125171
 Mol. C8AA /au·bohr⁸  :     210162.973354
 Mol. α(0) /au        :        148.711146


Wiberg/Mayer (AO) data.
largest (>0.10) Wiberg bond orders for each atom
          total WBO             WBO to atom ...
     1  C   3.990        C    2 1.446    C    6 1.435    H   29 0.970    C    4 0.111
     2  C   3.989        C    1 1.446    C    3 1.408    H    7 0.968    C    5 0.112
     3  C   3.984        C    4 1.417    C    2 1.408    C   18 0.972    C    6 0.109
     4  C   3.989        C    5 1.439    C    3 1.417    H    8 0.966    C    1 0.111
     5  C   3.990        C    6 1.441    C    4 1.439    H   28 0.971    C    2 0.112
     6  C   3.989        C    5 1.441    C    1 1.435    H    9 0.971    C    3 0.109
     7  H   0.998        C    2 0.968
     8  H   0.998        C    4 0.966
     9  H   0.998        C    6 0.971
    10  N   3.646        C   12 0.958    H   15 0.933    C   18 0.841    H   11 0.716
    11  H   0.923        N   10 0.716    O   24 0.188
    12  C   3.938        C   21 1.009    H   14 0.969    H   13 0.969    N   10 0.958
    13  H   0.994        C   12 0.969
    14  H   0.993        C   12 0.969
    15  H   0.958        N   10 0.933
    16  H   0.956        O   24 0.952
    17  H   0.884        O   20 0.532    O   24 0.334
    18  C   3.932        O   20 1.106    C    3 0.972    H   19 0.949    N   10 0.841
    19  H   0.998        C   18 0.949
    20  O   1.863        C   18 1.106    H   17 0.532
    21  C   3.990        C   12 1.009    C   25 1.002    H   23 0.974    H   22 0.971
    22  H   0.997        C   21 0.971
    23  H   0.997        C   21 0.974
    24  O   1.672        H   16 0.952    H   17 0.334    H   11 0.188
    25  C   3.994        C   30 1.019    C   21 1.002    H   26 0.978    H   27 0.977
    26  H   0.998        C   25 0.978
    27  H   0.998        C   25 0.977
    28  H   0.998        C    5 0.971
    29  H   0.997        C    1 0.970
    30  C   3.995        C   25 1.019    H   32 0.988    H   33 0.987    H   31 0.987
    31  H   0.998        C   30 0.987
    32  H   0.999        C   30 0.988
    33  H   0.998        C   30 0.987

molecular dipole:
                 x           y           z       tot (Debye)
 q only:       -2.907       0.669      -1.062
   full:       -2.967       0.420      -1.077       8.095
molecular quadrupole (traceless):
                xx          xy          yy          xz          yz          zz
 q only:        0.626      14.539       3.682     -37.904       4.429      -4.308
  q+dip:       -1.376      11.785       5.393     -38.310      -0.267      -4.017
   full:       -1.817      13.168       6.578     -37.852       0.724      -4.761

           -------------------------------------------------
          |                Property Printout                |
           -------------------------------------------------

    * Orbital Energies and Occupations

         #    Occupation            Energy/Eh            Energy/eV
      -------------------------------------------------------------
         1        2.0000           -0.6901342             -18.7795
       ...           ...                  ...                  ...
        28        2.0000           -0.4791138             -13.0374
        29        2.0000           -0.4689947             -12.7620
        30        2.0000           -0.4574867             -12.4488
        31        2.0000           -0.4557114             -12.4005
        32        2.0000           -0.4452755             -12.1166
        33        2.0000           -0.4405926             -11.9891
        34        2.0000           -0.4326306             -11.7725
        35        2.0000           -0.4279544             -11.6452
        36        2.0000           -0.4105903             -11.1727
        37        2.0000           -0.4092131             -11.1353
        38        2.0000           -0.3991639             -10.8618
        39        2.0000           -0.3936924             -10.7129
        40        2.0000           -0.3788038             -10.3078 (HOMO)
        41                         -0.2407761              -6.5519 (LUMO)
        42                         -0.2335717              -6.3558
        43                         -0.1247751              -3.3953
        44                         -0.0760430              -2.0692
        45                         -0.0267564              -0.7281
        46                          0.0237397               0.6460
        47                          0.0532009               1.4477
        48                          0.0654620               1.7813
        49                          0.0843026               2.2940
        50                          0.0948197               2.5802
        51                          0.1054951               2.8707
       ...                                ...                  ...
        75                          0.6119717              16.6526
      -------------------------------------------------------------
                  HL-Gap            0.1380277 Eh            3.7559 eV
             Fermi-level           -0.3097899 Eh           -8.4298 eV

     #   Z        covCN         q      C6AA      α(0)
     1   6 C      2.908    -0.029    28.727     8.789
     2   6 C      2.912    -0.043    29.067     8.841
     3   6 C      2.959    -0.023    28.567     8.767
     4   6 C      2.911    -0.025    28.632     8.774
     5   6 C      2.909    -0.028    28.704     8.785
     6   6 C      2.908    -0.028    28.702     8.785
     7   1 H      0.924     0.042     2.427     2.436
     8   1 H      0.925     0.047     2.355     2.400
     9   1 H      0.925     0.044     2.396     2.420
    10   7 N      3.498    -0.140    24.015     7.278
    11   1 H      0.854     0.277     0.786     1.389
    12   6 C      3.729    -0.012    20.891     6.525
    13   1 H      0.924     0.074     2.045     2.236
    14   1 H      0.924     0.081     1.968     2.194
    15   1 H      0.859     0.205     1.080     1.628
    16   1 H      0.804     0.209     1.075     1.628
    17   1 H      0.928     0.340     0.601     1.212
    18   6 C      3.645     0.177    18.073     6.110
    19   1 H      0.923     0.045     2.387     2.416
    20   8 O      1.528    -0.570    24.546     6.683
    21   6 C      3.797    -0.068    21.799     6.648
    22   1 H      0.923     0.051     2.302     2.373
    23   1 H      0.923     0.053     2.289     2.366
    24   8 O      1.066    -0.806    31.592     7.542
    25   6 C      3.796    -0.055    21.563     6.612
    26   1 H      0.923     0.040     2.455     2.450
    27   1 H      0.923     0.041     2.439     2.442
    28   1 H      0.925     0.040     2.443     2.444
    29   1 H      0.925     0.047     2.362     2.403
    30   6 C      3.746    -0.104    22.555     6.775
    31   1 H      0.923     0.040     2.454     2.450
    32   1 H      0.923     0.038     2.472     2.459
    33   1 H      0.923     0.040     2.454     2.450

 Mol. C6AA /au·bohr⁶  :       9412.125171
 Mol. C8AA /au·bohr⁸  :     210162.973354
 Mol. α(0) /au        :        148.711146


Wiberg/Mayer (AO) data.
largest (>0.10) Wiberg bond orders for each atom
          total WBO             WBO to atom ...
     1  C   3.990        C    2 1.446    C    6 1.435    H   29 0.970    C    4 0.111
     2  C   3.989        C    1 1.446    C    3 1.408    H    7 0.968    C    5 0.112
     3  C   3.984        C    4 1.417    C    2 1.408    C   18 0.972    C    6 0.109
     4  C   3.989        C    5 1.439    C    3 1.417    H    8 0.966    C    1 0.111
     5  C   3.990        C    6 1.441    C    4 1.439    H   28 0.971    C    2 0.112
     6  C   3.989        C    5 1.441    C    1 1.435    H    9 0.971    C    3 0.109
     7  H   0.998        C    2 0.968
     8  H   0.998        C    4 0.966
     9  H   0.998        C    6 0.971
    10  N   3.646        C   12 0.958    H   15 0.933    C   18 0.841    H   11 0.716
    11  H   0.923        N   10 0.716    O   24 0.188
    12  C   3.938        C   21 1.009    H   14 0.969    H   13 0.969    N   10 0.958
    13  H   0.994        C   12 0.969
    14  H   0.993        C   12 0.969
    15  H   0.958        N   10 0.933
    16  H   0.956        O   24 0.952
    17  H   0.884        O   20 0.532    O   24 0.334
    18  C   3.932        O   20 1.106    C    3 0.972    H   19 0.949    N   10 0.841
    19  H   0.998        C   18 0.949
    20  O   1.863        C   18 1.106    H   17 0.532
    21  C   3.990        C   12 1.009    C   25 1.002    H   23 0.974    H   22 0.971
    22  H   0.997        C   21 0.971
    23  H   0.997        C   21 0.974
    24  O   1.672        H   16 0.952    H   17 0.334    H   11 0.188
    25  C   3.994        C   30 1.019    C   21 1.002    H   26 0.978    H   27 0.977
    26  H   0.998        C   25 0.978
    27  H   0.998        C   25 0.977
    28  H   0.998        C    5 0.971
    29  H   0.997        C    1 0.970
    30  C   3.995        C   25 1.019    H   32 0.988    H   33 0.987    H   31 0.987
    31  H   0.998        C   30 0.987
    32  H   0.999        C   30 0.988
    33  H   0.998        C   30 0.987

molecular dipole:
                 x           y           z       tot (Debye)
 q only:       -2.907       0.669      -1.062
   full:       -2.967       0.420      -1.077       8.095
molecular quadrupole (traceless):
                xx          xy          yy          xz          yz          zz
 q only:        0.626      14.539       3.682     -37.904       4.429      -4.308
  q+dip:       -1.376      11.785       5.393     -38.310      -0.267      -4.017
   full:       -1.817      13.168       6.578     -37.852       0.724      -4.761


           -------------------------------------------------
          | TOTAL ENERGY              -44.261600923596 Eh   |
          | GRADIENT NORM               0.047472184274 Eh/α |
          | HOMO-LUMO GAP               3.755925824943 eV   |
           -------------------------------------------------

------------------------------------------------------------------------
 * finished run on 2020/08/19 at 08:37:59.263     
------------------------------------------------------------------------
 total:
 * wall-time:     0 d,  0 h,  0 min,  0.409 sec
 *  cpu-time:     0 d,  0 h,  0 min,  1.905 sec
 * ratio c/w:     4.653 speedup
 SCF:
 * wall-time:     0 d,  0 h,  0 min,  0.229 sec
 *  cpu-time:     0 d,  0 h,  0 min,  1.024 sec
 * ratio c/w:     4.463 speedup


-------------------------   --------------------
FINAL SINGLE POINT ENERGY       -44.261600923600
-------------------------   --------------------


----------------------------------------------------------------------------
                           ORCA NUMERICAL FREQUENCIES
                              (8-process run)
----------------------------------------------------------------------------

Number of atoms                ... 33
Central differences            ... used
Number of displacements        ... 198
Numerical increment            ... 5.000e-03 bohr
IR-spectrum generation         ... on
Raman-spectrum generation      ... off
Surface Crossing Hessian       ... off
List of participating nodes    ...  /tmp/slurm-scratch/freq.100/freq.hostnames

The output will be reduced. Please look at the following files:
SCF program output             ... >/tmp/slurm-scratch/freq.100/freq.lastscf
Integral program output        ... >/tmp/slurm-scratch/freq.100/freq.lastint
Gradient program output        ... >/tmp/slurm-scratch/freq.100/freq.lastgrad
Dipole moment program output   ... >/tmp/slurm-scratch/freq.100/freq.lastmom
AutoCI program output          ... >/tmp/slurm-scratch/freq.100/freq.lastautoci


         <<< Energy and Gradient at the input geometry >>>

        <<< Energy and Gradient at displaced geometries >>>
             <<<Displacing   2/coordinate 2 (+)>>>
             <<<Displacing   3/coordinate 2 (+)>>>
             <<<Displacing   3/coordinate 1 (+)>>>
             <<<Displacing   1/coordinate 3 (+)>>>
             <<<Displacing   2/coordinate 1 (+)>>>
             <<<Displacing   2/coordinate 3 (+)>>>
             <<<Displacing   1/coordinate 2 (+)>>>
             <<<Displacing   1/coordinate 1 (+)>>>
             <<<Displacing   1/coordinate 3 (-)>>>
             <<<Displacing   3/coordinate 1 (-)>>>
             <<<Displacing   2/coordinate 3 (-)>>>
             <<<Displacing   1/coordinate 2 (-)>>>
             <<<Displacing   2/coordinate 2 (-)>>>
             <<<Displacing   1/coordinate 1 (-)>>>
             <<<Displacing   2/coordinate 1 (-)>>>
             <<<Displacing   3/coordinate 2 (-)>>>
             <<<Displacing   4/coordinate 2 (+)>>>
             <<<Displacing   3/coordinate 3 (+)>>>
             <<<Displacing   5/coordinate 3 (+)>>>
             <<<Displacing   5/coordinate 2 (+)>>>
             <<<Displacing   4/coordinate 2 (-)>>>
             <<<Displacing   3/coordinate 3 (-)>>>
             <<<Displacing   5/coordinate 3 (-)>>>
             <<<Displacing   5/coordinate 2 (-)>>>
             <<<Displacing   4/coordinate 1 (+)>>>
             <<<Displacing   5/coordinate 1 (+)>>>
             <<<Displacing   4/coordinate 3 (+)>>>
             <<<Displacing   6/coordinate 1 (+)>>>
             <<<Displacing   4/coordinate 1 (-)>>>
             <<<Displacing   5/coordinate 1 (-)>>>
             <<<Displacing   4/coordinate 3 (-)>>>
             <<<Displacing   6/coordinate 1 (-)>>>
             <<<Displacing   7/coordinate 1 (+)>>>
             <<<Displacing   6/coordinate 3 (+)>>>
             <<<Displacing   6/coordinate 2 (+)>>>
             <<<Displacing   7/coordinate 2 (+)>>>
             <<<Displacing   6/coordinate 3 (-)>>>
             <<<Displacing   7/coordinate 1 (-)>>>
             <<<Displacing   6/coordinate 2 (-)>>>
             <<<Displacing   7/coordinate 2 (-)>>>
             <<<Displacing   7/coordinate 3 (+)>>>
             <<<Displacing   7/coordinate 3 (-)>>>
             <<<Displacing   8/coordinate 1 (+)>>>
             <<<Displacing   8/coordinate 2 (+)>>>
             <<<Displacing   8/coordinate 3 (+)>>>
             <<<Displacing   8/coordinate 2 (-)>>>
             <<<Displacing   8/coordinate 1 (-)>>>
             <<<Displacing   8/coordinate 3 (-)>>>
             <<<Displacing   9/coordinate 1 (+)>>>
             <<<Displacing   9/coordinate 2 (+)>>>
             <<<Displacing   9/coordinate 3 (+)>>>
             <<<Displacing  10/coordinate 1 (+)>>>
             <<<Displacing   9/coordinate 1 (-)>>>
             <<<Displacing   9/coordinate 2 (-)>>>
             <<<Displacing   9/coordinate 3 (-)>>>
             <<<Displacing  10/coordinate 1 (-)>>>
             <<<Displacing  10/coordinate 2 (+)>>>
             <<<Displacing  10/coordinate 2 (-)>>>
             <<<Displacing  11/coordinate 1 (+)>>>
             <<<Displacing  11/coordinate 2 (+)>>>
             <<<Displacing  10/coordinate 3 (+)>>>
             <<<Displacing  11/coordinate 1 (-)>>>
             <<<Displacing  11/coordinate 2 (-)>>>
             <<<Displacing  10/coordinate 3 (-)>>>
             <<<Displacing  11/coordinate 3 (+)>>>
             <<<Displacing  12/coordinate 1 (+)>>>
             <<<Displacing  12/coordinate 2 (+)>>>
             <<<Displacing  12/coordinate 3 (+)>>>
             <<<Displacing  11/coordinate 3 (-)>>>
             <<<Displacing  12/coordinate 1 (-)>>>
             <<<Displacing  12/coordinate 2 (-)>>>
             <<<Displacing  12/coordinate 3 (-)>>>
             <<<Displacing  13/coordinate 1 (+)>>>
             <<<Displacing  13/coordinate 1 (-)>>>
             <<<Displacing  13/coordinate 2 (+)>>>
             <<<Displacing  14/coordinate 1 (+)>>>
             <<<Displacing  13/coordinate 3 (+)>>>
             <<<Displacing  13/coordinate 2 (-)>>>
             <<<Displacing  14/coordinate 1 (-)>>>
             <<<Displacing  13/coordinate 3 (-)>>>
             <<<Displacing  14/coordinate 3 (+)>>>
             <<<Displacing  14/coordinate 2 (+)>>>
             <<<Displacing  15/coordinate 1 (+)>>>
             <<<Displacing  15/coordinate 2 (+)>>>
             <<<Displacing  14/coordinate 3 (-)>>>
             <<<Displacing  14/coordinate 2 (-)>>>
             <<<Displacing  15/coordinate 1 (-)>>>
             <<<Displacing  15/coordinate 2 (-)>>>
             <<<Displacing  15/coordinate 3 (+)>>>
             <<<Displacing  15/coordinate 3 (-)>>>
             <<<Displacing  16/coordinate 1 (+)>>>
             <<<Displacing  16/coordinate 2 (+)>>>
             <<<Displacing  16/coordinate 3 (+)>>>
             <<<Displacing  16/coordinate 1 (-)>>>
             <<<Displacing  16/coordinate 2 (-)>>>
             <<<Displacing  16/coordinate 3 (-)>>>
             <<<Displacing  17/coordinate 1 (+)>>>
             <<<Displacing  17/coordinate 1 (-)>>>
             <<<Displacing  17/coordinate 2 (+)>>>
             <<<Displacing  17/coordinate 3 (+)>>>
             <<<Displacing  18/coordinate 1 (+)>>>
             <<<Displacing  17/coordinate 2 (-)>>>
             <<<Displacing  18/coordinate 1 (-)>>>
             <<<Displacing  17/coordinate 3 (-)>>>
             <<<Displacing  18/coordinate 2 (+)>>>
             <<<Displacing  18/coordinate 2 (-)>>>
             <<<Displacing  18/coordinate 3 (+)>>>
             <<<Displacing  19/coordinate 1 (+)>>>
             <<<Displacing  18/coordinate 3 (-)>>>
             <<<Displacing  19/coordinate 2 (+)>>>
             <<<Displacing  19/coordinate 1 (-)>>>
             <<<Displacing  19/coordinate 2 (-)>>>
             <<<Displacing  19/coordinate 3 (+)>>>
             <<<Displacing  20/coordinate 2 (+)>>>
             <<<Displacing  20/coordinate 1 (+)>>>
             <<<Displacing  19/coordinate 3 (-)>>>
             <<<Displacing  20/coordinate 2 (-)>>>
             <<<Displacing  20/coordinate 1 (-)>>>
             <<<Displacing  20/coordinate 3 (+)>>>
             <<<Displacing  21/coordinate 1 (+)>>>
             <<<Displacing  21/coordinate 1 (-)>>>
             <<<Displacing  20/coordinate 3 (-)>>>
             <<<Displacing  21/coordinate 2 (+)>>>
             <<<Displacing  21/coordinate 3 (+)>>>
             <<<Displacing  21/coordinate 2 (-)>>>
             <<<Displacing  22/coordinate 1 (+)>>>
             <<<Displacing  21/coordinate 3 (-)>>>
             <<<Displacing  22/coordinate 1 (-)>>>
             <<<Displacing  22/coordinate 2 (+)>>>
             <<<Displacing  22/coordinate 2 (-)>>>
             <<<Displacing  22/coordinate 3 (+)>>>
             <<<Displacing  23/coordinate 1 (+)>>>
             <<<Displacing  22/coordinate 3 (-)>>>
             <<<Displacing  23/coordinate 1 (-)>>>
             <<<Displacing  23/coordinate 3 (+)>>>
             <<<Displacing  23/coordinate 2 (+)>>>
             <<<Displacing  23/coordinate 3 (-)>>>
             <<<Displacing  23/coordinate 2 (-)>>>
             <<<Displacing  24/coordinate 1 (+)>>>
             <<<Displacing  24/coordinate 1 (-)>>>
             <<<Displacing  24/coordinate 2 (+)>>>
             <<<Displacing  24/coordinate 3 (+)>>>
             <<<Displacing  24/coordinate 2 (-)>>>
             <<<Displacing  24/coordinate 3 (-)>>>
             <<<Displacing  25/coordinate 1 (+)>>>
             <<<Displacing  25/coordinate 3 (+)>>>
             <<<Displacing  25/coordinate 2 (+)>>>
             <<<Displacing  25/coordinate 1 (-)>>>
             <<<Displacing  25/coordinate 3 (-)>>>
             <<<Displacing  25/coordinate 2 (-)>>>
             <<<Displacing  26/coordinate 1 (+)>>>
             <<<Displacing  26/coordinate 2 (+)>>>
             <<<Displacing  26/coordinate 1 (-)>>>
             <<<Displacing  26/coordinate 2 (-)>>>
             <<<Displacing  26/coordinate 3 (+)>>>
             <<<Displacing  26/coordinate 3 (-)>>>
             <<<Displacing  27/coordinate 1 (+)>>>
             <<<Displacing  27/coordinate 2 (+)>>>
             <<<Displacing  27/coordinate 1 (-)>>>
             <<<Displacing  27/coordinate 2 (-)>>>
             <<<Displacing  27/coordinate 3 (+)>>>
             <<<Displacing  27/coordinate 3 (-)>>>
             <<<Displacing  28/coordinate 1 (+)>>>
             <<<Displacing  28/coordinate 2 (+)>>>
             <<<Displacing  28/coordinate 3 (+)>>>
             <<<Displacing  28/coordinate 1 (-)>>>
             <<<Displacing  29/coordinate 1 (+)>>>
             <<<Displacing  28/coordinate 2 (-)>>>
             <<<Displacing  29/coordinate 2 (+)>>>
             <<<Displacing  29/coordinate 1 (-)>>>
             <<<Displacing  28/coordinate 3 (-)>>>
             <<<Displacing  29/coordinate 2 (-)>>>
             <<<Displacing  29/coordinate 3 (+)>>>
             <<<Displacing  30/coordinate 1 (+)>>>
             <<<Displacing  29/coordinate 3 (-)>>>
             <<<Displacing  30/coordinate 1 (-)>>>
             <<<Displacing  30/coordinate 2 (+)>>>
             <<<Displacing  30/coordinate 2 (-)>>>
             <<<Displacing  30/coordinate 3 (+)>>>
             <<<Displacing  31/coordinate 1 (+)>>>
             <<<Displacing  31/coordinate 2 (+)>>>
             <<<Displacing  30/coordinate 3 (-)>>>
             <<<Displacing  31/coordinate 1 (-)>>>
             <<<Displacing  31/coordinate 3 (+)>>>
             <<<Displacing  31/coordinate 2 (-)>>>
             <<<Displacing  32/coordinate 1 (+)>>>
             <<<Displacing  31/coordinate 3 (-)>>>
             <<<Displacing  32/coordinate 1 (-)>>>
             <<<Displacing  32/coordinate 2 (+)>>>
             <<<Displacing  32/coordinate 3 (+)>>>
             <<<Displacing  32/coordinate 2 (-)>>>
             <<<Displacing  32/coordinate 3 (-)>>>
             <<<Displacing  33/coordinate 1 (+)>>>
             <<<Displacing  33/coordinate 1 (-)>>>
             <<<Displacing  33/coordinate 2 (+)>>>
             <<<Displacing  33/coordinate 3 (+)>>>
             <<<Displacing  33/coordinate 2 (-)>>>
             <<<Displacing  33/coordinate 3 (-)>>>

-----------------------
VIBRATIONAL FREQUENCIES
-----------------------

Scaling factor for frequencies =  1.000000000 (already applied!)

   0:         0.00 cm**-1
   1:         0.00 cm**-1
   2:         0.00 cm**-1
   3:         0.00 cm**-1
   4:         0.00 cm**-1
   5:         0.00 cm**-1
   6:      -811.58 cm**-1 ***imaginary mode***
   7:        69.99 cm**-1
   8:        97.58 cm**-1
   9:       102.63 cm**-1
  10:       105.21 cm**-1
  11:       144.94 cm**-1
  12:       170.87 cm**-1
  13:       183.68 cm**-1
  14:       199.25 cm**-1
  15:       231.82 cm**-1
  16:       245.05 cm**-1
  17:       266.76 cm**-1
  18:       357.48 cm**-1
  19:       359.98 cm**-1
  20:       384.21 cm**-1
  21:       402.38 cm**-1
  22:       408.08 cm**-1
  23:       478.35 cm**-1
  24:       518.43 cm**-1
  25:       589.70 cm**-1
  26:       596.40 cm**-1
  27:       605.45 cm**-1
  28:       642.62 cm**-1
  29:       670.03 cm**-1
  30:       683.14 cm**-1
  31:       740.59 cm**-1
  32:       762.07 cm**-1
  33:       791.88 cm**-1
  34:       804.12 cm**-1
  35:       827.29 cm**-1
  36:       859.10 cm**-1
  37:       902.65 cm**-1
  38:       921.90 cm**-1
  39:       928.75 cm**-1
  40:       950.64 cm**-1
  41:       951.46 cm**-1
  42:       954.53 cm**-1
  43:       966.35 cm**-1
  44:       971.56 cm**-1
  45:       999.29 cm**-1
  46:      1052.13 cm**-1
  47:      1054.92 cm**-1
  48:      1071.37 cm**-1
  49:      1086.86 cm**-1
  50:      1104.48 cm**-1
  51:      1120.24 cm**-1
  52:      1126.86 cm**-1
  53:      1176.19 cm**-1
  54:      1185.91 cm**-1
  55:      1193.78 cm**-1
  56:      1201.68 cm**-1
  57:      1212.39 cm**-1
  58:      1233.71 cm**-1
  59:      1241.92 cm**-1
  60:      1251.01 cm**-1
  61:      1272.59 cm**-1
  62:      1279.77 cm**-1
  63:      1284.38 cm**-1
  64:      1290.93 cm**-1
  65:      1314.43 cm**-1
  66:      1341.39 cm**-1
  67:      1344.47 cm**-1
  68:      1371.92 cm**-1
  69:      1393.85 cm**-1
  70:      1410.82 cm**-1
  71:      1434.93 cm**-1
  72:      1442.95 cm**-1
  73:      1467.15 cm**-1
  74:      1498.47 cm**-1
  75:      1506.01 cm**-1
  76:      1511.58 cm**-1
  77:      1514.07 cm**-1
  78:      1534.00 cm**-1
  79:      1536.67 cm**-1
  80:      1540.37 cm**-1
  81:      1906.64 cm**-1
  82:      2848.71 cm**-1
  83:      2878.94 cm**-1
  84:      2889.17 cm**-1
  85:      2903.42 cm**-1
  86:      2911.76 cm**-1
  87:      2915.22 cm**-1
  88:      2922.14 cm**-1
  89:      2933.95 cm**-1
  90:      2934.46 cm**-1
  91:      2960.94 cm**-1
  92:      2971.14 cm**-1
  93:      2984.51 cm**-1
  94:      2989.40 cm**-1
  95:      2999.26 cm**-1
  96:      3016.63 cm**-1
  97:      3247.85 cm**-1
  98:      3459.53 cm**-1


------------
NORMAL MODES
------------

These modes are the cartesian displacements weighted by the diagonal matrix
M(i,i)=1/sqrt(m[i]) where m[i] is the mass of the displaced atom
Thus, these vectors are normalized but *not* orthogonal

                  0          1          2          3          4          5    
      0       0.000000   0.000000   0.000000   0.000000   0.000000   0.000000
      1       0.000000   0.000000   0.000000   0.000000   0.000000   0.000000
      2       0.000000   0.000000   0.000000   0.000000   0.000000   0.000000
      3       0.000000   0.000000   0.000000   0.000000   0.000000   0.000000
      4       0.000000   0.000000   0.000000   0.000000   0.000000   0.000000
      5       0.000000   0.000000   0.000000   0.000000   0.000000   0.000000
      6       0.000000   0.000000   0.000000   0.000000   0.000000   0.000000
      7       0.000000   0.000000   0.000000   0.000000   0.000000   0.000000
      8       0.000000   0.000000   0.000000   0.000000   0.000000   0.000000
      9       0.000000   0.000000   0.000000   0.000000   0.000000   0.000000
     10       0.000000   0.000000   0.000000   0.000000   0.000000   0.000000
     11       0.000000   0.000000   0.000000   0.000000   0.000000   0.000000
     12       0.000000   0.000000   0.000000   0.000000   0.000000   0.000000
     13       0.000000   0.000000   0.000000   0.000000   0.000000   0.000000
     14       0.000000   0.000000   0.000000   0.000000   0.000000   0.000000
     15       0.000000   0.000000   0.000000   0.000000   0.000000   0.000000
     16       0.000000   0.000000   0.000000   0.000000   0.000000   0.000000
     17       0.000000   0.000000   0.000000   0.000000   0.000000   0.000000
     18       0.000000   0.000000   0.000000   0.000000   0.000000   0.000000
     19       0.000000   0.000000   0.000000   0.000000   0.000000   0.000000
     20       0.000000   0.000000   0.000000   0.000000   0.000000   0.000000
     21       0.000000   0.000000   0.000000   0.000000   0.000000   0.000000
     22       0.000000   0.000000   0.000000   0.000000   0.000000   0.000000
     23       0.000000   0.000000   0.000000   0.000000   0.000000   0.000000
     24       0.000000   0.000000   0.000000   0.000000   0.000000   0.000000
     25       0.000000   0.000000   0.000000   0.000000   0.000000   0.000000
     26       0.000000   0.000000   0.000000   0.000000   0.000000   0.000000
     27       0.000000   0.000000   0.000000   0.000000   0.000000   0.000000
     28       0.000000   0.000000   0.000000   0.000000   0.000000   0.000000
     29       0.000000   0.000000   0.000000   0.000000   0.000000   0.000000
     30       0.000000   0.000000   0.000000   0.000000   0.000000   0.000000
     31       0.000000   0.000000   0.000000   0.000000   0.000000   0.000000
     32       0.000000   0.000000   0.000000   0.000000   0.000000   0.000000
     33       0.000000   0.000000   0.000000   0.000000   0.000000   0.000000
     34       0.000000   0.000000   0.000000   0.000000   0.000000   0.000000
     35       0.000000   0.000000   0.000000   0.000000   0.000000   0.000000
     36       0.000000   0.000000   0.000000   0.000000   0.000000   0.000000
     37       0.000000   0.000000   0.000000   0.000000   0.000000   0.000000
     38       0.000000   0.000000   0.000000   0.000000   0.000000   0.000000
     39       0.000000   0.000000   0.000000   0.000000   0.000000   0.000000
     40       0.000000   0.000000   0.000000   0.000000   0.000000   0.000000
     41       0.000000   0.000000   0.000000   0.000000   0.000000   0.000000
     42       0.000000   0.000000   0.000000   0.000000   0.000000   0.000000
     43       0.000000   0.000000   0.000000   0.000000   0.000000   0.000000
     44       0.000000   0.000000   0.000000   0.000000   0.000000   0.000000
     45       0.000000   0.000000   0.000000   0.000000   0.000000   0.000000
     46       0.000000   0.000000   0.000000   0.000000   0.000000   0.000000
     47       0.000000   0.000000   0.000000   0.000000   0.000000   0.000000
     48       0.000000   0.000000   0.000000   0.000000   0.000000   0.000000
     49       0.000000   0.000000   0.000000   0.000000   0.000000   0.000000
     50       0.000000   0.000000   0.000000   0.000000   0.000000   0.000000
     51       0.000000   0.000000   0.000000   0.000000   0.000000   0.000000
     52       0.000000   0.000000   0.000000   0.000000   0.000000   0.000000
     53       0.000000   0.000000   0.000000   0.000000   0.000000   0.000000
     54       0.000000   0.000000   0.000000   0.000000   0.000000   0.000000
     55       0.000000   0.000000   0.000000   0.000000   0.000000   0.000000
     56       0.000000   0.000000   0.000000   0.000000   0.000000   0.000000
     57       0.000000   0.000000   0.000000   0.000000   0.000000   0.000000
     58       0.000000   0.000000   0.000000   0.000000   0.000000   0.000000
     59       0.000000   0.000000   0.000000   0.000000   0.000000   0.000000
     60       0.000000   0.000000   0.000000   0.000000   0.000000   0.000000
     61       0.000000   0.000000   0.000000   0.000000   0.000000   0.000000
     62       0.000000   0.000000   0.000000   0.000000   0.000000   0.000000
     63       0.000000   0.000000   0.000000   0.000000   0.000000   0.000000
     64       0.000000   0.000000   0.000000   0.000000   0.000000   0.000000
     65       0.000000   0.000000   0.000000   0.000000   0.000000   0.000000
     66       0.000000   0.000000   0.000000   0.000000   0.000000   0.000000
     67       0.000000   0.000000   0.000000   0.000000   0.000000   0.000000
     68       0.000000   0.000000   0.000000   0.000000   0.000000   0.000000
     69       0.000000   0.000000   0.000000   0.000000   0.000000   0.000000
     70       0.000000   0.000000   0.000000   0.000000   0.000000   0.000000
     71       0.000000   0.000000   0.000000   0.000000   0.000000   0.000000
     72       0.000000   0.000000   0.000000   0.000000   0.000000   0.000000
     73       0.000000   0.000000   0.000000   0.000000   0.000000   0.000000
     74       0.000000   0.000000   0.000000   0.000000   0.000000   0.000000
     75       0.000000   0.000000   0.000000   0.000000   0.000000   0.000000
     76       0.000000   0.000000   0.000000   0.000000   0.000000   0.000000
     77       0.000000   0.000000   0.000000   0.000000   0.000000   0.000000
     78       0.000000   0.000000   0.000000   0.000000   0.000000   0.000000
     79       0.000000   0.000000   0.000000   0.000000   0.000000   0.000000
     80       0.000000   0.000000   0.000000   0.000000   0.000000   0.000000
     81       0.000000   0.000000   0.000000   0.000000   0.000000   0.000000
     82       0.000000   0.000000   0.000000   0.000000   0.000000   0.000000
     83       0.000000   0.000000   0.000000   0.000000   0.000000   0.000000
     84       0.000000   0.000000   0.000000   0.000000   0.000000   0.000000
     85       0.000000   0.000000   0.000000   0.000000   0.000000   0.000000
     86       0.000000   0.000000   0.000000   0.000000   0.000000   0.000000
     87       0.000000   0.000000   0.000000   0.000000   0.000000   0.000000
     88       0.000000   0.000000   0.000000   0.000000   0.000000   0.000000
     89       0.000000   0.000000   0.000000   0.000000   0.000000   0.000000
     90       0.000000   0.000000   0.000000   0.000000   0.000000   0.000000
     91       0.000000   0.000000   0.000000   0.000000   0.000000   0.000000
     92       0.000000   0.000000   0.000000   0.000000   0.000000   0.000000
     93       0.000000   0.000000   0.000000   0.000000   0.000000   0.000000
     94       0.000000   0.000000   0.000000   0.000000   0.000000   0.000000
     95       0.000000   0.000000   0.000000   0.000000   0.000000   0.000000
     96       0.000000   0.000000   0.000000   0.000000   0.000000   0.000000
     97       0.000000   0.000000   0.000000   0.000000   0.000000   0.000000
     98       0.000000   0.000000   0.000000   0.000000   0.000000   0.000000
                  6          7          8          9         10         11    
      0      -0.000116   0.167183   0.031999  -0.074687   0.072297  -0.066077
      1       0.000015  -0.023186   0.052396  -0.169262   0.127582  -0.078195
      2       0.000558  -0.080005  -0.005089  -0.001489   0.082323   0.007007
      3       0.000394   0.092405  -0.016373  -0.067265   0.081093   0.023121
      4      -0.001050   0.007385   0.022673  -0.110463   0.180256   0.045468
      5       0.001260  -0.104230  -0.034431   0.016756   0.100788   0.078803
      6       0.001143   0.024922  -0.058526  -0.017862  -0.011407   0.076788
      7      -0.000910   0.009730  -0.011600   0.012800   0.020919   0.108331
      8       0.000340  -0.048272  -0.031173   0.086401   0.030546   0.091306
      9       0.000350   0.040104  -0.048466   0.018258  -0.111783   0.050239
     10       0.000798  -0.016474  -0.013138   0.072414  -0.195839   0.070131
     11      -0.002475   0.031338   0.003821   0.145287  -0.057146   0.052526
     12       0.000729   0.115599   0.001142   0.006335  -0.118054  -0.041423
     13      -0.000445  -0.047231   0.019308   0.006656  -0.240047  -0.056865
     14      -0.001095   0.054560   0.034156   0.122761  -0.071523  -0.022194
     15      -0.000160   0.179316   0.041070  -0.040246  -0.026604  -0.105746
     16       0.000198  -0.050971   0.050884  -0.115767  -0.079228  -0.144865
     17      -0.000224  -0.001293   0.029433   0.051011  -0.001926  -0.049056
     18       0.001021   0.083693  -0.023197  -0.095297   0.153866   0.045187
     19       0.002335   0.030224   0.023420  -0.156996   0.327839   0.075058
     20       0.003655  -0.163220  -0.059806  -0.020553   0.162245   0.117273
     21      -0.003765  -0.005453  -0.079123   0.047452  -0.180794   0.086798
     22       0.012966  -0.014049  -0.039172   0.155591  -0.325439   0.124176
     23       0.012122   0.070322   0.005910   0.194291  -0.117321   0.071195
     24      -0.000155   0.235413   0.077439  -0.048115  -0.031559  -0.178192
     25       0.002184  -0.074711   0.071806  -0.164488  -0.116606  -0.252189
     26      -0.000151   0.016673   0.051248   0.033848  -0.014536  -0.110862
     27      -0.054137  -0.082549   0.004938  -0.013560   0.016813   0.057014
     28      -0.004039   0.079323  -0.120214   0.010314   0.021646   0.117846
     29      -0.032546  -0.071305  -0.083715  -0.012790   0.019711  -0.090795
     30      -0.425775  -0.075349   0.061718   0.047977   0.061275   0.009214
     31       0.158690   0.080394  -0.060671   0.047942   0.058451   0.078170
     32      -0.257097  -0.114715   0.010155  -0.129540  -0.004959  -0.068462
     33      -0.013347  -0.025832  -0.022692  -0.016320   0.011602  -0.009753
     34      -0.005890   0.035399  -0.159339  -0.052294  -0.015009   0.017945
     35       0.004941  -0.011572  -0.124709  -0.032844   0.004978  -0.195579
     36      -0.027546   0.002664  -0.040315  -0.019108   0.035365   0.017558
     37      -0.003716   0.026417  -0.149627  -0.047821  -0.021628   0.015548
     38       0.029591  -0.009649  -0.188104  -0.084325  -0.005390  -0.304727
     39       0.015414   0.029823  -0.038811  -0.030027  -0.006480  -0.078430
     40       0.011814   0.030555  -0.218303  -0.094625  -0.009323  -0.061966
     41      -0.009832  -0.034832  -0.107458  -0.020001   0.011888  -0.151685
     42      -0.097049  -0.128867   0.052327  -0.018768   0.020471   0.140139
     43       0.088245   0.105831  -0.182287   0.076878   0.021203   0.201666
     44      -0.020151  -0.052428  -0.103074  -0.009568   0.018121  -0.119570
     45       0.157431  -0.082529   0.028146   0.268059   0.161496  -0.200148
     46       0.080178   0.061457   0.065784   0.019763   0.088345  -0.008956
     47       0.112433  -0.126628   0.168167  -0.415852  -0.087437   0.059224
     48       0.003529  -0.096813  -0.064467   0.062379   0.045240  -0.046085
     49      -0.774535   0.067716   0.082750   0.057163   0.110202  -0.039842
     50      -0.206847  -0.055258   0.090992  -0.114538   0.004088   0.070085
     51       0.064977  -0.061262  -0.112980  -0.041795  -0.019619   0.070226
     52       0.033900   0.064434  -0.035855   0.016095   0.050580   0.078329
     53       0.046689  -0.070488  -0.064416   0.069399   0.031805   0.075442
     54      -0.039310  -0.053864  -0.194206  -0.053695  -0.040470   0.067872
     55      -0.002320   0.091747  -0.077576   0.001554   0.040330   0.063453
     56      -0.031695  -0.123003  -0.128764   0.072927   0.009373   0.110107
     57      -0.020187  -0.117228  -0.153468  -0.077052  -0.034143   0.030404
     58      -0.007179   0.058308   0.064615  -0.018022   0.075993  -0.008681
     59      -0.028751  -0.025720   0.007127   0.083464   0.052204   0.076340
     60      -0.001843  -0.075581   0.009275   0.004535  -0.001192  -0.028384
     61       0.000003  -0.001663  -0.110395  -0.021622  -0.035494  -0.000246
     62       0.001238   0.085707  -0.086276  -0.026869  -0.014937  -0.154670
     63       0.003330  -0.112673   0.072994   0.043963  -0.016609  -0.046992
     64      -0.002554   0.009193  -0.127001  -0.032379  -0.030884   0.005790
     65       0.001573   0.107671  -0.164951  -0.058796  -0.009762  -0.155855
     66      -0.002899  -0.120861  -0.080799  -0.018024   0.020484  -0.078067
     67       0.000957   0.020607  -0.138384  -0.031596  -0.040634   0.002741
     68       0.001471   0.098836  -0.047100  -0.016943  -0.022266  -0.135167
     69       0.055897  -0.075836   0.053971   0.189390   0.129196  -0.122645
     70       0.016755   0.083499   0.044882   0.125432   0.124185  -0.018661
     71       0.040964  -0.107083   0.156012  -0.344564  -0.064257   0.066889
     72      -0.001236  -0.015305   0.086915   0.009118  -0.018769   0.060184
     73       0.000235  -0.090102   0.027293   0.063369  -0.045418  -0.065225
     74       0.000848   0.136602   0.027411  -0.006342  -0.037485  -0.069221
     75      -0.000877   0.024029   0.200136   0.030278  -0.035475   0.159024
     76       0.000615  -0.100892   0.005638   0.067180  -0.055699  -0.140054
     77       0.000305   0.123092  -0.012526  -0.015133  -0.029387  -0.094767
     78      -0.002053   0.032003  -0.028138  -0.048452  -0.020432   0.053757
     79       0.000747  -0.104530   0.061800   0.080512  -0.044042  -0.061142
     80       0.000335   0.121602   0.078593   0.022810  -0.053072  -0.111254
     81       0.001502   0.124966   0.007960   0.030717  -0.190859  -0.065805
     82       0.001073  -0.067670   0.018606   0.047235  -0.393355  -0.092882
     83      -0.002313   0.114509   0.059501   0.158174  -0.134860  -0.062830
     84       0.000214   0.213693   0.061041  -0.104337   0.137473  -0.104439
     85       0.001236  -0.024806   0.074733  -0.254509   0.237476  -0.130241
     86       0.000373  -0.120376  -0.008583  -0.055572   0.129668  -0.009079
     87      -0.000306  -0.072469   0.167482   0.060042  -0.011000   0.037521
     88       0.000364  -0.141614   0.154967   0.126587  -0.038158  -0.046714
     89       0.000273   0.219927   0.124503  -0.017699  -0.049235   0.131034
     90      -0.000319  -0.031628   0.189419   0.048071  -0.020276   0.108277
     91       0.001018  -0.194283   0.207878   0.171004  -0.035936  -0.105483
     92       0.000194   0.250728   0.160651  -0.019779  -0.058588   0.192365
     93       0.000209  -0.115462   0.270046   0.112260  -0.006051   0.045271
     94       0.000134  -0.130126   0.124865   0.112134  -0.040033  -0.052566
     95       0.000346   0.231196   0.136514  -0.023828  -0.042602   0.183681
     96      -0.000158  -0.109207   0.098918   0.055214  -0.000705  -0.057863
     97       0.000759  -0.136049   0.221707   0.140704  -0.032813   0.031953
     98       0.000267   0.234774   0.143135  -0.017938  -0.054511   0.159284
                 12         13         14         15         16         17    
      0      -0.018898   0.006895   0.013611   0.058187  -0.002841   0.043574
      1      -0.009638   0.019554   0.001624   0.008476  -0.003154   0.036495
      2       0.001466   0.014198  -0.039225  -0.057038   0.003628  -0.058267
      3      -0.015007   0.010245   0.001336  -0.051053   0.079702   0.108460
      4       0.014539   0.028362   0.080352   0.115613  -0.020353   0.195764
      5       0.008968   0.018109  -0.020412  -0.066702   0.034448   0.022026
      6      -0.015685   0.004591  -0.025705  -0.130740   0.109893   0.040726
      7       0.019148   0.017029   0.088706   0.115879  -0.026271   0.116281
      8       0.013743   0.012344   0.010096  -0.004904   0.007913   0.017983
      9      -0.019632  -0.000399  -0.025715  -0.119338   0.111944   0.080520
     10       0.006574   0.006614   0.064646   0.065324   0.018805   0.197342
     11       0.022451   0.008475   0.042395   0.104462  -0.070280   0.033271
     12      -0.023718  -0.004082  -0.015492  -0.022641   0.036418   0.019322
     13      -0.016440  -0.002544  -0.017301  -0.053851   0.037897   0.038679
     14       0.014802   0.004651   0.026233   0.126211  -0.107451  -0.042653
     15      -0.025376  -0.002304  -0.004484   0.050263  -0.020824  -0.047220
     16      -0.029979   0.000514  -0.062256  -0.089998   0.016861  -0.141823
     17       0.003831   0.005925  -0.023112   0.035171  -0.080367  -0.150765
     18      -0.011405   0.015075   0.009469  -0.050280   0.088807   0.145653
     19       0.023275   0.038270   0.117944   0.175082  -0.029036   0.285861
     20       0.009878   0.022118  -0.039929  -0.143482   0.080399   0.035088
     21      -0.024925  -0.003604  -0.039843  -0.187564   0.173293   0.122985
     22       0.010737   0.002289   0.093536   0.099862   0.025276   0.268103
     23       0.030555   0.007233   0.079858   0.189399  -0.113163   0.064022
     24      -0.029362  -0.006863  -0.005684   0.104423  -0.078896  -0.141340
     25      -0.053155  -0.009860  -0.134638  -0.177791   0.018339  -0.355031
     26      -0.004439   0.001020  -0.043941   0.034094  -0.105058  -0.251310
     27       0.002383  -0.003909  -0.027789   0.021717  -0.013775   0.006049
     28      -0.019405   0.006506   0.058082  -0.014309   0.026591  -0.129813
     29      -0.084016  -0.016839  -0.023530   0.049310   0.014151   0.007083
     30       0.005119  -0.012734  -0.050443   0.030920   0.011896   0.042558
     31      -0.012176  -0.000240   0.049545  -0.010815   0.031225  -0.114481
     32      -0.079172  -0.031954  -0.134377   0.073101   0.004845   0.100320
     33       0.025863   0.014858   0.127037  -0.086430  -0.085149  -0.007802
     34      -0.043591   0.007664  -0.039688  -0.130523  -0.185472   0.028718
     35      -0.075932   0.003023   0.124777  -0.078047  -0.066232   0.062553
     36      -0.120666   0.080495   0.228815  -0.137659  -0.082572  -0.027576
     37       0.011775  -0.017894  -0.077091  -0.099518  -0.168406   0.028368
     38      -0.242357   0.094771   0.229600  -0.333227  -0.360817   0.187948
     39       0.088383   0.011923   0.214683  -0.171710  -0.129933   0.035386
     40      -0.267514   0.116614   0.076510  -0.366215  -0.445360   0.125917
     41      -0.066406  -0.013089   0.067058  -0.003124  -0.005052   0.027605
     42      -0.000295  -0.017246  -0.161798   0.100860   0.031873   0.005843
     43       0.007855   0.020196   0.130317  -0.027657   0.077568  -0.269612
     44      -0.082102  -0.011116   0.030490   0.017983  -0.000714   0.002308
     45      -0.061443  -0.040601  -0.213735   0.053443  -0.047952   0.181079
     46      -0.007098  -0.023778  -0.009766   0.003228   0.046495  -0.134131
     47       0.013346  -0.024587  -0.019742   0.060211  -0.010240   0.031368
     48      -0.073105  -0.019393  -0.100427   0.132119   0.013840  -0.007029
     49      -0.009116  -0.031904  -0.071729  -0.006059   0.051181   0.014683
     50       0.033224  -0.011534  -0.033621  -0.124068   0.048092   0.033951
     51      -0.048075  -0.000388  -0.028310   0.003056   0.062826  -0.060592
     52      -0.007363  -0.000862   0.057233   0.028668   0.021545  -0.076984
     53      -0.013977   0.003662   0.000095   0.022740   0.026877  -0.054494
     54      -0.077510  -0.000180  -0.032036   0.011280   0.078918  -0.107355
     55      -0.024756  -0.004655   0.046427  -0.036974   0.054291  -0.121453
     56      -0.034595   0.015929   0.024949   0.195240  -0.022467  -0.041656
     57      -0.102626  -0.008177  -0.037862   0.254916   0.021879  -0.123758
     58      -0.010918  -0.025072  -0.004695   0.027975   0.037316  -0.105889
     59       0.030998   0.001537  -0.021121  -0.187928   0.058648   0.018973
     60       0.154302  -0.039821   0.062212  -0.021539  -0.068386  -0.032039
     61       0.165920  -0.085256  -0.154094  -0.007878  -0.097655   0.020317
     62       0.126503  -0.074416   0.095234   0.035618   0.127423   0.031586
     63       0.262080  -0.055197   0.010134   0.072259   0.032795  -0.052155
     64       0.118407  -0.066078  -0.133937  -0.041336  -0.131132   0.026315
     65       0.354798  -0.348360   0.057736   0.105477   0.187410   0.029659
     66       0.148096  -0.152090   0.114887  -0.061527  -0.125500  -0.004909
     67       0.423410  -0.320992  -0.212835   0.104891   0.019721   0.006336
     68       0.084325   0.007796   0.083009   0.032135   0.127989   0.024008
     69      -0.026497  -0.031183  -0.157332   0.029438  -0.029757   0.155684
     70      -0.002808  -0.022372  -0.025319  -0.055050   0.063078  -0.125384
     71       0.023904  -0.021476  -0.020942   0.007211   0.007101   0.032709
     72       0.112184   0.088188  -0.005567  -0.027091  -0.111997  -0.078994
     73       0.057306   0.126770  -0.106774   0.030409   0.013277   0.025906
     74       0.047926   0.112198   0.009891   0.045822   0.116869   0.003905
     75       0.010312   0.172139  -0.076479  -0.034521  -0.162534  -0.096260
     76       0.132563   0.452585  -0.168649   0.078828   0.089957   0.001263
     77       0.074372   0.027507   0.046308   0.040820   0.123131   0.014720
     78       0.240981   0.173349  -0.116808  -0.019258  -0.162024  -0.085703
     79       0.015402   0.082943  -0.067229   0.025582   0.026287   0.029094
     80       0.049478   0.446939  -0.047557   0.090841   0.190346  -0.021273
     81      -0.027359  -0.009241  -0.021123  -0.020945   0.031270   0.010652
     82      -0.026401  -0.013118  -0.049786  -0.111611   0.058190   0.006513
     83       0.014718  -0.000155   0.048126   0.208322  -0.153260  -0.033062
     84      -0.016154   0.010204   0.031526   0.135994  -0.056856   0.033109
     85      -0.016362   0.024722  -0.015054   0.000654  -0.006340   0.017598
     86      -0.006972   0.016222  -0.069860  -0.129781   0.045717  -0.067434
     87       0.018101  -0.021113   0.160164  -0.041791  -0.045848  -0.095080
     88      -0.106482  -0.057562   0.067239   0.004221   0.064316   0.028026
     89      -0.102176  -0.054708  -0.125028  -0.002905  -0.070479   0.034548
     90      -0.009302   0.008635   0.047150  -0.040864  -0.114298  -0.081928
     91      -0.137400  -0.002490   0.190407   0.024285   0.181959  -0.008575
     92      -0.138941  -0.009796  -0.216129   0.002925  -0.115279   0.039876
     93      -0.105171  -0.134861   0.308195  -0.058931   0.008391  -0.110545
     94      -0.067037  -0.010936   0.023095   0.012262   0.054269   0.030134
     95      -0.162909  -0.256411  -0.096980  -0.048527  -0.148749   0.064827
     96       0.101481  -0.016026   0.250597  -0.036492   0.022613  -0.106234
     97      -0.230616  -0.291376   0.124263  -0.046923  -0.008543   0.052624
     98      -0.117975  -0.019070  -0.173219   0.003194  -0.088066   0.035527
                 18         19         20         21         22         23    
      0      -0.034021   0.000919  -0.070704   0.086065  -0.017369   0.036791
      1       0.021741  -0.005648  -0.025920   0.172214  -0.019571  -0.042316
      2       0.139279  -0.014885   0.061145   0.082961  -0.008789  -0.060374
      3       0.046581  -0.006763  -0.048058  -0.084926  -0.021820  -0.017859
      4       0.020000  -0.004948  -0.028730  -0.171832  -0.006933   0.020221
      5       0.151777  -0.016091   0.049760  -0.087137  -0.008679  -0.040686
      6       0.057683  -0.004960   0.047563   0.002081   0.010447  -0.039443
      7      -0.103872   0.011118   0.020456   0.002704   0.040890   0.097532
      8      -0.006978   0.000375  -0.007723   0.000377   0.007886   0.074152
      9       0.130022  -0.013669   0.018961   0.082502  -0.019045  -0.095762
     10       0.023720  -0.005066  -0.070218   0.167613  -0.024136   0.042563
     11       0.079790  -0.008551   0.043891   0.081247  -0.001192  -0.035326
     12       0.035986  -0.005030  -0.004475  -0.089996  -0.008550  -0.032839
     13       0.010534  -0.004477  -0.039769  -0.177294  -0.019320  -0.016083
     14       0.044152  -0.005281   0.055925  -0.089105   0.008583  -0.026107
     15      -0.110686   0.009697  -0.041437   0.003561   0.010443   0.078948
     16      -0.113450   0.009645   0.003742   0.008281   0.023376   0.054562
     17       0.046620  -0.004062   0.121377   0.001260   0.031494  -0.043096
     18       0.087745  -0.011417  -0.050273  -0.187098  -0.031200  -0.052725
     19       0.035253  -0.008164  -0.083988  -0.369174  -0.026937   0.015734
     20       0.269688  -0.027706   0.104488  -0.186768  -0.015596  -0.150511
     21       0.175880  -0.019084  -0.029854   0.180377  -0.045721  -0.118232
     22       0.105122  -0.013888  -0.104679   0.373198  -0.051049  -0.010394
     23       0.111554  -0.011719   0.049361   0.185295  -0.003830  -0.061033
     24      -0.211239   0.020192  -0.034039   0.008381   0.031407   0.111495
     25      -0.206538   0.020161   0.043440   0.012976   0.054199   0.078009
     26      -0.024939   0.003609   0.134387   0.004842   0.049044  -0.020785
     27      -0.069652   0.009962   0.079573   0.007397   0.067206   0.064245
     28      -0.154746   0.017500   0.080890   0.001134  -0.006366  -0.228400
     29      -0.061274   0.000265  -0.214410  -0.005045  -0.084590  -0.115068
     30      -0.050887   0.009610   0.106413   0.009233   0.081265   0.049667
     31      -0.123926   0.014080   0.049982  -0.000793   0.006820  -0.229488
     32      -0.031036   0.002260  -0.101069  -0.000732  -0.167029   0.005972
     33      -0.001944  -0.000459   0.102142   0.007365   0.171984   0.043883
     34      -0.004160   0.000038   0.139646   0.002108  -0.115413   0.091065
     35       0.028541  -0.011171  -0.127372  -0.002436   0.035179  -0.074937
     36      -0.053457   0.012162   0.187508   0.010733   0.222951  -0.022110
     37       0.000981  -0.002976   0.106516   0.000985  -0.130536   0.092130
     38       0.194564  -0.024837  -0.011240   0.000423   0.055207   0.210852
     39       0.073740  -0.008716   0.236280   0.011569   0.262194   0.166363
     40       0.113446  -0.006954   0.223809   0.004511  -0.091086   0.281700
     41      -0.023142  -0.006393  -0.197425  -0.004621  -0.009339  -0.154921
     42      -0.112631   0.019886   0.120706   0.010476  -0.026582   0.173785
     43      -0.172350   0.018766   0.045731   0.000339   0.081665  -0.192141
     44      -0.041509  -0.003847  -0.232169  -0.006287  -0.045135  -0.149400
     45      -0.056822   0.006453   0.017790  -0.000776  -0.130540  -0.023969
     46       0.211863  -0.020794  -0.057468  -0.001286   0.016616   0.156278
     47       0.026597   0.000977   0.068946   0.002566  -0.013541  -0.043678
     48       0.031366  -0.000476   0.017384   0.000925  -0.022372   0.078246
     49       0.024986   0.002953   0.150018   0.000950  -0.041099  -0.169183
     50      -0.128326   0.014761   0.018356   0.002951   0.007845   0.053059
     51      -0.021329   0.003516  -0.006277  -0.000996   0.027243   0.095254
     52      -0.084737   0.009484   0.006866  -0.001029   0.021151  -0.150885
     53      -0.118540   0.010601  -0.118030   0.001712  -0.003074   0.103512
     54      -0.107744   0.012152   0.005152  -0.003908  -0.011894  -0.078715
     55      -0.126046   0.012712  -0.001037  -0.004674  -0.010135  -0.310353
     56      -0.185991   0.019538  -0.077253   0.004734  -0.003311   0.152254
     57       0.082623  -0.005011   0.004321  -0.004805  -0.006353   0.092564
     58       0.123251  -0.010940  -0.006906  -0.002036   0.006212  -0.075859
     59      -0.194695   0.017904  -0.091395   0.005042   0.010055   0.123076
     60       0.020277  -0.013058  -0.109691  -0.000143   0.134550  -0.061993
     61       0.012065  -0.012302  -0.016413  -0.001972  -0.088899   0.033902
     62      -0.014802  -0.004234   0.107263   0.004053   0.025164   0.036214
     63       0.027597  -0.015411  -0.239337  -0.002909   0.220621  -0.149976
     64       0.010421  -0.008776   0.026946  -0.000791  -0.112604   0.061951
     65      -0.040557  -0.060749   0.111867   0.003101  -0.012158   0.042640
     66       0.030183  -0.046222  -0.192241  -0.000993   0.231414  -0.120038
     67      -0.013709  -0.057169  -0.013002  -0.003530  -0.112578   0.041560
     68      -0.014792   0.015609   0.136776   0.004520  -0.010356   0.056725
     69      -0.113505   0.015472   0.137882   0.003850  -0.031027  -0.104182
     70       0.163561  -0.016717  -0.084596  -0.002023   0.011571   0.216605
     71      -0.023988   0.006053   0.069233   0.002610   0.002245  -0.007894
     72       0.019806   0.010163  -0.124369  -0.005657  -0.072222  -0.052072
     73       0.023722   0.024153  -0.056849   0.000834   0.128615  -0.035930
     74      -0.017103   0.032005   0.134247   0.001825  -0.096946   0.073959
     75       0.020343   0.009172  -0.179843  -0.008641  -0.107296  -0.076013
     76       0.022422   0.060306  -0.047304   0.000540   0.118542  -0.043803
     77      -0.016894   0.025611   0.151284   0.003000  -0.078151   0.082663
     78       0.035459   0.023189  -0.178358  -0.007398  -0.096142  -0.066923
     79       0.017825   0.017778  -0.036231   0.001436   0.132041  -0.028486
     80      -0.020560   0.063966   0.126965   0.001219  -0.080750   0.050268
     81       0.045949  -0.006731  -0.016986  -0.190487  -0.017635  -0.054433
     82       0.085180  -0.012872  -0.026823  -0.379806  -0.036658  -0.117726
     83      -0.015257  -0.000600  -0.001790  -0.188351  -0.000907   0.024994
     84      -0.026886  -0.000170  -0.063255   0.178529  -0.020737   0.007592
     85       0.071389  -0.012074  -0.052186   0.358964  -0.047320  -0.105127
     86       0.180088  -0.019974   0.032724   0.178996  -0.031520  -0.097658
     87      -0.008139  -0.004141  -0.023628  -0.006277  -0.222141  -0.003501
     88      -0.007486  -0.002779   0.054500   0.002395   0.060615   0.016010
     89       0.006641  -0.005517  -0.043274   0.000374   0.081907  -0.014787
     90      -0.094293  -0.250394  -0.106068  -0.005129  -0.066513  -0.062658
     91      -0.211553  -0.393410   0.234575   0.003401  -0.141813   0.104589
     92      -0.133912  -0.361718  -0.088782   0.001833   0.200392  -0.056977
     93      -0.092612  -0.146727   0.096219  -0.006071  -0.368321   0.058916
     94      -0.000792   0.000152   0.026780   0.002454   0.097001   0.000859
     95       0.255857   0.532141  -0.137553  -0.001365   0.147193  -0.049708
     96       0.136827   0.371466   0.037773  -0.007927  -0.368253   0.050405
     97       0.160110   0.356978  -0.005592   0.001034   0.096663  -0.004604
     98      -0.082968  -0.225377  -0.059832   0.001310   0.139805  -0.034885
                 24         25         26         27         28         29    
      0       0.072912   0.077807   0.056775  -0.132028   0.044041   0.042581
      1       0.131491  -0.173348  -0.090430   0.058667  -0.027795   0.053284
      2       0.040398   0.272530   0.038635  -0.094637   0.042767   0.046666
      3      -0.040860  -0.302504   0.066115  -0.074820   0.039564  -0.015422
      4       0.002384   0.073577  -0.040359   0.118086  -0.049919  -0.077509
[...]
     17      -0.006626   0.000055   0.000014
     18       0.020150   0.000848  -0.000354
     19      -0.008037  -0.000161   0.000226
     20      -0.004701   0.000244  -0.000055
     21      -0.508752   0.000223  -0.002983
     22       0.554393   0.000064   0.001803
     23      -0.618595  -0.000077  -0.002130
     24      -0.029965   0.000514   0.000070
     25      -0.020464   0.000357   0.000201
     26       0.071055  -0.000967  -0.000463
     27       0.000073  -0.024099  -0.000246
     28       0.000017   0.001983  -0.000030
     29      -0.000035  -0.064849  -0.000130
     30       0.000272  -0.014351   0.007422
     31       0.000894   0.006592   0.002319
     32      -0.000615  -0.015233  -0.005197
     33      -0.000014  -0.000561  -0.000039
     34      -0.000048   0.000161   0.000126
     35       0.000117  -0.002387  -0.000097
     36       0.000354  -0.000574  -0.000840
     37       0.001001  -0.001257  -0.001126
     38       0.000115  -0.001051  -0.000002
     39      -0.000567   0.006770   0.000045
     40      -0.000313   0.004114   0.000473
     41      -0.001174   0.014031   0.001186
     42       0.000058   0.355355   0.002119
     43      -0.000560  -0.029372  -0.000169
     44       0.000528   0.931269   0.003623
     45       0.000390   0.000450  -0.141419
     46       0.002128   0.002083  -0.635498
     47      -0.003117  -0.003245   0.756328
     48      -0.001261  -0.001099   0.001452
     49       0.000468   0.001361  -0.000101
     50      -0.001054  -0.000632  -0.010018
     51       0.000284  -0.001249   0.000149
     52      -0.000295  -0.000519  -0.000124
     53       0.000271  -0.001052  -0.000115
     54      -0.000605  -0.000667  -0.000464
     55       0.001173   0.004166   0.000428
     56       0.000374   0.000752   0.000268
     57      -0.000236   0.000287  -0.000077
     58       0.000047  -0.000191   0.000042
     59      -0.000134   0.000290   0.000243
     60       0.000012  -0.000047  -0.000014
     61       0.000046  -0.000004   0.000006
     62      -0.000028   0.000324   0.000016
     63      -0.000207   0.000074   0.000029
     64      -0.000453  -0.000458  -0.000430
     65       0.000114  -0.000530  -0.000026
     66       0.000012   0.002061   0.000248
     67      -0.000036  -0.000801  -0.000026
     68       0.000250   0.000167   0.000298
     69      -0.000037   0.000395   0.008533
     70      -0.000203  -0.000414   0.039922
     71       0.000314   0.000404  -0.047057
     72       0.000000  -0.000061  -0.000001
     73      -0.000022   0.000080   0.000015
     74       0.000034  -0.000104  -0.000018
     75      -0.000164   0.000000   0.000006
     76      -0.000103   0.000272   0.000029
     77      -0.000429   0.001207   0.000179
     78       0.000145  -0.000373  -0.000119
     79       0.000416  -0.000849  -0.000187
     80       0.000055   0.000029   0.000015
     81      -0.172828   0.001376  -0.000099
     82       0.062416  -0.000435   0.000110
     83       0.047313  -0.000597  -0.000068
     84       0.019218  -0.000617  -0.000152
     85      -0.021201   0.000984   0.000228
     86       0.022656  -0.001167  -0.000238
     87      -0.000015   0.000023   0.000003
     88       0.000018  -0.000023   0.000002
     89       0.000006  -0.000023  -0.000000
     90       0.000253  -0.000881  -0.000063
     91       0.000079  -0.000033  -0.000010
     92      -0.000250   0.000629   0.000052
     93      -0.000094   0.000105   0.000009
     94      -0.000239   0.000370  -0.000068
     95       0.000022  -0.000016  -0.000001
     96       0.000040   0.000028   0.000038
     97       0.000020  -0.000006   0.000001
     98       0.000187   0.000015   0.000040


-----------
IR SPECTRUM  
-----------

 Mode    freq (cm**-1)   T**2         TX         TY         TZ
-------------------------------------------------------------------
   7:        69.99    0.000000  (  0.000000   0.000000   0.000000)
   8:        97.58    0.000000  (  0.000000   0.000000   0.000000)
   9:       102.63    0.000000  (  0.000000   0.000000   0.000000)
  10:       105.21    0.000000  (  0.000000   0.000000   0.000000)
  11:       144.94    0.000000  (  0.000000   0.000000   0.000000)
  12:       170.87    0.000000  (  0.000000   0.000000   0.000000)
  13:       183.68    0.000000  (  0.000000   0.000000   0.000000)
  14:       199.25    0.000000  (  0.000000   0.000000   0.000000)
  15:       231.82    0.000000  (  0.000000   0.000000   0.000000)
  16:       245.05    0.000000  (  0.000000   0.000000   0.000000)
  17:       266.76    0.000000  (  0.000000   0.000000   0.000000)
  18:       357.48    0.000000  (  0.000000   0.000000   0.000000)
  19:       359.98    0.000000  (  0.000000   0.000000   0.000000)
  20:       384.21    0.000000  (  0.000000   0.000000   0.000000)
  21:       402.38    0.000000  (  0.000000   0.000000   0.000000)
  22:       408.08    0.000000  (  0.000000   0.000000   0.000000)
  23:       478.35    0.000000  (  0.000000   0.000000   0.000000)
  24:       518.43    0.000000  (  0.000000   0.000000   0.000000)
  25:       589.70    0.000000  (  0.000000   0.000000   0.000000)
  26:       596.40    0.000000  (  0.000000   0.000000   0.000000)
  27:       605.45    0.000000  (  0.000000   0.000000   0.000000)
  28:       642.62    0.000000  (  0.000000   0.000000   0.000000)
  29:       670.03    0.000000  (  0.000000   0.000000   0.000000)
  30:       683.14    0.000000  (  0.000000   0.000000   0.000000)
  31:       740.59    0.000000  (  0.000000   0.000000   0.000000)
  32:       762.07    0.000000  (  0.000000   0.000000   0.000000)
  33:       791.88    0.000000  (  0.000000   0.000000   0.000000)
  34:       804.12    0.000000  (  0.000000   0.000000   0.000000)
  35:       827.29    0.000000  (  0.000000   0.000000   0.000000)
  36:       859.10    0.000000  (  0.000000   0.000000   0.000000)
  37:       902.65    0.000000  (  0.000000   0.000000   0.000000)
  38:       921.90    0.000000  (  0.000000   0.000000   0.000000)
  39:       928.75    0.000000  (  0.000000   0.000000   0.000000)
  40:       950.64    0.000000  (  0.000000   0.000000   0.000000)
  41:       951.46    0.000000  (  0.000000   0.000000   0.000000)
  42:       954.53    0.000000  (  0.000000   0.000000   0.000000)
  43:       966.35    0.000000  (  0.000000   0.000000   0.000000)
  44:       971.56    0.000000  (  0.000000   0.000000   0.000000)
  45:       999.29    0.000000  (  0.000000   0.000000   0.000000)
  46:      1052.13    0.000000  (  0.000000   0.000000   0.000000)
  47:      1054.92    0.000000  (  0.000000   0.000000   0.000000)
  48:      1071.37    0.000000  (  0.000000   0.000000   0.000000)
  49:      1086.86    0.000000  (  0.000000   0.000000   0.000000)
  50:      1104.48    0.000000  (  0.000000   0.000000   0.000000)
  51:      1120.24    0.000000  (  0.000000   0.000000   0.000000)
  52:      1126.86    0.000000  (  0.000000   0.000000   0.000000)
  53:      1176.19    0.000000  (  0.000000   0.000000   0.000000)
  54:      1185.91    0.000000  (  0.000000   0.000000   0.000000)
  55:      1193.78    0.000000  (  0.000000   0.000000   0.000000)
  56:      1201.68    0.000000  (  0.000000   0.000000   0.000000)
  57:      1212.39    0.000000  (  0.000000   0.000000   0.000000)
  58:      1233.71    0.000000  (  0.000000   0.000000   0.000000)
  59:      1241.92    0.000000  (  0.000000   0.000000   0.000000)
  60:      1251.01    0.000000  (  0.000000   0.000000   0.000000)
  61:      1272.59    0.000000  (  0.000000   0.000000   0.000000)
  62:      1279.77    0.000000  (  0.000000   0.000000   0.000000)
  63:      1284.38    0.000000  (  0.000000   0.000000   0.000000)
  64:      1290.93    0.000000  (  0.000000   0.000000   0.000000)
  65:      1314.43    0.000000  (  0.000000   0.000000   0.000000)
  66:      1341.39    0.000000  (  0.000000   0.000000   0.000000)
  67:      1344.47    0.000000  (  0.000000   0.000000   0.000000)
  68:      1371.92    0.000000  (  0.000000   0.000000   0.000000)
  69:      1393.85    0.000000  (  0.000000   0.000000   0.000000)
  70:      1410.82    0.000000  (  0.000000   0.000000   0.000000)
  71:      1434.93    0.000000  (  0.000000   0.000000   0.000000)
  72:      1442.95    0.000000  (  0.000000   0.000000   0.000000)
  73:      1467.15    0.000000  (  0.000000   0.000000   0.000000)
  74:      1498.47    0.000000  (  0.000000   0.000000   0.000000)
  75:      1506.01    0.000000  (  0.000000   0.000000   0.000000)
  76:      1511.58    0.000000  (  0.000000   0.000000   0.000000)
  77:      1514.07    0.000000  (  0.000000   0.000000   0.000000)
  78:      1534.00    0.000000  (  0.000000   0.000000   0.000000)
  79:      1536.67    0.000000  (  0.000000   0.000000   0.000000)
  80:      1540.37    0.000000  (  0.000000   0.000000   0.000000)
  81:      1906.64    0.000000  (  0.000000   0.000000   0.000000)
  82:      2848.71    0.000000  (  0.000000   0.000000   0.000000)
  83:      2878.94    0.000000  (  0.000000   0.000000   0.000000)
  84:      2889.17    0.000000  (  0.000000   0.000000   0.000000)
  85:      2903.42    0.000000  (  0.000000   0.000000   0.000000)
  86:      2911.76    0.000000  (  0.000000   0.000000   0.000000)
  87:      2915.22    0.000000  (  0.000000   0.000000   0.000000)
  88:      2922.14    0.000000  (  0.000000   0.000000   0.000000)
  89:      2933.95    0.000000  (  0.000000   0.000000   0.000000)
  90:      2934.46    0.000000  (  0.000000   0.000000   0.000000)
  91:      2960.94    0.000000  (  0.000000   0.000000   0.000000)
  92:      2971.14    0.000000  (  0.000000   0.000000   0.000000)
  93:      2984.51    0.000000  (  0.000000   0.000000   0.000000)
  94:      2989.40    0.000000  (  0.000000   0.000000   0.000000)
  95:      2999.26    0.000000  (  0.000000   0.000000   0.000000)
  96:      3016.63    0.000000  (  0.000000   0.000000   0.000000)
  97:      3247.85    0.000000  (  0.000000   0.000000   0.000000)
  98:      3459.53    0.000000  (  0.000000   0.000000   0.000000)

The first frequency considered to be a vibration is 7
The total number of vibrations considered is 92


--------------------------
THERMOCHEMISTRY AT 298.15K
--------------------------

Temperature         ... 298.15 K
Pressure            ... 1.00 atm
Total Mass          ... 197.28 AMU

Throughout the following assumptions are being made:
  (1) The electronic state is orbitally nondegenerate
  (2) There are no thermally accessible electronically excited states
  (3) Hindered rotations indicated by low frequency modes are not
      treated as such but are treated as vibrations and this may
      cause some error
  (4) All equations used are the standard statistical mechanics
      equations for an ideal gas
  (5) All vibrations are strictly harmonic

freq.      69.99  E(vib)   ...       0.50 
freq.      97.58  E(vib)   ...       0.46 
freq.     102.63  E(vib)   ...       0.46 
freq.     105.21  E(vib)   ...       0.45 
freq.     144.94  E(vib)   ...       0.41 
freq.     170.87  E(vib)   ...       0.38 
freq.     183.68  E(vib)   ...       0.37 
freq.     199.25  E(vib)   ...       0.35 
freq.     231.82  E(vib)   ...       0.32 
freq.     245.05  E(vib)   ...       0.31 
freq.     266.76  E(vib)   ...       0.29 
freq.     357.48  E(vib)   ...       0.22 
freq.     359.98  E(vib)   ...       0.22 
freq.     384.21  E(vib)   ...       0.20 
freq.     402.38  E(vib)   ...       0.19 
freq.     408.08  E(vib)   ...       0.19 
freq.     478.35  E(vib)   ...       0.15 
freq.     518.43  E(vib)   ...       0.13 
freq.     589.70  E(vib)   ...       0.10 
freq.     596.40  E(vib)   ...       0.10 
freq.     605.45  E(vib)   ...       0.10 
freq.     642.62  E(vib)   ...       0.09 
freq.     670.03  E(vib)   ...       0.08 
freq.     683.14  E(vib)   ...       0.08 
freq.     740.59  E(vib)   ...       0.06 
freq.     762.07  E(vib)   ...       0.06 
freq.     791.88  E(vib)   ...       0.05 
freq.     804.12  E(vib)   ...       0.05 
freq.     827.29  E(vib)   ...       0.04 
freq.     859.10  E(vib)   ...       0.04 
freq.     902.65  E(vib)   ...       0.03 
freq.     921.90  E(vib)   ...       0.03 
freq.     928.75  E(vib)   ...       0.03 
freq.     950.64  E(vib)   ...       0.03 
freq.     951.46  E(vib)   ...       0.03 
freq.     954.53  E(vib)   ...       0.03 
freq.     966.35  E(vib)   ...       0.03 
freq.     971.56  E(vib)   ...       0.03 
freq.     999.29  E(vib)   ...       0.02 
freq.    1052.13  E(vib)   ...       0.02 
freq.    1054.92  E(vib)   ...       0.02 
freq.    1071.37  E(vib)   ...       0.02 
freq.    1086.86  E(vib)   ...       0.02 
freq.    1104.48  E(vib)   ...       0.02 
freq.    1120.24  E(vib)   ...       0.01 
freq.    1126.86  E(vib)   ...       0.01 
freq.    1176.19  E(vib)   ...       0.01 
freq.    1185.91  E(vib)   ...       0.01 
freq.    1193.78  E(vib)   ...       0.01 
freq.    1201.68  E(vib)   ...       0.01 
freq.    1212.39  E(vib)   ...       0.01 
freq.    1233.71  E(vib)   ...       0.01 
freq.    1241.92  E(vib)   ...       0.01 
freq.    1251.01  E(vib)   ...       0.01 
freq.    1272.59  E(vib)   ...       0.01 
freq.    1279.77  E(vib)   ...       0.01 
freq.    1284.38  E(vib)   ...       0.01 
freq.    1290.93  E(vib)   ...       0.01 
freq.    1314.43  E(vib)   ...       0.01 
freq.    1341.39  E(vib)   ...       0.01 
freq.    1344.47  E(vib)   ...       0.01 
freq.    1371.92  E(vib)   ...       0.01 
freq.    1393.85  E(vib)   ...       0.00 
freq.    1410.82  E(vib)   ...       0.00 
freq.    1434.93  E(vib)   ...       0.00 
freq.    1442.95  E(vib)   ...       0.00 
freq.    1467.15  E(vib)   ...       0.00 
freq.    1498.47  E(vib)   ...       0.00 
freq.    1506.01  E(vib)   ...       0.00 
freq.    1511.58  E(vib)   ...       0.00 
freq.    1514.07  E(vib)   ...       0.00 
freq.    1534.00  E(vib)   ...       0.00 
freq.    1536.67  E(vib)   ...       0.00 
freq.    1540.37  E(vib)   ...       0.00 
freq.    1906.64  E(vib)   ...       0.00 
freq.    2848.71  E(vib)   ...       0.00 
freq.    2878.94  E(vib)   ...       0.00 
freq.    2889.17  E(vib)   ...       0.00 
freq.    2903.42  E(vib)   ...       0.00 
freq.    2911.76  E(vib)   ...       0.00 
freq.    2915.22  E(vib)   ...       0.00 
freq.    2922.14  E(vib)   ...       0.00 
freq.    2933.95  E(vib)   ...       0.00 
freq.    2934.46  E(vib)   ...       0.00 
freq.    2960.94  E(vib)   ...       0.00 
freq.    2971.14  E(vib)   ...       0.00 
freq.    2984.51  E(vib)   ...       0.00 
freq.    2989.40  E(vib)   ...       0.00 
freq.    2999.26  E(vib)   ...       0.00 
freq.    3016.63  E(vib)   ...       0.00 
freq.    3247.85  E(vib)   ...       0.00 
freq.    3459.53  E(vib)   ...       0.00 

------------
INNER ENERGY
------------

The inner energy is: U= E(el) + E(ZPE) + E(vib) + E(rot) + E(trans)
    E(el)   - is the total energy from the electronic structure calculation
              = E(kin-el) + E(nuc-el) + E(el-el) + E(nuc-nuc)
    E(ZPE)  - the the zero temperature vibrational energy from the frequency calculation
    E(vib)  - the the finite temperature correction to E(ZPE) due to population
              of excited vibrational states
    E(rot)  - is the rotational thermal energy
    E(trans)- is the translational thermal energy

Summary of contributions to the inner energy U:
Electronic energy                ...    -44.26160092 Eh
Zero point energy                ...      0.27366293 Eh     171.73 kcal/mol
Thermal vibrational correction   ...      0.01116962 Eh       7.01 kcal/mol
Thermal rotational correction    ...      0.00141627 Eh       0.89 kcal/mol
Thermal translational correction ...      0.00141627 Eh       0.89 kcal/mol
-----------------------------------------------------------------------
Total thermal energy                    -43.97393583 Eh


Summary of corrections to the electronic energy:
(perhaps to be used in another calculation)
Total thermal correction                  0.01400217 Eh       8.79 kcal/mol
Non-thermal (ZPE) correction              0.27366293 Eh     171.73 kcal/mol
-----------------------------------------------------------------------
Total correction                          0.28766509 Eh     180.51 kcal/mol


--------
ENTHALPY
--------

The enthalpy is H = U + kB*T
                kB is Boltzmann's constant
Total free energy                 ...    -43.97393583 Eh 
Thermal Enthalpy correction       ...      0.00094421 Eh       0.59 kcal/mol
-----------------------------------------------------------------------
Total Enthalpy                    ...    -43.97299162 Eh


Note: Only C1 symmetry has been detected, increase convergence thresholds 
      if your molecule has a higher symmetry. Symmetry factor of 1.0 is   
      used for the rotational entropy correction. 
 

Note: Rotational entropy computed according to Herzberg 
Infrared and Raman Spectra, Chapter V,1, Van Nostrand Reinhold, 1945 
Point Group:  C1, Symmetry Number:   1  
Rotational constants in cm-1:     0.032933     0.010893     0.008781 

Vibrational entropy computed according to the QRRHO of S. Grimme
Chem.Eur.J. 2012 18 9955


-------
ENTROPY
-------

The entropy contributions are T*S = T*(S(el)+S(vib)+S(rot)+S(trans))
     S(el)   - electronic entropy
     S(vib)  - vibrational entropy
     S(rot)  - rotational entropy
     S(trans)- translational entropy
The entropies will be listed as mutliplied by the temperature to get
units of energy

Electronic entropy                ...      0.00000000 Eh      0.00 kcal/mol
Vibrational entropy               ...      0.01899874 Eh     11.92 kcal/mol
Rotational entropy                ...      0.01549129 Eh      9.72 kcal/mol
Translational entropy             ...      0.01983352 Eh     12.45 kcal/mol
-----------------------------------------------------------------------
Final entropy term                ...      0.05432355 Eh     34.09 kcal/mol

In case the symmetry of your molecule has not been determined correctly
or in case you have a reason to use a different symmetry number we print 
out the resulting rotational entropy values for sn=1,12 :
 --------------------------------------------------------
|  sn= 1 | S(rot)=       0.01549129 Eh      9.72 kcal/mol|
|  sn= 2 | S(rot)=       0.01483684 Eh      9.31 kcal/mol|
|  sn= 3 | S(rot)=       0.01445401 Eh      9.07 kcal/mol|
|  sn= 4 | S(rot)=       0.01418238 Eh      8.90 kcal/mol|
|  sn= 5 | S(rot)=       0.01397169 Eh      8.77 kcal/mol|
|  sn= 6 | S(rot)=       0.01379955 Eh      8.66 kcal/mol|
|  sn= 7 | S(rot)=       0.01365400 Eh      8.57 kcal/mol|
|  sn= 8 | S(rot)=       0.01352793 Eh      8.49 kcal/mol|
|  sn= 9 | S(rot)=       0.01341672 Eh      8.42 kcal/mol|
|  sn=10 | S(rot)=       0.01331724 Eh      8.36 kcal/mol|
|  sn=11 | S(rot)=       0.01322725 Eh      8.30 kcal/mol|
|  sn=12 | S(rot)=       0.01314509 Eh      8.25 kcal/mol|
 --------------------------------------------------------


-------------------
GIBBS FREE ENERGY
-------------------

The Gibbs free energy is G = H - T*S

Total enthalpy                    ...    -43.97299162 Eh 
Total entropy correction          ...     -0.05432355 Eh    -34.09 kcal/mol
-----------------------------------------------------------------------
Final Gibbs free energy         ...    -44.02731518 Eh

For completeness - the Gibbs free energy minus the electronic energy
G-E(el)                           ...      0.23428575 Eh    147.02 kcal/mol


Total Time for Numerical Frequencies  :        59.534 sec
Time for Reference State(s)           :         0.087 sec
Time for Displacements                :        53.072 sec

Timings for individual modules:

Sum of individual times         ...        0.503 sec (=   0.008 min)
XTB module                      ...        0.503 sec (=   0.008 min) 100.0 %
                             ****ORCA TERMINATED NORMALLY****
TOTAL RUN TIME: 0 days 0 hours 1 minutes 0 seconds 596 msec
(SLURM) EXECUTION TIME: 60.640508804 seconds.
