(SLURM) JOB ID:         80

                                 *****************
                                 * O   R   C   A *
                                 *****************

           --- An Ab Initio, DFT and Semiempirical electronic structure package ---

                  #######################################################
                  #                        -***-                        #
                  #          Department of theory and spectroscopy      #
                  #               Directorship: Frank Neese             #
                  #        Max Planck Institute fuer Kohlenforschung    #
                  #                Kaiser Wilhelm Platz 1               #
                  #                 D-45470 Muelheim/Ruhr               #
                  #                      Germany                        #
                  #                                                     #
                  #                  All rights reserved                #
                  #                        -***-                        #
                  #######################################################


                         Program Version 4.2.1 -  RELEASE  -


 With contributions from (in alphabetic order):
   Daniel Aravena         : Magnetic Suceptibility
   Michael Atanasov       : Ab Initio Ligand Field Theory (pilot matlab implementation)
   Alexander A. Auer      : GIAO ZORA, VPT2
   Ute Becker             : Parallelization
   Giovanni Bistoni       : ED, misc. LED, open-shell LED, HFLD
   Martin Brehm           : Molecular dynamics
   Dmytro Bykov           : SCF Hessian
   Vijay G. Chilkuri      : MRCI spin determinant printing, contributions to CSF-ICE
   Dipayan Datta          : RHF DLPNO-CCSD density
   Achintya Kumar Dutta   : EOM-CC, STEOM-CC
   Dmitry Ganyushin       : Spin-Orbit,Spin-Spin,Magnetic field MRCI
   Miquel Garcia          : C-PCM Hessian, Gaussian charge scheme
   Yang Guo               : DLPNO-NEVPT2, CIM, IAO-localization
   Andreas Hansen         : Spin unrestricted coupled pair/coupled cluster methods
   Benjamin Helmich-Paris : CASSCF linear response (MC-RPA)
   Lee Huntington         : MR-EOM, pCC
   Robert Izsak           : Overlap fitted RIJCOSX, COSX-SCS-MP3, EOM
   Christian Kollmar      : KDIIS, OOCD, Brueckner-CCSD(T), CCSD density
   Simone Kossmann        : Meta GGA functionals, TD-DFT gradient, OOMP2, MP2 Hessian
   Martin Krupicka        : AUTO-CI
   Lucas Lang             : DCDCAS
   Dagmar Lenk            : GEPOL surface, SMD
   Dimitrios Liakos       : Extrapolation schemes; Compound Job, initial MDCI parallelization
   Dimitrios Manganas     : Further ROCIS development; embedding schemes
   Dimitrios Pantazis     : SARC Basis sets
   Taras Petrenko         : DFT Hessian,TD-DFT gradient, ASA, ECA, R-Raman, ABS, FL, XAS/XES, NRVS
   Peter Pinski           : DLPNO-MP2, DLPNO-MP2 Gradient
   Christoph Reimann      : Effective Core Potentials
   Marius Retegan         : Local ZFS, SOC
   Christoph Riplinger    : Optimizer, TS searches, QM/MM, DLPNO-CCSD(T), (RO)-DLPNO pert. Triples
   Tobias Risthaus        : Range-separated hybrids, TD-DFT gradient, RPA, STAB
   Michael Roemelt        : Original ROCIS implementation
   Masaaki Saitow         : Open-shell DLPNO-CCSD energy and density
   Barbara Sandhoefer     : DKH picture change effects
   Avijit Sen             : IP-ROCIS
   Kantharuban Sivalingam : CASSCF convergence, NEVPT2, FIC-MRCI
   Bernardo de Souza      : ESD, SOC TD-DFT
   Georgi Stoychev        : AutoAux, RI-MP2 NMR
   Willem Van den Heuvel  : Paramagnetic NMR
   Boris Wezisla          : Elementary symmetry handling
   Frank Wennmohs         : Technical directorship


 We gratefully acknowledge several colleagues who have allowed us to
 interface, adapt or use parts of their codes:
   Stefan Grimme, W. Hujo, H. Kruse,             : VdW corrections, initial TS optimization,
                  C. Bannwarth                     DFT functionals, gCP, sTDA/sTD-DF
   Ed Valeev, F. Pavosevic, A. Kumar             : LibInt (2-el integral package), F12 methods
   Garnet Chan, S. Sharma, J. Yang, R. Olivares  : DMRG
   Ulf Ekstrom                                   : XCFun DFT Library
   Mihaly Kallay                                 : mrcc  (arbitrary order and MRCC methods)
   Andreas Klamt, Michael Diedenhofen            : otool_cosmo (COSMO solvation model)
   Jiri Pittner, Ondrej Demel                    : Mk-CCSD
   Frank Weinhold                                : gennbo (NPA and NBO analysis)
   Christopher J. Cramer and Donald G. Truhlar   : smd solvation model
   Lars Goerigk                                  : TD-DFT with DH, B97 family of functionals
   V. Asgeirsson, H. Jonsson                     : NEB implementation
   FAccTs GmbH                                   : IRC, NEB, NEB-TS, Multilevel, MM, QM/MM, CI optimization
   S Lehtola, MJT Oliveira, MAL Marques          : LibXC Library


 Your calculation uses the libint2 library for the computation of 2-el integrals
 For citations please refer to: http://libint.valeyev.net

 Your ORCA version has been built with support for libXC version: 4.2.3
 For citations please refer to: https://tddft.org/programs/libxc/

 This ORCA versions uses:
   CBLAS   interface :  Fast vector & matrix operations
   LAPACKE interface :  Fast linear algebra routines
   SCALAPACK package :  Parallel linear algebra routines




***************************************
The coordinates will be read from file: init.xyz
***************************************


Your calculation utilizes the SMD solvation module
Please cite in your paper:
A.V. Marenich, C.J. Cramer, D.G. Truhlar J. Phys. Chem. B, 113, (2009), 6378 

Your calculation utilizes the semiempirical GFN2-xTB method
Please cite in your paper:
C. Bannwarth, Ehlert S., S. Grimme,  J. Chem. Theory Comput., 15, (2019), 1652.
   

----- Orbital basis set information -----
Your calculation utilizes the basis: def2-SVP
   F. Weigend and R. Ahlrichs, Phys. Chem. Chem. Phys. 7, 3297 (2005).

================================================================================
                                        WARNINGS
                       Please study these warnings very carefully!
================================================================================

WARNING: Gradients needed for Numerical Frequencies
  ===> : Setting RunTyp to EnGrad

WARNING: The environment variable RSH_COMMAND is not set!
  ===> : All Displacements for the Numerical Hessian calculation
         will be started on localhost

WARNING: Found dipole moment calculation with XTB calculation
  ===> : Switching off dipole moment calculation


INFO   : the flag for use of LIBINT has been found!

================================================================================
                                       INPUT FILE
================================================================================
NAME = /tmp/slurm-scratch/freq.80/freq.inp
|  1> ! XTB2 NumFreq
|  2> %maxcore 1450
|  3> 
|  4> * xyzfile 0 1 init.xyz
|  5> 
|  6> %cpcm
|  7>  smd true
|  8>  smdsolvent "ch2cl2"
|  9> end
| 10> %pal nprocs 8 end
| 11> 
| 12>                          ****END OF INPUT****
================================================================================

                     *******************************
                     * Energy+Gradient Calculation *
                     *******************************

      -----------------------------------------------------------      
     |                   =====================                   |     
     |                           x T B                           |     
     |                   =====================                   |     
     |                         S. Grimme                         |     
     |          Mulliken Center for Theoretical Chemistry        |     
     |                    University of Bonn                     |     
      -----------------------------------------------------------      

   * xtb version 6.3.0 (preview) compiled by 'ehlert@majestix' on 2020-01-15

   This program is distributed in the hope that it will be useful,
   but WITHOUT ANY WARRANTY; without even the implied warranty of
   MERCHANTABILITY or FITNESS FOR A PARTICULAR PURPOSE.
   
   FOR NON-COMMERCIAL, ACADEMIA USE ONLY.
   
   Cite this work as:
   * S. Grimme, C. Bannwarth, P. Shushkov, J. Chem. Theory Comput., 2017,
     13, 1989-2009. DOI: 10.1021/acs.jctc.7b00118
   * C. Bannwarth, S. Ehlert and S. Grimme., J. Chem. Theory Comput., 2019,
     15, 1652-1671. DOI: 10.1021/acs.jctc.8b01176
   * P. Pracht, E. Caldeweyher, S. Ehlert, S. Grimme, ChemRxiv, 2019, preprint.
     DOI: 10.26434/chemrxiv.8326202.v1
   * S. Grimme, S. Spicher unpublished
   
   for DFT-D4:
   * E. Caldeweyher, C. Bannwarth and S. Grimme, J. Chem. Phys., 2017,
     147, 034112. DOI: 10.1063/1.4993215
   * E. Caldeweyher, S. Ehlert, A. Hansen, H. Neugebauer, S. Spicher,
     C. Bannwarth and S. Grimme, J. Chem. Phys., 2019, 150, 154122.
     DOI: 10.1063/1.5090222
   
   for sTDA-xTB:
   * S. Grimme and C. Bannwarth, J. Chem. Phys., 2016, 145, 054103.
     DOI: 10.1063/1.4959605
   
   in the mass-spec context:
   * V. Asgeirsson, C. Bauer and S. Grimme, Chem. Sci., 2017, 8, 4879.
     DOI: 10.1039/c7sc00601b
   
   for metadynamics refer to:
   * S. Grimme, J. Chem. Theory Comput., 2019, 155, 2847-2862
     DOI: 10.1021/acs.jctc.9b00143
   
   with help from (in alphabetical order)
   C. Bannwarth, F. Bohle, G. Brandenburg, E. Caldeweyher, M. Checinski,
   S. Dohm, S. Ehlert, S. Ehrlich, F. März, H. Neugebauer, J. Pisarek,
   P. Pracht, P. Shushkov, and S. Spicher.
   
 * started run on 2020/08/10 at 03:18:21.072     

           -------------------------------------------------
          |                Calculation Setup                |
           -------------------------------------------------

          program call               : /opt/orca/otool_xtb /tmp/slurm-scratch/freq.80/freq_XTB.xyz --grad -c 0 -u 0 -P 8 --namespace /tmp/slurm-scratch/freq.80/freq --gbsa CH2Cl2
          hostname                   : headnode-pbs
          calculation namespace      : /tmp/slurm-scratch/freq.80/freq
          coordinate file            : /tmp/slurm-scratch/freq.80/freq_XTB.xyz
          omp threads                :                     8
          number of atoms            :                    30
          number of electrons        :                    72
          charge                     :                     0
          spin                       :                   0.0
          first test random number   :      0.71213763464787


########################################################################
# WARNING! Please study the warnings concerning your input carefully
#  - Process number higher than OMP_NUM_THREADS, I hope you know what you are doing.
########################################################################

           ------------------------------------------------- 
          |                 G F N 2 - x T B                 |
          | Geometry, Frequencies, Noncovalent interactions |
          |            JCTC 2019 parametrisation            |
           ------------------------------------------------- 
             k(s)              :                1.8500
             k(p)              :                2.2300
             k(d)              :                2.2300
             k(f)              :                2.0000
             kEN (H0ij)        :               -2.0000
             D4 a1             :                0.5200
             D4 a2             :                5.0000
             D4 s6             :                1.0000
             D4 s8             :                2.7000
             D4 s9             :                5.0000
             alphaj            :                2.0000

  Z AO/shell   Hii/eV     exponent
  1     Wed Apr 25 08:07:45 CEST 2018   EN: 2.200 GM2: 0.406  GM3: 0.0800  RAES: 1.40
     1s    -10.707211    1.230000
  6     Wed Apr 25 08:07:45 CEST 2018   EN: 2.550 GM2: 0.538  GM3: 0.1500  RAES: 3.00
     2s    -13.970922    2.096432
     2p    -10.063292    1.800000
  7     Wed Apr 25 08:07:45 CEST 2018   EN: 3.040 GM2: 0.461  GM3:-0.0640  RAES: 1.90
     2s    -16.686243    2.339881
     2p    -12.523956    2.014332
  8     Wed Apr 25 08:07:45 CEST 2018   EN: 3.440 GM2: 0.452  GM3:-0.0517  RAES: 1.80
     2s    -20.229985    2.439742
     2p    -15.503117    2.137023

 Solvent             : CH2Cl2
 Using internal parameter file: .param_gbsa2_CH2Cl2
 Gsolv ref. state (COSMO-RS): gsolv [1 M gas/solution]
 temperature (mdtemp)       :    298.150000000000     
 dielectric constant        :    8.93000000000000     
 rho                        :    1.33000000000000     
 mass                       :    84.9300000000000     
 surface tension            :    15.5689454083859     
 probe radius               :   0.719875900000000     
 Gshift (Eh)                :   4.440829173451759E-003
 c1                         :    1.49173776000000     
 soset                      :   0.000000000000000E+000
 HB correction              :  F
           ------------------------------------------------- 
          |        Self-Consistent Charge Iterations        |
           ------------------------------------------------- 

          ...................................................
          :                      SETUP                      :
          :.................................................:
          :  # basis functions                  69          :
          :  # atomic orbitals                  69          :
          :  # shells                           43          :
          :  # electrons                        72          :
          :  max. iterations                   250          :
          :  Hamiltonian                  GFN2-xTB          :
          :  GBSA solvation                   true          :
          :  PC potential                    false          :
          :  electronic temp.          300.0000000     K    :
          :  accuracy                    1.0000000          :
          :  -> integral cutoff          0.2500000E+02      :
          :  -> integral neglect         0.1000000E-07      :
          :  -> SCF convergence          0.1000000E-05 Eh   :
          :  -> wf. convergence          0.1000000E-03 e    :
          :  Broyden damping             0.4000000          :
          ...................................................
  Checking positiv definite overlap ...  done.
 

 iter      E             dE          RMSdq      gap      omega  full diag
   1    -39.5915911 -0.395916E+02  0.406E+00    4.52       0.0  T
   2    -39.6903239 -0.987328E-01  0.225E+00    3.96       1.0  T
   3    -39.6922786 -0.195466E-02  0.930E-01    3.43       1.0  T
   4    -39.6921567  0.121916E-03  0.297E-01    3.46       1.0  T
   5    -39.6943329 -0.217617E-02  0.798E-02    3.55       1.0  T
   6    -39.6943687 -0.358641E-04  0.313E-02    3.59       1.0  T
   7    -39.6943705 -0.174875E-05  0.132E-02    3.59       1.4  T
   8    -39.6943719 -0.138727E-05  0.396E-03    3.59       4.6  T
   9    -39.6943720 -0.105341E-06  0.207E-03    3.59       8.8  T
  10    -39.6943720 -0.202879E-07  0.785E-04    3.59      23.3  T
  11    -39.6943720 -0.226373E-08  0.372E-04    3.59      49.0  T

   *** convergence criteria satisfied after 11 iterations ***

         #    Occupation            Energy/Eh            Energy/eV
      -------------------------------------------------------------
         1        2.0000           -0.6765895             -18.4109
       ...           ...                  ...                  ...
        30        2.0000           -0.4337813             -11.8038
        31        2.0000           -0.4314020             -11.7390
        32        2.0000           -0.4262205             -11.5980
        33        2.0000           -0.4095173             -11.1435
        34        2.0000           -0.4077269             -11.0948
        35        2.0000           -0.3793570             -10.3228
        36        2.0000           -0.3683482             -10.0233 (HOMO)
        37                         -0.2365422              -6.4366 (LUMO)
        38                         -0.2306278              -6.2757
        39                         -0.1146037              -3.1185
        40                         -0.0505525              -1.3756
        41                         -0.0399114              -1.0860
       ...                                ...                  ...
        69                          0.6400392              17.4164
      -------------------------------------------------------------
                  HL-Gap            0.1318060 Eh            3.5866 eV
             Fermi-level           -0.3024452 Eh           -8.2300 eV

 SCC (total)                   0 d,  0 h,  0 min,  0.025 sec
 SCC setup                      ...        0 min,  0.001 sec (  4.012%)
 Dispersion                     ...        0 min,  0.000 sec (  1.099%)
 integral evaluation            ...        0 min,  0.004 sec ( 15.573%)
 zeroth order Hamiltonian       ...        0 min,  0.000 sec (  0.048%)
 iterations                     ...        0 min,  0.014 sec ( 53.603%)
 molecular gradient             ...        0 min,  0.006 sec ( 24.243%)
 printout                       ...        0 min,  0.000 sec (  1.265%)

         :::::::::::::::::::::::::::::::::::::::::::::::::::::
         ::                     SUMMARY                     ::
         :::::::::::::::::::::::::::::::::::::::::::::::::::::
         :: total energy             -39.155068252454 Eh    ::
         :: total w/o Gsasa/hb       -39.140029114741 Eh    ::
         :: gradient norm              0.036853971721 Eh/a0 ::
         :: HOMO-LUMO gap              3.586625176523 eV    ::
         ::.................................................::
         :: SCC energy               -39.709411124784 Eh    ::
         :: -> isotropic ES            0.076580685395 Eh    ::
         :: -> anisotropic ES          0.005818967518 Eh    ::
         :: -> anisotropic XC          0.019550865157 Eh    ::
         :: -> dispersion             -0.023995504558 Eh    ::
         :: -> Gsolv                  -0.026419915748 Eh    ::
         ::    -> Gborn               -0.011380778035 Eh    ::
         ::    -> Gsasa               -0.019479966887 Eh    ::
         ::    -> Ghb                  0.000000000000 Eh    ::
         ::    -> Gshift               0.004440829173 Eh    ::
         :: repulsion energy           0.554191766347 Eh    ::
         :: add. restraining           0.000000000000 Eh    ::
         :::::::::::::::::::::::::::::::::::::::::::::::::::::

           -------------------------------------------------
          |                Property Printout                |
           -------------------------------------------------

    * Orbital Energies and Occupations

         #    Occupation            Energy/Eh            Energy/eV
      -------------------------------------------------------------
         1        2.0000           -0.6765895             -18.4109
       ...           ...                  ...                  ...
        24        2.0000           -0.4795681             -13.0497
        25        2.0000           -0.4746011             -12.9146
        26        2.0000           -0.4708170             -12.8116
        27        2.0000           -0.4558267             -12.4037
        28        2.0000           -0.4502208             -12.2511
        29        2.0000           -0.4443245             -12.0907
        30        2.0000           -0.4337813             -11.8038
        31        2.0000           -0.4314020             -11.7390
        32        2.0000           -0.4262205             -11.5980
        33        2.0000           -0.4095173             -11.1435
        34        2.0000           -0.4077269             -11.0948
        35        2.0000           -0.3793570             -10.3228
        36        2.0000           -0.3683482             -10.0233 (HOMO)
        37                         -0.2365422              -6.4366 (LUMO)
        38                         -0.2306278              -6.2757
        39                         -0.1146037              -3.1185
        40                         -0.0505525              -1.3756
        41                         -0.0399114              -1.0860
        42                          0.0569789               1.5505
        43                          0.0802936               2.1849
        44                          0.0852206               2.3190
        45                          0.0942881               2.5657
        46                          0.1123779               3.0580
        47                          0.1238212               3.3693
       ...                                ...                  ...
        69                          0.6400392              17.4164
      -------------------------------------------------------------
                  HL-Gap            0.1318060 Eh            3.5866 eV
             Fermi-level           -0.3024452 Eh           -8.2300 eV

     #   Z        covCN         q      C6AA      α(0)
     1   6 C      2.918    -0.038    28.955     8.824
     2   6 C      2.964    -0.020    28.500     8.757
     3   6 C      2.919    -0.029    28.723     8.789
     4   6 C      2.914    -0.030    28.761     8.794
     5   6 C      2.915    -0.030    28.749     8.792
     6   6 C      2.914    -0.030    28.749     8.792
     7   1 H      0.925     0.031     2.569     2.507
     8   1 H      0.925     0.043     2.409     2.427
     9   1 H      0.925     0.041     2.435     2.440
    10   6 C      3.690     0.182    17.868     6.049
    11   1 H      0.923     0.006     2.962     2.691
    12   8 O      1.087    -0.672    27.793     7.075
    13   7 N      3.416    -0.208    25.524     7.503
    14   1 H      1.000     0.321     0.648     1.258
    15   6 C      3.801    -0.065    21.737     6.638
    16   6 C      3.733    -0.003    20.719     6.497
    17   1 H      0.924     0.065     2.143     2.289
    18   1 H      0.924     0.061     2.186     2.312
    19   1 H      0.924     0.043     2.406     2.426
    20   1 H      0.924     0.042     2.429     2.437
    21   1 H      0.860     0.181     1.206     1.720
    22   6 C      3.800    -0.055    21.559     6.611
    23   1 H      0.924     0.038     2.469     2.457
    24   1 H      0.924     0.036     2.496     2.471
    25   1 H      0.925     0.041     2.431     2.438
    26   1 H      0.925     0.039     2.458     2.452
    27   6 C      3.750    -0.104    22.542     6.771
    28   1 H      0.924     0.039     2.462     2.454
    29   1 H      0.924     0.036     2.501     2.473
    30   1 H      0.924     0.038     2.478     2.462

 Mol. C6AA /au·bohr⁶  :       8197.693581
 Mol. C8AA /au·bohr⁸  :     185474.861179
 Mol. α(0) /au        :        139.607740


Wiberg/Mayer (AO) data.
largest (>0.10) Wiberg bond orders for each atom
          total WBO             WBO to atom ...
     1  C   3.991        C    6 1.445    C    2 1.411    H    7 0.967    C    4 0.111
     2  C   3.986        C    3 1.413    C    1 1.411    C   10 0.980    C    5 0.109
     3  C   3.990        C    4 1.444    C    2 1.413    H    8 0.968    C    6 0.111
     4  C   3.991        C    3 1.444    C    5 1.439    H   26 0.971    C    1 0.111
     5  C   3.991        C    4 1.439    C    6 1.437    H    9 0.971    C    2 0.109
     6  C   3.991        C    1 1.445    C    5 1.437    H   25 0.971    C    3 0.111
     7  H   0.999        C    1 0.967
     8  H   0.998        C    3 0.968
     9  H   0.998        C    5 0.971
    10  C   3.943        O   12 1.069    C    2 0.980    H   11 0.946    N   13 0.873
    11  H   1.000        C   10 0.946
    12  O   1.678        C   10 1.069    H   14 0.350    N   13 0.156
    13  N   3.518        C   16 0.979    H   21 0.942    C   10 0.873    H   14 0.509    O   12 0.156
    14  H   0.897        N   13 0.509    O   12 0.350
    15  C   3.994        C   22 1.005    C   16 1.003    H   19 0.975    H   20 0.973
    16  C   3.960        C   15 1.003    N   13 0.979    H   18 0.971    H   17 0.967
    17  H   0.995        C   16 0.967
    18  H   0.996        C   16 0.971
    19  H   0.998        C   15 0.975
    20  H   0.998        C   15 0.973
    21  H   0.967        N   13 0.942
    22  C   3.995        C   27 1.020    C   15 1.005    H   24 0.978    H   23 0.977
    23  H   0.998        C   22 0.977
    24  H   0.999        C   22 0.978
    25  H   0.998        C    6 0.971
    26  H   0.998        C    4 0.971
    27  C   3.995        C   22 1.020    H   29 0.988    H   30 0.987    H   28 0.987
    28  H   0.998        C   27 0.987
    29  H   0.999        C   27 0.988
    30  H   0.999        C   27 0.987

molecular dipole:
                 x           y           z       tot (Debye)
 q only:       -0.894      -0.051      -2.175
   full:       -1.122      -0.008      -2.284       6.468
molecular quadrupole (traceless):
                xx          xy          yy          xz          yz          zz
 q only:       -7.625       2.808       1.041      -7.460      12.959       6.584
  q+dip:       -8.167       4.105       3.799      -8.564      12.658       4.368
   full:       -9.094       4.203       2.269      -8.527      12.240       6.824

           -------------------------------------------------
          |                Property Printout                |
           -------------------------------------------------

    * Orbital Energies and Occupations

         #    Occupation            Energy/Eh            Energy/eV
      -------------------------------------------------------------
         1        2.0000           -0.6765895             -18.4109
       ...           ...                  ...                  ...
        24        2.0000           -0.4795681             -13.0497
        25        2.0000           -0.4746011             -12.9146
        26        2.0000           -0.4708170             -12.8116
        27        2.0000           -0.4558267             -12.4037
        28        2.0000           -0.4502208             -12.2511
        29        2.0000           -0.4443245             -12.0907
        30        2.0000           -0.4337813             -11.8038
        31        2.0000           -0.4314020             -11.7390
        32        2.0000           -0.4262205             -11.5980
        33        2.0000           -0.4095173             -11.1435
        34        2.0000           -0.4077269             -11.0948
        35        2.0000           -0.3793570             -10.3228
        36        2.0000           -0.3683482             -10.0233 (HOMO)
        37                         -0.2365422              -6.4366 (LUMO)
        38                         -0.2306278              -6.2757
        39                         -0.1146037              -3.1185
        40                         -0.0505525              -1.3756
        41                         -0.0399114              -1.0860
        42                          0.0569789               1.5505
        43                          0.0802936               2.1849
        44                          0.0852206               2.3190
        45                          0.0942881               2.5657
        46                          0.1123779               3.0580
        47                          0.1238212               3.3693
       ...                                ...                  ...
        69                          0.6400392              17.4164
      -------------------------------------------------------------
                  HL-Gap            0.1318060 Eh            3.5866 eV
             Fermi-level           -0.3024452 Eh           -8.2300 eV

     #   Z        covCN         q      C6AA      α(0)
     1   6 C      2.918    -0.038    28.955     8.824
     2   6 C      2.964    -0.020    28.500     8.757
     3   6 C      2.919    -0.029    28.723     8.789
     4   6 C      2.914    -0.030    28.761     8.794
     5   6 C      2.915    -0.030    28.749     8.792
     6   6 C      2.914    -0.030    28.749     8.792
     7   1 H      0.925     0.031     2.569     2.507
     8   1 H      0.925     0.043     2.409     2.427
     9   1 H      0.925     0.041     2.435     2.440
    10   6 C      3.690     0.182    17.868     6.049
    11   1 H      0.923     0.006     2.962     2.691
    12   8 O      1.087    -0.672    27.793     7.075
    13   7 N      3.416    -0.208    25.524     7.503
    14   1 H      1.000     0.321     0.648     1.258
    15   6 C      3.801    -0.065    21.737     6.638
    16   6 C      3.733    -0.003    20.719     6.497
    17   1 H      0.924     0.065     2.143     2.289
    18   1 H      0.924     0.061     2.186     2.312
    19   1 H      0.924     0.043     2.406     2.426
    20   1 H      0.924     0.042     2.429     2.437
    21   1 H      0.860     0.181     1.206     1.720
    22   6 C      3.800    -0.055    21.559     6.611
    23   1 H      0.924     0.038     2.469     2.457
    24   1 H      0.924     0.036     2.496     2.471
    25   1 H      0.925     0.041     2.431     2.438
    26   1 H      0.925     0.039     2.458     2.452
    27   6 C      3.750    -0.104    22.542     6.771
    28   1 H      0.924     0.039     2.462     2.454
    29   1 H      0.924     0.036     2.501     2.473
    30   1 H      0.924     0.038     2.478     2.462

 Mol. C6AA /au·bohr⁶  :       8197.693581
 Mol. C8AA /au·bohr⁸  :     185474.861179
 Mol. α(0) /au        :        139.607740


Wiberg/Mayer (AO) data.
largest (>0.10) Wiberg bond orders for each atom
          total WBO             WBO to atom ...
     1  C   3.991        C    6 1.445    C    2 1.411    H    7 0.967    C    4 0.111
     2  C   3.986        C    3 1.413    C    1 1.411    C   10 0.980    C    5 0.109
     3  C   3.990        C    4 1.444    C    2 1.413    H    8 0.968    C    6 0.111
     4  C   3.991        C    3 1.444    C    5 1.439    H   26 0.971    C    1 0.111
     5  C   3.991        C    4 1.439    C    6 1.437    H    9 0.971    C    2 0.109
     6  C   3.991        C    1 1.445    C    5 1.437    H   25 0.971    C    3 0.111
     7  H   0.999        C    1 0.967
     8  H   0.998        C    3 0.968
     9  H   0.998        C    5 0.971
    10  C   3.943        O   12 1.069    C    2 0.980    H   11 0.946    N   13 0.873
    11  H   1.000        C   10 0.946
    12  O   1.678        C   10 1.069    H   14 0.350    N   13 0.156
    13  N   3.518        C   16 0.979    H   21 0.942    C   10 0.873    H   14 0.509    O   12 0.156
    14  H   0.897        N   13 0.509    O   12 0.350
    15  C   3.994        C   22 1.005    C   16 1.003    H   19 0.975    H   20 0.973
    16  C   3.960        C   15 1.003    N   13 0.979    H   18 0.971    H   17 0.967
    17  H   0.995        C   16 0.967
    18  H   0.996        C   16 0.971
    19  H   0.998        C   15 0.975
    20  H   0.998        C   15 0.973
    21  H   0.967        N   13 0.942
    22  C   3.995        C   27 1.020    C   15 1.005    H   24 0.978    H   23 0.977
    23  H   0.998        C   22 0.977
    24  H   0.999        C   22 0.978
    25  H   0.998        C    6 0.971
    26  H   0.998        C    4 0.971
    27  C   3.995        C   22 1.020    H   29 0.988    H   30 0.987    H   28 0.987
    28  H   0.998        C   27 0.987
    29  H   0.999        C   27 0.988
    30  H   0.999        C   27 0.987

molecular dipole:
                 x           y           z       tot (Debye)
 q only:       -0.894      -0.051      -2.175
   full:       -1.122      -0.008      -2.284       6.468
molecular quadrupole (traceless):
                xx          xy          yy          xz          yz          zz
 q only:       -7.625       2.808       1.041      -7.460      12.959       6.584
  q+dip:       -8.167       4.105       3.799      -8.564      12.658       4.368
   full:       -9.094       4.203       2.269      -8.527      12.240       6.824


           -------------------------------------------------
          | TOTAL ENERGY              -39.155068252454 Eh   |
          | GRADIENT NORM               0.036853971721 Eh/α |
          | HOMO-LUMO GAP               3.586625176523 eV   |
           -------------------------------------------------

------------------------------------------------------------------------
 * finished run on 2020/08/10 at 03:18:21.140     
------------------------------------------------------------------------
 total:
 * wall-time:     0 d,  0 h,  0 min,  0.068 sec
 *  cpu-time:     0 d,  0 h,  0 min,  0.475 sec
 * ratio c/w:     6.981 speedup
 SCF:
 * wall-time:     0 d,  0 h,  0 min,  0.026 sec
 *  cpu-time:     0 d,  0 h,  0 min,  0.186 sec
 * ratio c/w:     7.241 speedup


-------------------------   --------------------
FINAL SINGLE POINT ENERGY       -39.155068252450
-------------------------   --------------------


----------------------------------------------------------------------------
                           ORCA NUMERICAL FREQUENCIES
                              (8-process run)
----------------------------------------------------------------------------

Number of atoms                ... 30
Central differences            ... used
Number of displacements        ... 180
Numerical increment            ... 5.000e-03 bohr
IR-spectrum generation         ... on
Raman-spectrum generation      ... off
Surface Crossing Hessian       ... off
List of participating nodes    ...  /tmp/slurm-scratch/freq.80/freq.hostnames

The output will be reduced. Please look at the following files:
SCF program output             ... >/tmp/slurm-scratch/freq.80/freq.lastscf
Integral program output        ... >/tmp/slurm-scratch/freq.80/freq.lastint
Gradient program output        ... >/tmp/slurm-scratch/freq.80/freq.lastgrad
Dipole moment program output   ... >/tmp/slurm-scratch/freq.80/freq.lastmom
AutoCI program output          ... >/tmp/slurm-scratch/freq.80/freq.lastautoci


         <<< Energy and Gradient at the input geometry >>>

        <<< Energy and Gradient at displaced geometries >>>
             <<<Displacing   1/coordinate 1 (+)>>>
             <<<Displacing   1/coordinate 2 (+)>>>
             <<<Displacing   3/coordinate 2 (+)>>>
             <<<Displacing   2/coordinate 1 (+)>>>
             <<<Displacing   2/coordinate 2 (+)>>>
             <<<Displacing   3/coordinate 1 (+)>>>
             <<<Displacing   1/coordinate 3 (+)>>>
             <<<Displacing   2/coordinate 3 (+)>>>
             <<<Displacing   2/coordinate 1 (-)>>>
             <<<Displacing   1/coordinate 1 (-)>>>
             <<<Displacing   1/coordinate 2 (-)>>>
             <<<Displacing   2/coordinate 2 (-)>>>
             <<<Displacing   3/coordinate 2 (-)>>>
             <<<Displacing   1/coordinate 3 (-)>>>
             <<<Displacing   3/coordinate 1 (-)>>>
             <<<Displacing   2/coordinate 3 (-)>>>
             <<<Displacing   3/coordinate 3 (+)>>>
             <<<Displacing   4/coordinate 1 (+)>>>
             <<<Displacing   4/coordinate 3 (+)>>>
             <<<Displacing   4/coordinate 2 (+)>>>
             <<<Displacing   5/coordinate 3 (+)>>>
             <<<Displacing   5/coordinate 1 (+)>>>
             <<<Displacing   3/coordinate 3 (-)>>>
             <<<Displacing   5/coordinate 2 (+)>>>
             <<<Displacing   4/coordinate 1 (-)>>>
             <<<Displacing   4/coordinate 3 (-)>>>
             <<<Displacing   6/coordinate 1 (+)>>>
             <<<Displacing   5/coordinate 3 (-)>>>
             <<<Displacing   5/coordinate 1 (-)>>>
             <<<Displacing   4/coordinate 2 (-)>>>
             <<<Displacing   5/coordinate 2 (-)>>>
             <<<Displacing   6/coordinate 1 (-)>>>
             <<<Displacing   6/coordinate 2 (+)>>>
             <<<Displacing   6/coordinate 3 (+)>>>
             <<<Displacing   7/coordinate 1 (+)>>>
             <<<Displacing   7/coordinate 3 (+)>>>
             <<<Displacing   7/coordinate 2 (+)>>>
             <<<Displacing   6/coordinate 2 (-)>>>
             <<<Displacing   8/coordinate 2 (+)>>>
             <<<Displacing   8/coordinate 1 (+)>>>
             <<<Displacing   6/coordinate 3 (-)>>>
             <<<Displacing   7/coordinate 1 (-)>>>
             <<<Displacing   7/coordinate 3 (-)>>>
             <<<Displacing   8/coordinate 2 (-)>>>
             <<<Displacing   7/coordinate 2 (-)>>>
             <<<Displacing   8/coordinate 3 (+)>>>
             <<<Displacing   8/coordinate 1 (-)>>>
             <<<Displacing   8/coordinate 3 (-)>>>
             <<<Displacing   9/coordinate 2 (+)>>>
             <<<Displacing   9/coordinate 1 (+)>>>
             <<<Displacing   9/coordinate 3 (+)>>>
             <<<Displacing  10/coordinate 3 (+)>>>
             <<<Displacing  10/coordinate 2 (+)>>>
             <<<Displacing  11/coordinate 1 (+)>>>
             <<<Displacing   9/coordinate 2 (-)>>>
             <<<Displacing  10/coordinate 1 (+)>>>
             <<<Displacing   9/coordinate 1 (-)>>>
             <<<Displacing   9/coordinate 3 (-)>>>
             <<<Displacing  10/coordinate 2 (-)>>>
             <<<Displacing  10/coordinate 3 (-)>>>
             <<<Displacing  11/coordinate 2 (+)>>>
             <<<Displacing  11/coordinate 1 (-)>>>
             <<<Displacing  10/coordinate 1 (-)>>>
             <<<Displacing  11/coordinate 2 (-)>>>
             <<<Displacing  11/coordinate 3 (+)>>>
             <<<Displacing  12/coordinate 2 (+)>>>
             <<<Displacing  12/coordinate 1 (+)>>>
             <<<Displacing  13/coordinate 2 (+)>>>
             <<<Displacing  12/coordinate 3 (+)>>>
             <<<Displacing  13/coordinate 1 (+)>>>
             <<<Displacing  13/coordinate 3 (+)>>>
             <<<Displacing  11/coordinate 3 (-)>>>
             <<<Displacing  12/coordinate 2 (-)>>>
             <<<Displacing  12/coordinate 1 (-)>>>
             <<<Displacing  13/coordinate 2 (-)>>>
             <<<Displacing  14/coordinate 1 (+)>>>
             <<<Displacing  13/coordinate 1 (-)>>>
             <<<Displacing  12/coordinate 3 (-)>>>
             <<<Displacing  13/coordinate 3 (-)>>>
             <<<Displacing  14/coordinate 1 (-)>>>
             <<<Displacing  14/coordinate 2 (+)>>>
             <<<Displacing  15/coordinate 2 (+)>>>
             <<<Displacing  14/coordinate 3 (+)>>>
             <<<Displacing  15/coordinate 3 (+)>>>
             <<<Displacing  16/coordinate 1 (+)>>>
             <<<Displacing  16/coordinate 2 (+)>>>
             <<<Displacing  15/coordinate 1 (+)>>>
             <<<Displacing  14/coordinate 2 (-)>>>
             <<<Displacing  15/coordinate 2 (-)>>>
             <<<Displacing  16/coordinate 3 (+)>>>
             <<<Displacing  14/coordinate 3 (-)>>>
             <<<Displacing  15/coordinate 3 (-)>>>
             <<<Displacing  16/coordinate 1 (-)>>>
             <<<Displacing  16/coordinate 2 (-)>>>
             <<<Displacing  15/coordinate 1 (-)>>>
             <<<Displacing  16/coordinate 3 (-)>>>
             <<<Displacing  17/coordinate 1 (+)>>>
             <<<Displacing  18/coordinate 1 (+)>>>
             <<<Displacing  17/coordinate 3 (+)>>>
             <<<Displacing  17/coordinate 2 (+)>>>
             <<<Displacing  18/coordinate 1 (-)>>>
             <<<Displacing  17/coordinate 3 (-)>>>
             <<<Displacing  17/coordinate 1 (-)>>>
             <<<Displacing  18/coordinate 3 (+)>>>
             <<<Displacing  17/coordinate 2 (-)>>>
             <<<Displacing  19/coordinate 1 (+)>>>
             <<<Displacing  18/coordinate 2 (+)>>>
             <<<Displacing  19/coordinate 1 (-)>>>
             <<<Displacing  18/coordinate 2 (-)>>>
             <<<Displacing  18/coordinate 3 (-)>>>
             <<<Displacing  19/coordinate 2 (+)>>>
             <<<Displacing  19/coordinate 2 (-)>>>
             <<<Displacing  19/coordinate 3 (+)>>>
             <<<Displacing  20/coordinate 2 (+)>>>
             <<<Displacing  20/coordinate 1 (+)>>>
             <<<Displacing  20/coordinate 3 (+)>>>
             <<<Displacing  21/coordinate 1 (+)>>>
             <<<Displacing  19/coordinate 3 (-)>>>
             <<<Displacing  20/coordinate 1 (-)>>>
             <<<Displacing  20/coordinate 3 (-)>>>
             <<<Displacing  21/coordinate 3 (+)>>>
             <<<Displacing  20/coordinate 2 (-)>>>
             <<<Displacing  21/coordinate 2 (+)>>>
             <<<Displacing  21/coordinate 1 (-)>>>
             <<<Displacing  21/coordinate 3 (-)>>>
             <<<Displacing  21/coordinate 2 (-)>>>
             <<<Displacing  22/coordinate 1 (+)>>>
             <<<Displacing  22/coordinate 1 (-)>>>
             <<<Displacing  22/coordinate 2 (+)>>>
             <<<Displacing  22/coordinate 3 (+)>>>
             <<<Displacing  23/coordinate 1 (+)>>>
             <<<Displacing  22/coordinate 2 (-)>>>
             <<<Displacing  23/coordinate 3 (+)>>>
             <<<Displacing  23/coordinate 2 (+)>>>
             <<<Displacing  22/coordinate 3 (-)>>>
             <<<Displacing  23/coordinate 1 (-)>>>
             <<<Displacing  24/coordinate 2 (+)>>>
             <<<Displacing  24/coordinate 1 (+)>>>
             <<<Displacing  23/coordinate 3 (-)>>>
             <<<Displacing  23/coordinate 2 (-)>>>
             <<<Displacing  24/coordinate 2 (-)>>>
             <<<Displacing  24/coordinate 1 (-)>>>
             <<<Displacing  24/coordinate 3 (+)>>>
             <<<Displacing  24/coordinate 3 (-)>>>
             <<<Displacing  25/coordinate 1 (+)>>>
             <<<Displacing  25/coordinate 2 (+)>>>
             <<<Displacing  25/coordinate 1 (-)>>>
             <<<Displacing  25/coordinate 3 (+)>>>
             <<<Displacing  26/coordinate 1 (+)>>>
             <<<Displacing  26/coordinate 2 (+)>>>
             <<<Displacing  25/coordinate 2 (-)>>>
             <<<Displacing  25/coordinate 3 (-)>>>
             <<<Displacing  26/coordinate 3 (+)>>>
             <<<Displacing  26/coordinate 1 (-)>>>
             <<<Displacing  26/coordinate 2 (-)>>>
             <<<Displacing  27/coordinate 1 (+)>>>
             <<<Displacing  26/coordinate 3 (-)>>>
             <<<Displacing  27/coordinate 1 (-)>>>
             <<<Displacing  27/coordinate 2 (+)>>>
             <<<Displacing  27/coordinate 2 (-)>>>
             <<<Displacing  27/coordinate 3 (+)>>>
             <<<Displacing  27/coordinate 3 (-)>>>
             <<<Displacing  28/coordinate 2 (+)>>>
             <<<Displacing  28/coordinate 1 (+)>>>
             <<<Displacing  29/coordinate 1 (+)>>>
             <<<Displacing  28/coordinate 2 (-)>>>
             <<<Displacing  29/coordinate 2 (+)>>>
             <<<Displacing  28/coordinate 1 (-)>>>
             <<<Displacing  28/coordinate 3 (+)>>>
             <<<Displacing  29/coordinate 3 (+)>>>
             <<<Displacing  29/coordinate 1 (-)>>>
             <<<Displacing  29/coordinate 2 (-)>>>
             <<<Displacing  28/coordinate 3 (-)>>>
             <<<Displacing  29/coordinate 3 (-)>>>
             <<<Displacing  30/coordinate 1 (+)>>>
             <<<Displacing  30/coordinate 1 (-)>>>
             <<<Displacing  30/coordinate 2 (+)>>>
             <<<Displacing  30/coordinate 2 (-)>>>
             <<<Displacing  30/coordinate 3 (+)>>>
             <<<Displacing  30/coordinate 3 (-)>>>

-----------------------
VIBRATIONAL FREQUENCIES
-----------------------

Scaling factor for frequencies =  1.000000000 (already applied!)

   0:         0.00 cm**-1
   1:         0.00 cm**-1
   2:         0.00 cm**-1
   3:         0.00 cm**-1
   4:         0.00 cm**-1
   5:         0.00 cm**-1
   6:     -1550.63 cm**-1 ***imaginary mode***
   7:        45.58 cm**-1
   8:        65.63 cm**-1
   9:        66.73 cm**-1
  10:        81.95 cm**-1
  11:       120.04 cm**-1
  12:       124.51 cm**-1
  13:       181.35 cm**-1
  14:       213.28 cm**-1
  15:       253.25 cm**-1
  16:       272.82 cm**-1
  17:       290.41 cm**-1
  18:       370.83 cm**-1
  19:       380.75 cm**-1
  20:       396.01 cm**-1
  21:       424.55 cm**-1
  22:       505.94 cm**-1
  23:       587.68 cm**-1
  24:       590.41 cm**-1
  25:       668.58 cm**-1
  26:       711.02 cm**-1
  27:       752.09 cm**-1
  28:       770.76 cm**-1
  29:       783.39 cm**-1
  30:       814.74 cm**-1
  31:       854.22 cm**-1
  32:       882.57 cm**-1
  33:       886.56 cm**-1
  34:       907.71 cm**-1
  35:       930.82 cm**-1
  36:       936.75 cm**-1
  37:       949.36 cm**-1
  38:       956.64 cm**-1
  39:       981.41 cm**-1
  40:      1041.77 cm**-1
  41:      1066.20 cm**-1
  42:      1070.62 cm**-1
  43:      1087.62 cm**-1
  44:      1103.78 cm**-1
  45:      1107.51 cm**-1
  46:      1116.27 cm**-1
  47:      1132.08 cm**-1
  48:      1137.68 cm**-1
  49:      1178.60 cm**-1
  50:      1184.52 cm**-1
  51:      1196.84 cm**-1
  52:      1207.52 cm**-1
  53:      1216.27 cm**-1
  54:      1250.41 cm**-1
  55:      1264.03 cm**-1
  56:      1269.43 cm**-1
  57:      1276.61 cm**-1
  58:      1281.03 cm**-1
  59:      1297.68 cm**-1
  60:      1313.70 cm**-1
  61:      1336.60 cm**-1
  62:      1370.71 cm**-1
  63:      1425.47 cm**-1
  64:      1428.96 cm**-1
  65:      1457.60 cm**-1
  66:      1470.06 cm**-1
  67:      1498.78 cm**-1
  68:      1503.74 cm**-1
  69:      1507.69 cm**-1
  70:      1510.39 cm**-1
  71:      1567.25 cm**-1
  72:      1573.76 cm**-1
  73:      1700.58 cm**-1
  74:      2833.88 cm**-1
  75:      2943.33 cm**-1
  76:      2953.49 cm**-1
  77:      2967.63 cm**-1
  78:      2979.89 cm**-1
  79:      2981.10 cm**-1
  80:      2987.23 cm**-1
  81:      2990.31 cm**-1
  82:      3000.91 cm**-1
  83:      3002.47 cm**-1
  84:      3038.57 cm**-1
  85:      3049.88 cm**-1
  86:      3054.27 cm**-1
  87:      3066.86 cm**-1
  88:      3074.72 cm**-1
  89:      3336.97 cm**-1


------------
NORMAL MODES
------------

These modes are the cartesian displacements weighted by the diagonal matrix
M(i,i)=1/sqrt(m[i]) where m[i] is the mass of the displaced atom
Thus, these vectors are normalized but *not* orthogonal

                  0          1          2          3          4          5    
      0       0.000000   0.000000   0.000000   0.000000   0.000000   0.000000
      1       0.000000   0.000000   0.000000   0.000000   0.000000   0.000000
      2       0.000000   0.000000   0.000000   0.000000   0.000000   0.000000
      3       0.000000   0.000000   0.000000   0.000000   0.000000   0.000000
      4       0.000000   0.000000   0.000000   0.000000   0.000000   0.000000
      5       0.000000   0.000000   0.000000   0.000000   0.000000   0.000000
      6       0.000000   0.000000   0.000000   0.000000   0.000000   0.000000
      7       0.000000   0.000000   0.000000   0.000000   0.000000   0.000000
      8       0.000000   0.000000   0.000000   0.000000   0.000000   0.000000
      9       0.000000   0.000000   0.000000   0.000000   0.000000   0.000000
     10       0.000000   0.000000   0.000000   0.000000   0.000000   0.000000
     11       0.000000   0.000000   0.000000   0.000000   0.000000   0.000000
     12       0.000000   0.000000   0.000000   0.000000   0.000000   0.000000
     13       0.000000   0.000000   0.000000   0.000000   0.000000   0.000000
     14       0.000000   0.000000   0.000000   0.000000   0.000000   0.000000
     15       0.000000   0.000000   0.000000   0.000000   0.000000   0.000000
     16       0.000000   0.000000   0.000000   0.000000   0.000000   0.000000
     17       0.000000   0.000000   0.000000   0.000000   0.000000   0.000000
     18       0.000000   0.000000   0.000000   0.000000   0.000000   0.000000
     19       0.000000   0.000000   0.000000   0.000000   0.000000   0.000000
     20       0.000000   0.000000   0.000000   0.000000   0.000000   0.000000
     21       0.000000   0.000000   0.000000   0.000000   0.000000   0.000000
     22       0.000000   0.000000   0.000000   0.000000   0.000000   0.000000
     23       0.000000   0.000000   0.000000   0.000000   0.000000   0.000000
     24       0.000000   0.000000   0.000000   0.000000   0.000000   0.000000
     25       0.000000   0.000000   0.000000   0.000000   0.000000   0.000000
     26       0.000000   0.000000   0.000000   0.000000   0.000000   0.000000
     27       0.000000   0.000000   0.000000   0.000000   0.000000   0.000000
     28       0.000000   0.000000   0.000000   0.000000   0.000000   0.000000
     29       0.000000   0.000000   0.000000   0.000000   0.000000   0.000000
     30       0.000000   0.000000   0.000000   0.000000   0.000000   0.000000
     31       0.000000   0.000000   0.000000   0.000000   0.000000   0.000000
     32       0.000000   0.000000   0.000000   0.000000   0.000000   0.000000
     33       0.000000   0.000000   0.000000   0.000000   0.000000   0.000000
     34       0.000000   0.000000   0.000000   0.000000   0.000000   0.000000
     35       0.000000   0.000000   0.000000   0.000000   0.000000   0.000000
     36       0.000000   0.000000   0.000000   0.000000   0.000000   0.000000
     37       0.000000   0.000000   0.000000   0.000000   0.000000   0.000000
     38       0.000000   0.000000   0.000000   0.000000   0.000000   0.000000
     39       0.000000   0.000000   0.000000   0.000000   0.000000   0.000000
     40       0.000000   0.000000   0.000000   0.000000   0.000000   0.000000
     41       0.000000   0.000000   0.000000   0.000000   0.000000   0.000000
     42       0.000000   0.000000   0.000000   0.000000   0.000000   0.000000
     43       0.000000   0.000000   0.000000   0.000000   0.000000   0.000000
     44       0.000000   0.000000   0.000000   0.000000   0.000000   0.000000
     45       0.000000   0.000000   0.000000   0.000000   0.000000   0.000000
     46       0.000000   0.000000   0.000000   0.000000   0.000000   0.000000
     47       0.000000   0.000000   0.000000   0.000000   0.000000   0.000000
     48       0.000000   0.000000   0.000000   0.000000   0.000000   0.000000
     49       0.000000   0.000000   0.000000   0.000000   0.000000   0.000000
     50       0.000000   0.000000   0.000000   0.000000   0.000000   0.000000
     51       0.000000   0.000000   0.000000   0.000000   0.000000   0.000000
     52       0.000000   0.000000   0.000000   0.000000   0.000000   0.000000
     53       0.000000   0.000000   0.000000   0.000000   0.000000   0.000000
     54       0.000000   0.000000   0.000000   0.000000   0.000000   0.000000
     55       0.000000   0.000000   0.000000   0.000000   0.000000   0.000000
     56       0.000000   0.000000   0.000000   0.000000   0.000000   0.000000
     57       0.000000   0.000000   0.000000   0.000000   0.000000   0.000000
     58       0.000000   0.000000   0.000000   0.000000   0.000000   0.000000
     59       0.000000   0.000000   0.000000   0.000000   0.000000   0.000000
     60       0.000000   0.000000   0.000000   0.000000   0.000000   0.000000
     61       0.000000   0.000000   0.000000   0.000000   0.000000   0.000000
     62       0.000000   0.000000   0.000000   0.000000   0.000000   0.000000
     63       0.000000   0.000000   0.000000   0.000000   0.000000   0.000000
     64       0.000000   0.000000   0.000000   0.000000   0.000000   0.000000
     65       0.000000   0.000000   0.000000   0.000000   0.000000   0.000000
     66       0.000000   0.000000   0.000000   0.000000   0.000000   0.000000
     67       0.000000   0.000000   0.000000   0.000000   0.000000   0.000000
     68       0.000000   0.000000   0.000000   0.000000   0.000000   0.000000
     69       0.000000   0.000000   0.000000   0.000000   0.000000   0.000000
     70       0.000000   0.000000   0.000000   0.000000   0.000000   0.000000
     71       0.000000   0.000000   0.000000   0.000000   0.000000   0.000000
     72       0.000000   0.000000   0.000000   0.000000   0.000000   0.000000
     73       0.000000   0.000000   0.000000   0.000000   0.000000   0.000000
     74       0.000000   0.000000   0.000000   0.000000   0.000000   0.000000
     75       0.000000   0.000000   0.000000   0.000000   0.000000   0.000000
     76       0.000000   0.000000   0.000000   0.000000   0.000000   0.000000
     77       0.000000   0.000000   0.000000   0.000000   0.000000   0.000000
     78       0.000000   0.000000   0.000000   0.000000   0.000000   0.000000
     79       0.000000   0.000000   0.000000   0.000000   0.000000   0.000000
     80       0.000000   0.000000   0.000000   0.000000   0.000000   0.000000
     81       0.000000   0.000000   0.000000   0.000000   0.000000   0.000000
     82       0.000000   0.000000   0.000000   0.000000   0.000000   0.000000
     83       0.000000   0.000000   0.000000   0.000000   0.000000   0.000000
     84       0.000000   0.000000   0.000000   0.000000   0.000000   0.000000
     85       0.000000   0.000000   0.000000   0.000000   0.000000   0.000000
     86       0.000000   0.000000   0.000000   0.000000   0.000000   0.000000
     87       0.000000   0.000000   0.000000   0.000000   0.000000   0.000000
     88       0.000000   0.000000   0.000000   0.000000   0.000000   0.000000
     89       0.000000   0.000000   0.000000   0.000000   0.000000   0.000000
                  6          7          8          9         10         11    
      0      -0.000019   0.023324  -0.061674   0.015906  -0.013277   0.024858
      1       0.000037  -0.115600   0.004901  -0.036233  -0.005039  -0.063836
      2      -0.000263   0.022950   0.169836   0.150194   0.014657   0.106277
      3      -0.001619   0.017965  -0.043117   0.018309  -0.010311   0.019299
      4       0.001801  -0.054374   0.004036   0.011890  -0.019192  -0.071709
      5      -0.002038  -0.019699  -0.026444   0.042775   0.003449   0.161122
      6      -0.001188  -0.023232   0.013424   0.009294   0.008172   0.027358
      7       0.000433  -0.010854   0.026962   0.055957  -0.015659  -0.055390
      8      -0.000295  -0.118568  -0.171864  -0.097690  -0.030782   0.091853
      9       0.000102  -0.058815   0.048272  -0.003390   0.022984   0.037961
     10       0.000350  -0.030182   0.046258   0.050842   0.001946  -0.011045
     11       0.000140  -0.174623  -0.120799  -0.127018  -0.054795  -0.081414
     12      -0.000102  -0.053154   0.027108  -0.007111   0.019434   0.044897
     13      -0.000073  -0.091105   0.043628   0.001724   0.015898   0.012128
     14      -0.000201  -0.135708   0.082128  -0.016380  -0.043402  -0.185635
     15      -0.000262  -0.012013  -0.026973   0.003350   0.001396   0.036049
     16      -0.000045  -0.133499   0.024319  -0.040320   0.012555  -0.017718
     17       0.000103  -0.037761   0.223699   0.119653  -0.007347  -0.068373
     18       0.000009   0.053745  -0.101200   0.027037  -0.026413   0.024757
     19      -0.000446  -0.149608  -0.011315  -0.068689  -0.005560  -0.082664
     20       0.001237   0.105870   0.280283   0.253734   0.035415   0.175650
     21       0.000948  -0.026798   0.029724   0.013961   0.010600   0.023894
     22      -0.008824   0.040397   0.033642   0.095119  -0.025327  -0.072151
     23       0.002129  -0.146585  -0.313756  -0.180490  -0.039316   0.139545
     24       0.000200  -0.079913   0.054658  -0.017329   0.030716   0.053116
     25       0.000454  -0.104598   0.057885  -0.002377   0.029919   0.054357
     26      -0.000096  -0.181057   0.126594  -0.038463  -0.063086  -0.348750
     27       0.025399   0.055569  -0.089483   0.033568  -0.020951   0.023226
     28       0.002353  -0.030576  -0.029611   0.017918  -0.027568  -0.047644
     29       0.048805   0.031330  -0.045429   0.073479   0.001092   0.095967
     30      -0.014792   0.071278  -0.154462   0.071212  -0.033666   0.066613
     31      -0.002543  -0.041913  -0.007973   0.012022  -0.025618  -0.071259
     32      -0.018480   0.010190  -0.144031   0.182148  -0.042866   0.078569
     33      -0.028159   0.028209  -0.128160   0.068739  -0.032190   0.079362
     34      -0.002513  -0.010958  -0.141470   0.110299  -0.064146  -0.041545
     35       0.031597   0.081915   0.046215  -0.005809   0.027705  -0.014829
     36       0.020099   0.115421   0.015956  -0.055002   0.004051  -0.121335
     37       0.003161  -0.030183   0.022837  -0.072518   0.028071   0.094740
     38      -0.000468   0.053875  -0.006202   0.040791   0.012459   0.045634
     39      -0.235035   0.082431  -0.044492  -0.003045  -0.010989  -0.038820
     40      -0.030053  -0.059594  -0.096552   0.037630  -0.015703   0.083311
     41      -0.967202   0.093190   0.067105  -0.023532   0.030713  -0.040535
     42       0.001635   0.047005   0.069466  -0.060042  -0.038820  -0.095186
     43       0.004300   0.128689   0.076544  -0.087340  -0.055887   0.113767
     44       0.003086   0.018258  -0.122628   0.055149   0.127520  -0.063072
     45       0.006529   0.056838   0.043701  -0.078980   0.017907  -0.105173
     46      -0.006224   0.011072   0.055195  -0.121795   0.065529   0.163998
     47      -0.006787   0.013883  -0.053734   0.110728  -0.038508  -0.042429
     48      -0.001712   0.064860   0.087559  -0.048151  -0.094579  -0.111220
     49      -0.021432  -0.009395   0.065336  -0.200005   0.200606   0.253081
     50      -0.014928   0.019311  -0.013823   0.129273  -0.123464  -0.039703
     51      -0.002627  -0.004555   0.001657  -0.135585   0.186428  -0.063368
     52      -0.004025  -0.023484   0.036197  -0.098737   0.053470   0.128995
     53      -0.001314  -0.012699  -0.063612   0.170173  -0.130873  -0.114044
     54      -0.001104   0.134818   0.145443  -0.053889  -0.254830  -0.093988
     55      -0.001065   0.129075   0.024692  -0.025078   0.011753   0.053763
     56      -0.001070  -0.017812  -0.240098   0.154673   0.331601  -0.161605
     57       0.001738   0.045929   0.022172  -0.091994   0.074430  -0.117960
     58      -0.000128   0.235247   0.211078  -0.198555  -0.329364   0.179663
     59      -0.000342   0.025286  -0.151587   0.019079   0.202437  -0.077537
     60       0.034621   0.181267   0.094057  -0.107323   0.009504  -0.222723
     61       0.015994  -0.001225   0.051497  -0.107860   0.049299   0.124606
     62      -0.011261   0.075999   0.010611  -0.000263   0.048774   0.148624
     63       0.001367  -0.089034   0.060807   0.008109   0.046288  -0.010132
     64       0.000227   0.107951  -0.027374   0.025794   0.091690   0.005191
     65       0.000447   0.073862   0.015654  -0.108891  -0.083815   0.059826
     66      -0.000641  -0.111167   0.075045   0.058128  -0.057916   0.062952
     67      -0.000451   0.010270  -0.137552   0.142088   0.360981  -0.079900
     68      -0.000247   0.047338   0.019891  -0.056976  -0.154220   0.116746
     69      -0.000461  -0.151413   0.035861  -0.012109   0.254872  -0.041067
     70       0.000490   0.109864   0.033923  -0.041634   0.023945   0.075365
     71      -0.000267   0.103730   0.126612  -0.210569  -0.283501   0.188221
     72      -0.000648  -0.006937  -0.041107   0.001584  -0.001311   0.038559
     73       0.000881  -0.180247   0.023325  -0.075755   0.023927   0.000855
     74       0.000165  -0.006731   0.377305   0.202813   0.001282  -0.128082
     75      -0.000046  -0.090554   0.091226  -0.010424   0.036844   0.039498
     76       0.000713   0.002813   0.062504   0.084230   0.004914   0.008982
     77       0.000372  -0.247222  -0.231417  -0.232559  -0.082678  -0.152404
     78       0.000477  -0.118588   0.068109   0.045607  -0.001665   0.048476
     79       0.000717   0.211948  -0.071466   0.075025  -0.027244  -0.104539
     80       0.000325   0.129127   0.006666  -0.212755   0.059361  -0.065076
     81       0.001826  -0.211727   0.074788   0.089185   0.044547   0.143403
     82       0.000765   0.207561  -0.122504   0.129849   0.041832  -0.177406
     83       0.001028   0.149337   0.074345  -0.293325  -0.040736   0.018304
     84       0.000243  -0.096097   0.058767  -0.006607   0.096411  -0.025433
     85      -0.000173   0.284974  -0.006636   0.004570  -0.224910  -0.045542
     86      -0.000596   0.158127   0.005547  -0.268666   0.126254  -0.125959
     87       0.000047  -0.070141   0.076306   0.081892  -0.181293   0.072976
     88      -0.000360   0.220992  -0.117234   0.124737   0.012666  -0.176076
     89      -0.000348   0.121697  -0.065962  -0.153501   0.197816  -0.183590
                 12         13         14         15         16         17    
      0      -0.015035   0.114247  -0.075760  -0.017114  -0.002294   0.065419
      1      -0.006138   0.028581  -0.023623  -0.021756   0.001400   0.023030
      2      -0.002478  -0.062655  -0.120044  -0.055314   0.020444  -0.160972
      3      -0.012096   0.101486  -0.070025  -0.018390  -0.000530   0.042734
      4      -0.013004   0.111256  -0.089504  -0.030564   0.001817   0.026838
      5      -0.022836  -0.044766  -0.114780  -0.040354   0.006675  -0.001045
      6      -0.000677   0.008043   0.023647   0.017984  -0.005334   0.047830
      7      -0.016110   0.140715  -0.124027  -0.044924   0.001178   0.065693
      8      -0.026083  -0.027186  -0.128604  -0.058459   0.019242  -0.149080
      9       0.008719  -0.089918   0.108153   0.036950  -0.004440   0.010469
     10      -0.012124   0.054029  -0.089860  -0.042189   0.005586   0.013127
     11      -0.009183   0.024303  -0.007193  -0.017905   0.004699  -0.049759
     12       0.005391  -0.076055   0.088932   0.031906  -0.003325   0.004225
     13      -0.005070  -0.048890  -0.036569  -0.036439   0.012278  -0.079889
     14       0.011488   0.047192   0.101273   0.022152  -0.016050   0.146453
     15      -0.006174   0.023671   0.001826   0.002297  -0.001960   0.034602
     16      -0.001671  -0.065513   0.022149  -0.015046   0.005785  -0.034013
     17       0.015047  -0.020930   0.002473  -0.016901   0.005465  -0.055325
     18      -0.025610   0.190565  -0.139780  -0.027551  -0.004860   0.107661
     19      -0.002466   0.008028   0.012388  -0.012869  -0.000872   0.034494
     20      -0.001069  -0.090171  -0.161630  -0.071945   0.031637  -0.257379
     21       0.001958  -0.005709   0.041788   0.024575  -0.006439   0.050968
     22      -0.021914   0.243508  -0.215365  -0.070415   0.000743   0.109957
     23      -0.041097  -0.030003  -0.175116  -0.087114   0.029644  -0.229024
     24       0.012037  -0.136853   0.133447   0.044251  -0.002537  -0.025351
     25      -0.002060  -0.114975  -0.027567  -0.036062   0.018082  -0.151156
     26       0.024257   0.108352   0.240982   0.071408  -0.040059   0.359286
     27      -0.010296   0.040758   0.016243  -0.021196   0.005088  -0.014751
     28      -0.006438   0.049235  -0.024418  -0.007458   0.004682  -0.044425
     29      -0.046055  -0.014310   0.028556  -0.073415   0.002147   0.143798
     30      -0.009147  -0.098709   0.150532  -0.031253   0.010501  -0.032542
     31      -0.011368   0.110625  -0.084988  -0.006497   0.001048  -0.019708
     32      -0.088257  -0.072829   0.094658  -0.110382  -0.001449   0.230730
     33      -0.019452   0.018954  -0.039265   0.000026  -0.003795   0.028773
     34      -0.028896  -0.180340   0.247182  -0.073259   0.018422  -0.032811
     35      -0.025032   0.054293   0.103203  -0.100589   0.016367   0.056769
     36       0.008095   0.109361   0.085435  -0.076052   0.028885  -0.176900
     37       0.059520  -0.030251  -0.071335   0.105114  -0.016154   0.033532
     38      -0.035917   0.013053   0.065819  -0.055673   0.001680   0.110048
     39      -0.005252   0.086555   0.044114  -0.045076   0.015241  -0.087753
     40       0.045280  -0.301174   0.036931   0.124328  -0.029560   0.134753
     41      -0.023847   0.060688   0.096211  -0.117858   0.021734   0.024876
     42      -0.022677  -0.139929  -0.110237  -0.018875   0.006367   0.022515
     43      -0.086742   0.073399   0.124421   0.079096   0.002439  -0.048925
     44       0.148411   0.055896   0.043901   0.079044  -0.027862  -0.068189
     45       0.044855  -0.109599  -0.066417  -0.065294   0.014015  -0.012324
     46       0.066780   0.015345   0.041497  -0.036573   0.009711   0.089274
     47      -0.052972   0.004825  -0.036015   0.172969  -0.038072  -0.002719
     48      -0.084960  -0.156091  -0.130541   0.021397   0.002905   0.006119
     49       0.196651  -0.054850   0.079723  -0.315031   0.045202   0.282037
     50      -0.153567  -0.043495  -0.088366   0.220409  -0.044101   0.031787
     51       0.247471  -0.157340  -0.074014  -0.238555   0.030924   0.097791
     52       0.078639  -0.016683  -0.035591   0.054735  -0.007260   0.066362
     53      -0.123584  -0.021006  -0.150915   0.390002  -0.071557  -0.087352
     54      -0.186194  -0.155977  -0.121413   0.106102   0.027810  -0.010128
     55      -0.104750   0.074053   0.121864   0.082747  -0.026975  -0.083162
     56       0.186630   0.067500   0.048719   0.031064  -0.085853  -0.112830
     57       0.094458  -0.132293  -0.081803  -0.107237   0.006710   0.002524
     58      -0.161610   0.041804   0.115834   0.146887   0.073787  -0.046066
     59       0.242003   0.056758   0.064671   0.006668  -0.021863  -0.083169
     60      -0.025673   0.353350   0.182825  -0.246570   0.076797  -0.366934
     61       0.061047   0.037118  -0.005593   0.016764   0.003667   0.031426
     62      -0.017524   0.023236   0.138734  -0.139018   0.015923   0.194683
     63      -0.034166  -0.040751  -0.032180   0.056026  -0.029262   0.015715
     64      -0.087870   0.054345   0.089795   0.078735  -0.044140  -0.078379
     65       0.154138   0.052368   0.069170   0.092116   0.034841  -0.031637
     66       0.112725   0.025108   0.024642   0.084076   0.001595   0.001133
     67      -0.205923   0.088016   0.105324   0.113609  -0.104660  -0.127035
     68       0.272723   0.110832   0.118210   0.118369   0.056209  -0.046340
     69      -0.259321  -0.014865   0.006766   0.078276  -0.088241  -0.028930
     70      -0.110674   0.082321   0.133425   0.088769  -0.034867  -0.081598
     71       0.212422   0.088390   0.125857   0.098450   0.073929  -0.019851
     72      -0.008586   0.039256  -0.015075  -0.002509  -0.001718   0.039658
     73       0.003968  -0.152930   0.097662   0.009378   0.004139  -0.050001
     74       0.030706  -0.026520   0.044079  -0.008362   0.005455  -0.077123
     75       0.018148  -0.169135   0.174738   0.049008  -0.003297  -0.020847
     76      -0.014775   0.073782  -0.123707  -0.048312   0.005242   0.029830
     77      -0.012195   0.058665   0.022738  -0.012927   0.004554  -0.067652
     78       0.050551   0.030462   0.037539   0.085903  -0.011298  -0.018685
     79       0.116264  -0.108208  -0.111175   0.033526  -0.003925   0.041517
     80      -0.096628  -0.093180  -0.062858   0.051994  -0.022805   0.025343
     81       0.024815   0.201532   0.218318   0.195925   0.148428  -0.102946
     82       0.101526  -0.143043  -0.177248   0.169791   0.313203   0.128672
     83      -0.072842  -0.072985  -0.002240  -0.148293  -0.474283  -0.078499
     84      -0.107629  -0.049120  -0.038025   0.085820  -0.003973   0.022834
     85       0.271052  -0.161277  -0.136963  -0.234542  -0.545498  -0.020892
     86      -0.223406  -0.172335  -0.135211   0.020868  -0.079235   0.056315
     87       0.296989  -0.001366  -0.007725  -0.009019  -0.158110  -0.008078
     88       0.130024  -0.157468  -0.191044   0.138283   0.254648   0.128528
     89      -0.182983  -0.153501  -0.163455   0.250849   0.430551   0.151734
                 18         19         20         21         22         23    
      0       0.113682   0.011278  -0.031805  -0.080151  -0.017634  -0.108936
      1      -0.107248   0.050091   0.012500  -0.010345   0.010402  -0.307090
      2       0.031801  -0.199697  -0.005865  -0.010060  -0.041517  -0.088140
      3       0.054180  -0.000380  -0.020195  -0.058586   0.009443  -0.178274
      4       0.096585  -0.001166  -0.038025  -0.070286   0.055138   0.021869
      5      -0.037849   0.006996   0.038465   0.026145  -0.318877  -0.005605
      6       0.145414  -0.011881  -0.029149  -0.053790  -0.025640  -0.222532
      7       0.030533  -0.054624  -0.011391  -0.062041  -0.021113   0.065348
      8       0.048019   0.201021  -0.044647  -0.043113  -0.044451   0.004647
      9       0.093246   0.013408  -0.010972   0.008303  -0.015480   0.087950
     10      -0.036820   0.051536  -0.000404  -0.020424  -0.049695   0.306759
     11       0.044234  -0.204961  -0.011591  -0.018073   0.135464   0.083360
     12       0.120455   0.000482  -0.018882  -0.001910   0.001656   0.175568
     13      -0.147305  -0.004109   0.020878   0.029333   0.071757  -0.022477
     14      -0.102104   0.002836   0.046130   0.039926  -0.187277   0.006356
     15       0.088086  -0.011110  -0.016540  -0.030302  -0.014443   0.208665
     16      -0.159699  -0.053685   0.040754   0.052269  -0.018618  -0.076939
     17      -0.014538   0.195397  -0.029457  -0.016968   0.152499  -0.008652
     18       0.249498   0.022945  -0.066614  -0.140483  -0.059996  -0.151507
     19      -0.171639   0.113662   0.029915   0.019062  -0.039185  -0.281273
     20       0.097072  -0.445974  -0.025490  -0.035762   0.194752  -0.070916
     21       0.145015  -0.030109  -0.024292  -0.042519  -0.043693  -0.171093
     22      -0.025609  -0.123898   0.005412  -0.087327  -0.098171  -0.188586
     23       0.080383   0.429578  -0.096723  -0.093410   0.200273  -0.048710
     24       0.087639   0.001557  -0.009671   0.025058   0.015087  -0.059617
     25      -0.154630  -0.003407   0.018530   0.045137   0.096624  -0.207957
     26      -0.185651   0.004121   0.090998   0.072806  -0.252591  -0.047451
     27      -0.109552   0.004704   0.039165   0.104435   0.059921  -0.038960
     28       0.116214   0.005412  -0.011335   0.069552  -0.016247   0.137203
     29      -0.080072  -0.002222   0.023386  -0.001506   0.029548   0.048471
     30      -0.162856   0.008781   0.055487   0.150299   0.015391  -0.060710
     31       0.122363   0.000786  -0.024088   0.018490   0.028623   0.145109
     32      -0.228625  -0.021682  -0.028601  -0.169142   0.170907   0.091398
     33      -0.266994  -0.001156   0.058328   0.097450   0.090420   0.045946
     34       0.110782  -0.002340  -0.053988  -0.043630  -0.053304  -0.048665
     35       0.140045   0.006802   0.008898   0.064642   0.035405  -0.058301
     36       0.005628   0.010342   0.023415   0.149304  -0.055657  -0.042651
     37       0.178103   0.018172   0.113570   0.152372   0.017769  -0.040526
     38      -0.020332  -0.001718   0.011644   0.009624   0.086699   0.023860
     39      -0.081538   0.006219   0.022199   0.133611   0.024562  -0.023693
     40       0.149800   0.010281   0.187218  -0.155857   0.104414  -0.279824
     41       0.128282   0.007233   0.003259   0.031556  -0.025210  -0.008355
     42       0.007520   0.005037   0.134035  -0.067904   0.007910   0.031565
     43      -0.070723  -0.002554   0.005406  -0.093292  -0.007461   0.004026
     44      -0.019569   0.000979   0.055183  -0.064411  -0.007373   0.005889
     45      -0.010039   0.005076   0.171812  -0.113593  -0.005524   0.021709
     46       0.056399   0.003584   0.001480   0.101689   0.051591  -0.009246
     47       0.098050   0.012895   0.088406   0.094179   0.047155  -0.009925
     48       0.049323   0.012316   0.219989  -0.070222   0.003611   0.029025
     49      -0.098674  -0.017741  -0.037147  -0.119020   0.131658   0.088145
     50       0.135197   0.017285   0.128945   0.107848   0.061810   0.005761
     51      -0.060182  -0.004708   0.173763  -0.206821   0.036992   0.059788
     52       0.151412   0.013891   0.074044   0.167070   0.040472  -0.034263
     53       0.268517   0.033232   0.195422   0.244236   0.010348  -0.065114
     54       0.004548   0.008347   0.207124  -0.123007   0.011933   0.029329
     55      -0.076211  -0.000322   0.062440  -0.148217  -0.017078   0.019530
     56      -0.030333   0.003098   0.112929  -0.131189  -0.026285   0.032757
     57      -0.035614   0.003784   0.179196  -0.162398  -0.016869   0.059989
     58      -0.079054  -0.004493   0.072904  -0.144801  -0.002435   0.000259
     59      -0.056132  -0.000574   0.102451  -0.149599  -0.027123   0.029720
     60       0.044290   0.010692  -0.182903   0.399457  -0.232310   0.229795
     61       0.151685   0.014777   0.036514   0.232852   0.008609   0.004425
     62      -0.086589  -0.008058  -0.034207   0.041976   0.147810  -0.015539
     63      -0.056757  -0.012556  -0.164227   0.030205  -0.006569  -0.006312
     64      -0.062667  -0.000705   0.058823  -0.133807  -0.014768   0.018318
     65      -0.067571  -0.004329  -0.019025  -0.086387  -0.014210   0.010394
     66      -0.082895  -0.013848  -0.180837   0.001735  -0.013431  -0.004718
     67      -0.059650  -0.003861   0.034236  -0.119936  -0.022349   0.002661
     68      -0.089655  -0.005851  -0.039560  -0.106508  -0.020162   0.009866
     69      -0.069673  -0.015015  -0.169904   0.012012  -0.014645  -0.012753
     70      -0.089552  -0.002704   0.032477  -0.154051  -0.019226   0.019510
     71      -0.106199  -0.006183  -0.052949  -0.116956  -0.018393   0.016741
     72       0.085470  -0.022411  -0.015268  -0.036524  -0.031689   0.152942
     73      -0.155192  -0.113569   0.059114   0.104548  -0.097134   0.172031
     74       0.022150   0.426169  -0.080017  -0.052992   0.477377   0.061664
     75      -0.024745   0.027546   0.020151   0.071596  -0.003688   0.123635
     76      -0.012070   0.116489  -0.006184  -0.035669  -0.143617   0.279587
     77       0.105789  -0.445401  -0.031112  -0.046824   0.442370   0.085024
     78      -0.087386  -0.013031  -0.147634  -0.029215  -0.018438   0.000295
     79      -0.033554  -0.008603  -0.130506   0.027701  -0.006748  -0.000893
     80      -0.054625  -0.011318  -0.139603   0.006484  -0.009370  -0.001453
     81      -0.101685   0.000504   0.119925  -0.219781  -0.023164   0.033841
     82      -0.039391  -0.012145  -0.198669   0.068701  -0.006067  -0.008440
     83      -0.044456  -0.008689  -0.090682  -0.018077  -0.009454   0.003039
     84      -0.083287  -0.018393  -0.235568   0.034218  -0.014927  -0.011031
     85      -0.016999  -0.013070  -0.224933   0.102837  -0.006141  -0.014516
     86      -0.049229  -0.016759  -0.232429   0.073559  -0.006207  -0.013542
     87      -0.079709  -0.016667  -0.239192   0.037751  -0.019385  -0.011126
     88      -0.037239  -0.013451  -0.225580   0.087907  -0.006143  -0.011812
     89      -0.063100  -0.016997  -0.241753   0.067952  -0.007814  -0.012808
                 24         25         26         27         28         29    
      0      -0.149810  -0.015722  -0.073264  -0.008199   0.004301   0.052744
      1       0.055836  -0.044716  -0.013659  -0.016652  -0.005090  -0.008159
      2       0.005594   0.170706  -0.012799   0.057414   0.016546  -0.005775
      3      -0.110668   0.011525  -0.042429   0.002142   0.004123   0.015880
      4       0.157168   0.069630   0.038869   0.022804   0.003496  -0.031079
      5       0.031947  -0.260329   0.018778  -0.082693  -0.029852   0.003594
      6       0.194158  -0.014722   0.019112  -0.007891  -0.004229  -0.032543
      7       0.024265  -0.051187   0.046110  -0.018715  -0.014480  -0.109680
      8       0.016464   0.168638   0.006835   0.048790   0.006178  -0.031126
      9       0.094891   0.015252   0.036298   0.000161  -0.004442  -0.040171
     10      -0.100654   0.048127   0.054246  -0.011516  -0.016891  -0.155098
     11      -0.017922  -0.198760   0.021800   0.032981  -0.002194  -0.045421
     12       0.084805  -0.008410   0.049465   0.001026  -0.007279  -0.061344
     13      -0.171602  -0.044096  -0.052952  -0.016867   0.006799   0.084744
     14      -0.044824   0.165748  -0.016190   0.054893   0.012358   0.015660
     15      -0.265308   0.002714  -0.086563  -0.005617   0.011214   0.112222
     16      -0.049105   0.053248  -0.017509  -0.010060   0.003081   0.033932
     17      -0.024345  -0.200322  -0.004287   0.036803   0.004646   0.010388
     18       0.031947  -0.028117  -0.028730   0.009885   0.002428  -0.019751
     19      -0.012674  -0.124674  -0.030338   0.094106   0.018675   0.009268
     20       0.001308   0.476467  -0.014568  -0.371435  -0.065394   0.042308
     21       0.208217  -0.036855   0.029522   0.022916  -0.002233  -0.042298
     22      -0.117346  -0.154262  -0.008798   0.085834   0.003051  -0.081894
     23      -0.007023   0.469820  -0.015338  -0.325041  -0.033955  -0.016379
     24       0.233392  -0.017411   0.058585   0.033135   0.001736  -0.023929
     25      -0.043263  -0.112252  -0.038904   0.127047   0.031132   0.095461
     26       0.002637   0.446732  -0.014225  -0.483413  -0.070630   0.057642
     27      -0.053819   0.027502   0.071651   0.030132   0.001875   0.042151
     28       0.198860   0.010464   0.015697   0.023041   0.018814   0.272113
     29       0.077310  -0.028292   0.055671  -0.064073   0.029311   0.041010
     30      -0.099167  -0.023757   0.070155  -0.009845   0.001608   0.031477
     31       0.222734   0.048234   0.021288   0.048645   0.022411   0.247067
     32       0.147591   0.054975   0.029507   0.004608   0.054608  -0.018044
     33       0.101719   0.019934   0.032798   0.010685   0.007775   0.030738
     34      -0.047123  -0.016193  -0.047016  -0.009068  -0.003451  -0.025454
     35      -0.094548   0.018141   0.142000   0.020487   0.023795   0.155796
     36      -0.033546  -0.013572   0.065463  -0.017777  -0.031500  -0.194224
     37      -0.047917  -0.004735   0.049673  -0.015042   0.004062   0.037457
     38       0.050202   0.030014  -0.117407   0.041619  -0.024167  -0.116132
     39      -0.016075   0.021145   0.015612   0.028607  -0.023451  -0.091554
     40      -0.423507   0.080874   0.487181   0.040578  -0.042054  -0.398232
     41      -0.036765  -0.021080   0.118280  -0.046752   0.034567   0.119019
     42       0.045768  -0.003845  -0.060346  -0.002053   0.019968   0.022223
     43       0.000946  -0.000853   0.008345  -0.001271   0.027912  -0.031191
     44       0.007170   0.000241  -0.014583   0.004235  -0.045372   0.008290
     45       0.028939  -0.004079  -0.002471  -0.007071   0.008968   0.000685
     46       0.008155   0.010094  -0.101946   0.000696   0.002487  -0.105458
     47       0.002638   0.014251  -0.096337   0.024522  -0.043755  -0.080791
     48       0.044581  -0.020373  -0.075771  -0.055553   0.206316  -0.039312
     49       0.129464   0.066306  -0.171620   0.127600  -0.205755   0.044476
     50       0.027264   0.004592  -0.164205  -0.007581   0.115597  -0.099441
     51       0.073993   0.032265  -0.014714   0.086508  -0.275164   0.151857
     52      -0.024946  -0.003117  -0.087029  -0.026680   0.014796  -0.066159
     53      -0.066274  -0.024219  -0.081492  -0.064232   0.109128  -0.098055
     54       0.036031   0.015628  -0.029871   0.063833  -0.336038   0.197595
     55       0.017003  -0.007626   0.003332  -0.008269   0.133747  -0.041776
     56       0.038317  -0.020364  -0.035991  -0.037811   0.299225  -0.092899
     57       0.077804  -0.025704  -0.054267  -0.053111   0.231820   0.016585
     58      -0.002979   0.019886   0.035572   0.044198  -0.402761   0.195800
     59       0.035920  -0.016738  -0.010397  -0.037899   0.115676   0.018210
     60       0.411069  -0.136049  -0.644550  -0.105059   0.029141   0.229675
     61       0.040002  -0.026898  -0.194255  -0.039713   0.025873   0.024587
     62       0.010382   0.041462  -0.240005   0.032058  -0.007490  -0.313093
     63      -0.008799   0.001000   0.004526   0.000741   0.008806  -0.022352
     64       0.015585  -0.004962   0.000783  -0.001984   0.029973   0.033927
     65       0.007021  -0.003920   0.002860  -0.001634  -0.027521   0.044938
     66      -0.010542  -0.001142   0.017394  -0.003105   0.135996  -0.086761
[...]
     30       0.001290   0.000256   0.000037  -0.000633  -0.000532   0.003372
     31       0.009695   0.002308   0.001867  -0.002750  -0.001784   0.004828
     32      -0.000634  -0.000112  -0.000062   0.000256  -0.000186  -0.002534
     33      -0.000105  -0.000043  -0.000089   0.000089   0.000181   0.000339
     34       0.000055   0.000030   0.000035  -0.000092   0.000073   0.000188
     35      -0.000070   0.000004  -0.000032  -0.000017   0.000096   0.000128
     36      -0.000007  -0.000049  -0.000003   0.000086  -0.000007   0.013678
     37       0.000018   0.000095   0.000025  -0.000185   0.000041  -0.061139
     38       0.000109  -0.000028   0.000043   0.000050  -0.000148   0.031170
     39       0.000847   0.000851   0.000351  -0.001687   0.000647   0.002166
     40      -0.000231  -0.000052  -0.000009   0.000234  -0.000402  -0.004035
     41      -0.000158  -0.000254  -0.000196   0.000402   0.000904   0.012909
     42      -0.000424   0.000001   0.000060  -0.000028   0.000055  -0.000072
     43       0.000185   0.000021   0.000034  -0.000011  -0.000023   0.000182
     44       0.000177  -0.000014  -0.000110   0.000012  -0.000059   0.000155
     45      -0.000274   0.000039  -0.000025  -0.000077  -0.000099   0.001035
     46       0.000099  -0.000019   0.000013   0.000047   0.000106  -0.001639
     47       0.000144  -0.000043   0.000003   0.000041   0.000097   0.001270
     48       0.002020  -0.000549   0.000078   0.000823   0.001514   0.000580
     49       0.000463  -0.000037   0.000089   0.000097   0.000198  -0.001076
     50      -0.002607   0.000698  -0.000130  -0.001020  -0.001859  -0.001314
     51       0.000230  -0.000012   0.000026   0.000110   0.000093  -0.002285
     52      -0.001314   0.000237  -0.000202  -0.000687  -0.000729   0.008504
     53       0.001016  -0.000184   0.000134   0.000490   0.000682  -0.008506
     54       0.000501   0.000019  -0.000012   0.000137  -0.000052  -0.001641
     55      -0.004422  -0.000324  -0.000833   0.000116   0.000206   0.001263
     56       0.003681   0.000226   0.000744  -0.000067  -0.000091  -0.002284
     57       0.006327   0.000045  -0.000420   0.000152  -0.000732   0.000511
     58       0.002389   0.000144   0.000562  -0.000121   0.000063  -0.000567
     59      -0.006567  -0.000073   0.000489  -0.000026   0.000939  -0.000282
     60      -0.000480   0.000341  -0.000088  -0.000553  -0.000378  -0.211438
     61      -0.000152  -0.001079  -0.000117   0.002302  -0.001341   0.860610
     62      -0.000530   0.000179  -0.000107  -0.000243  -0.000300  -0.457536
     63      -0.000054   0.000010   0.000009  -0.000013  -0.000043   0.000090
     64       0.000139   0.000001   0.000027  -0.000011   0.000043  -0.000065
     65      -0.000070  -0.000005  -0.000033   0.000004   0.000016   0.000037
     66       0.000277  -0.000054  -0.000075   0.000051   0.000469  -0.000367
     67       0.000119  -0.000017   0.000015   0.000022   0.000081   0.000010
     68      -0.000486   0.000033  -0.000002   0.000020  -0.000568   0.000523
     69       0.000434   0.000001   0.000057  -0.000004   0.000101  -0.000010
     70      -0.001904  -0.000036  -0.000399   0.000161  -0.000509   0.001382
     71       0.001181   0.000001   0.000247  -0.000052   0.000372  -0.000376
     72      -0.311438   0.186489   0.784975  -0.443261  -0.116566   0.001229
     73      -0.052186   0.033029   0.132280  -0.075460  -0.020155   0.000041
     74      -0.028832   0.017710   0.072834  -0.041295  -0.010918   0.000081
     75       0.005333  -0.285375   0.127902   0.080902   0.094164  -0.000201
     76       0.012353  -0.761262   0.345643   0.214838   0.249653  -0.001133
     77       0.003642  -0.222465   0.100880   0.062816   0.072989  -0.000348
     78       0.000090   0.000008   0.000062  -0.000041   0.000023  -0.000028
     79       0.000133   0.000005   0.000058  -0.000007   0.000021  -0.000022
     80      -0.000130  -0.000009  -0.000053   0.000004   0.000002  -0.000002
     81      -0.000075   0.000002  -0.000026   0.000030  -0.000018   0.000240
     82      -0.000838  -0.000002  -0.000548   0.000235  -0.000406   0.000735
     83      -0.000605  -0.000001  -0.000409   0.000174  -0.000300   0.000594
     84      -0.001249  -0.000081  -0.000702   0.000352  -0.000202   0.000273
     85      -0.000007  -0.000002   0.000047   0.000013   0.000023  -0.000022
     86       0.001317   0.000080   0.000762  -0.000323   0.000289  -0.000258
     87       0.000262   0.000020   0.000054   0.000079  -0.000016  -0.000056
     88      -0.000875  -0.000095  -0.000220  -0.000155   0.000125   0.000061
     89       0.000752   0.000065   0.000259   0.000084  -0.000033  -0.000108


-----------
IR SPECTRUM  
-----------

 Mode    freq (cm**-1)   T**2         TX         TY         TZ
-------------------------------------------------------------------
   7:        45.58    0.000000  (  0.000000   0.000000   0.000000)
   8:        65.63    0.000000  (  0.000000   0.000000   0.000000)
   9:        66.73    0.000000  (  0.000000   0.000000   0.000000)
  10:        81.95    0.000000  (  0.000000   0.000000   0.000000)
  11:       120.04    0.000000  (  0.000000   0.000000   0.000000)
  12:       124.51    0.000000  (  0.000000   0.000000   0.000000)
  13:       181.35    0.000000  (  0.000000   0.000000   0.000000)
  14:       213.28    0.000000  (  0.000000   0.000000   0.000000)
  15:       253.25    0.000000  (  0.000000   0.000000   0.000000)
  16:       272.82    0.000000  (  0.000000   0.000000   0.000000)
  17:       290.41    0.000000  (  0.000000   0.000000   0.000000)
  18:       370.83    0.000000  (  0.000000   0.000000   0.000000)
  19:       380.75    0.000000  (  0.000000   0.000000   0.000000)
  20:       396.01    0.000000  (  0.000000   0.000000   0.000000)
  21:       424.55    0.000000  (  0.000000   0.000000   0.000000)
  22:       505.94    0.000000  (  0.000000   0.000000   0.000000)
  23:       587.68    0.000000  (  0.000000   0.000000   0.000000)
  24:       590.41    0.000000  (  0.000000   0.000000   0.000000)
  25:       668.58    0.000000  (  0.000000   0.000000   0.000000)
  26:       711.02    0.000000  (  0.000000   0.000000   0.000000)
  27:       752.09    0.000000  (  0.000000   0.000000   0.000000)
  28:       770.76    0.000000  (  0.000000   0.000000   0.000000)
  29:       783.39    0.000000  (  0.000000   0.000000   0.000000)
  30:       814.74    0.000000  (  0.000000   0.000000   0.000000)
  31:       854.22    0.000000  (  0.000000   0.000000   0.000000)
  32:       882.57    0.000000  (  0.000000   0.000000   0.000000)
  33:       886.56    0.000000  (  0.000000   0.000000   0.000000)
  34:       907.71    0.000000  (  0.000000   0.000000   0.000000)
  35:       930.82    0.000000  (  0.000000   0.000000   0.000000)
  36:       936.75    0.000000  (  0.000000   0.000000   0.000000)
  37:       949.36    0.000000  (  0.000000   0.000000   0.000000)
  38:       956.64    0.000000  (  0.000000   0.000000   0.000000)
  39:       981.41    0.000000  (  0.000000   0.000000   0.000000)
  40:      1041.77    0.000000  (  0.000000   0.000000   0.000000)
  41:      1066.20    0.000000  (  0.000000   0.000000   0.000000)
  42:      1070.62    0.000000  (  0.000000   0.000000   0.000000)
  43:      1087.62    0.000000  (  0.000000   0.000000   0.000000)
  44:      1103.78    0.000000  (  0.000000   0.000000   0.000000)
  45:      1107.51    0.000000  (  0.000000   0.000000   0.000000)
  46:      1116.27    0.000000  (  0.000000   0.000000   0.000000)
  47:      1132.08    0.000000  (  0.000000   0.000000   0.000000)
  48:      1137.68    0.000000  (  0.000000   0.000000   0.000000)
  49:      1178.60    0.000000  (  0.000000   0.000000   0.000000)
  50:      1184.52    0.000000  (  0.000000   0.000000   0.000000)
  51:      1196.84    0.000000  (  0.000000   0.000000   0.000000)
  52:      1207.52    0.000000  (  0.000000   0.000000   0.000000)
  53:      1216.27    0.000000  (  0.000000   0.000000   0.000000)
  54:      1250.41    0.000000  (  0.000000   0.000000   0.000000)
  55:      1264.03    0.000000  (  0.000000   0.000000   0.000000)
  56:      1269.43    0.000000  (  0.000000   0.000000   0.000000)
  57:      1276.61    0.000000  (  0.000000   0.000000   0.000000)
  58:      1281.03    0.000000  (  0.000000   0.000000   0.000000)
  59:      1297.68    0.000000  (  0.000000   0.000000   0.000000)
  60:      1313.70    0.000000  (  0.000000   0.000000   0.000000)
  61:      1336.60    0.000000  (  0.000000   0.000000   0.000000)
  62:      1370.71    0.000000  (  0.000000   0.000000   0.000000)
  63:      1425.47    0.000000  (  0.000000   0.000000   0.000000)
  64:      1428.96    0.000000  (  0.000000   0.000000   0.000000)
  65:      1457.60    0.000000  (  0.000000   0.000000   0.000000)
  66:      1470.06    0.000000  (  0.000000   0.000000   0.000000)
  67:      1498.78    0.000000  (  0.000000   0.000000   0.000000)
  68:      1503.74    0.000000  (  0.000000   0.000000   0.000000)
  69:      1507.69    0.000000  (  0.000000   0.000000   0.000000)
  70:      1510.39    0.000000  (  0.000000   0.000000   0.000000)
  71:      1567.25    0.000000  (  0.000000   0.000000   0.000000)
  72:      1573.76    0.000000  (  0.000000   0.000000   0.000000)
  73:      1700.58    0.000000  (  0.000000   0.000000   0.000000)
  74:      2833.88    0.000000  (  0.000000   0.000000   0.000000)
  75:      2943.33    0.000000  (  0.000000   0.000000   0.000000)
  76:      2953.49    0.000000  (  0.000000   0.000000   0.000000)
  77:      2967.63    0.000000  (  0.000000   0.000000   0.000000)
  78:      2979.89    0.000000  (  0.000000   0.000000   0.000000)
  79:      2981.10    0.000000  (  0.000000   0.000000   0.000000)
  80:      2987.23    0.000000  (  0.000000   0.000000   0.000000)
  81:      2990.31    0.000000  (  0.000000   0.000000   0.000000)
  82:      3000.91    0.000000  (  0.000000   0.000000   0.000000)
  83:      3002.47    0.000000  (  0.000000   0.000000   0.000000)
  84:      3038.57    0.000000  (  0.000000   0.000000   0.000000)
  85:      3049.88    0.000000  (  0.000000   0.000000   0.000000)
  86:      3054.27    0.000000  (  0.000000   0.000000   0.000000)
  87:      3066.86    0.000000  (  0.000000   0.000000   0.000000)
  88:      3074.72    0.000000  (  0.000000   0.000000   0.000000)
  89:      3336.97    0.000000  (  0.000000   0.000000   0.000000)

The first frequency considered to be a vibration is 7
The total number of vibrations considered is 83


--------------------------
THERMOCHEMISTRY AT 298.15K
--------------------------

Temperature         ... 298.15 K
Pressure            ... 1.00 atm
Total Mass          ... 179.26 AMU

Throughout the following assumptions are being made:
  (1) The electronic state is orbitally nondegenerate
  (2) There are no thermally accessible electronically excited states
  (3) Hindered rotations indicated by low frequency modes are not
      treated as such but are treated as vibrations and this may
      cause some error
  (4) All equations used are the standard statistical mechanics
      equations for an ideal gas
  (5) All vibrations are strictly harmonic

freq.      45.58  E(vib)   ...       0.53 
freq.      65.63  E(vib)   ...       0.50 
freq.      66.73  E(vib)   ...       0.50 
freq.      81.95  E(vib)   ...       0.48 
freq.     120.04  E(vib)   ...       0.44 
freq.     124.51  E(vib)   ...       0.43 
freq.     181.35  E(vib)   ...       0.37 
freq.     213.28  E(vib)   ...       0.34 
freq.     253.25  E(vib)   ...       0.30 
freq.     272.82  E(vib)   ...       0.29 
freq.     290.41  E(vib)   ...       0.27 
freq.     370.83  E(vib)   ...       0.21 
freq.     380.75  E(vib)   ...       0.21 
freq.     396.01  E(vib)   ...       0.20 
freq.     424.55  E(vib)   ...       0.18 
freq.     505.94  E(vib)   ...       0.14 
freq.     587.68  E(vib)   ...       0.10 
freq.     590.41  E(vib)   ...       0.10 
freq.     668.58  E(vib)   ...       0.08 
freq.     711.02  E(vib)   ...       0.07 
freq.     752.09  E(vib)   ...       0.06 
freq.     770.76  E(vib)   ...       0.05 
freq.     783.39  E(vib)   ...       0.05 
freq.     814.74  E(vib)   ...       0.05 
freq.     854.22  E(vib)   ...       0.04 
freq.     882.57  E(vib)   ...       0.04 
freq.     886.56  E(vib)   ...       0.04 
freq.     907.71  E(vib)   ...       0.03 
freq.     930.82  E(vib)   ...       0.03 
freq.     936.75  E(vib)   ...       0.03 
freq.     949.36  E(vib)   ...       0.03 
freq.     956.64  E(vib)   ...       0.03 
freq.     981.41  E(vib)   ...       0.02 
freq.    1041.77  E(vib)   ...       0.02 
freq.    1066.20  E(vib)   ...       0.02 
freq.    1070.62  E(vib)   ...       0.02 
freq.    1087.62  E(vib)   ...       0.02 
freq.    1103.78  E(vib)   ...       0.02 
freq.    1107.51  E(vib)   ...       0.02 
freq.    1116.27  E(vib)   ...       0.01 
freq.    1132.08  E(vib)   ...       0.01 
freq.    1137.68  E(vib)   ...       0.01 
freq.    1178.60  E(vib)   ...       0.01 
freq.    1184.52  E(vib)   ...       0.01 
freq.    1196.84  E(vib)   ...       0.01 
freq.    1207.52  E(vib)   ...       0.01 
freq.    1216.27  E(vib)   ...       0.01 
freq.    1250.41  E(vib)   ...       0.01 
freq.    1264.03  E(vib)   ...       0.01 
freq.    1269.43  E(vib)   ...       0.01 
freq.    1276.61  E(vib)   ...       0.01 
freq.    1281.03  E(vib)   ...       0.01 
freq.    1297.68  E(vib)   ...       0.01 
freq.    1313.70  E(vib)   ...       0.01 
freq.    1336.60  E(vib)   ...       0.01 
freq.    1370.71  E(vib)   ...       0.01 
freq.    1425.47  E(vib)   ...       0.00 
freq.    1428.96  E(vib)   ...       0.00 
freq.    1457.60  E(vib)   ...       0.00 
freq.    1470.06  E(vib)   ...       0.00 
freq.    1498.78  E(vib)   ...       0.00 
freq.    1503.74  E(vib)   ...       0.00 
freq.    1507.69  E(vib)   ...       0.00 
freq.    1510.39  E(vib)   ...       0.00 
freq.    1567.25  E(vib)   ...       0.00 
freq.    1573.76  E(vib)   ...       0.00 
freq.    1700.58  E(vib)   ...       0.00 
freq.    2833.88  E(vib)   ...       0.00 
freq.    2943.33  E(vib)   ...       0.00 
freq.    2953.49  E(vib)   ...       0.00 
freq.    2967.63  E(vib)   ...       0.00 
freq.    2979.89  E(vib)   ...       0.00 
freq.    2981.10  E(vib)   ...       0.00 
freq.    2987.23  E(vib)   ...       0.00 
freq.    2990.31  E(vib)   ...       0.00 
freq.    3000.91  E(vib)   ...       0.00 
freq.    3002.47  E(vib)   ...       0.00 
freq.    3038.57  E(vib)   ...       0.00 
freq.    3049.88  E(vib)   ...       0.00 
freq.    3054.27  E(vib)   ...       0.00 
freq.    3066.86  E(vib)   ...       0.00 
freq.    3074.72  E(vib)   ...       0.00 
freq.    3336.97  E(vib)   ...       0.00 

------------
INNER ENERGY
------------

The inner energy is: U= E(el) + E(ZPE) + E(vib) + E(rot) + E(trans)
    E(el)   - is the total energy from the electronic structure calculation
              = E(kin-el) + E(nuc-el) + E(el-el) + E(nuc-nuc)
    E(ZPE)  - the the zero temperature vibrational energy from the frequency calculation
    E(vib)  - the the finite temperature correction to E(ZPE) due to population
              of excited vibrational states
    E(rot)  - is the rotational thermal energy
    E(trans)- is the translational thermal energy

Summary of contributions to the inner energy U:
Electronic energy                ...    -39.15506825 Eh
Zero point energy                ...      0.25098929 Eh     157.50 kcal/mol
Thermal vibrational correction   ...      0.01042022 Eh       6.54 kcal/mol
Thermal rotational correction    ...      0.00141627 Eh       0.89 kcal/mol
Thermal translational correction ...      0.00141627 Eh       0.89 kcal/mol
-----------------------------------------------------------------------
Total thermal energy                    -38.89082620 Eh


Summary of corrections to the electronic energy:
(perhaps to be used in another calculation)
Total thermal correction                  0.01325276 Eh       8.32 kcal/mol
Non-thermal (ZPE) correction              0.25098929 Eh     157.50 kcal/mol
-----------------------------------------------------------------------
Total correction                          0.26424205 Eh     165.81 kcal/mol


--------
ENTHALPY
--------

The enthalpy is H = U + kB*T
                kB is Boltzmann's constant
Total free energy                 ...    -38.89082620 Eh 
Thermal Enthalpy correction       ...      0.00094421 Eh       0.59 kcal/mol
-----------------------------------------------------------------------
Total Enthalpy                    ...    -38.88988199 Eh


Note: Only C1 symmetry has been detected, increase convergence thresholds 
      if your molecule has a higher symmetry. Symmetry factor of 1.0 is   
      used for the rotational entropy correction. 
 

Note: Rotational entropy computed according to Herzberg 
Infrared and Raman Spectra, Chapter V,1, Van Nostrand Reinhold, 1945 
Point Group:  C1, Symmetry Number:   1  
Rotational constants in cm-1:     0.038845     0.013768     0.010856 

Vibrational entropy computed according to the QRRHO of S. Grimme
Chem.Eur.J. 2012 18 9955


-------
ENTROPY
-------

The entropy contributions are T*S = T*(S(el)+S(vib)+S(rot)+S(trans))
     S(el)   - electronic entropy
     S(vib)  - vibrational entropy
     S(rot)  - rotational entropy
     S(trans)- translational entropy
The entropies will be listed as mutliplied by the temperature to get
units of energy

Electronic entropy                ...      0.00000000 Eh      0.00 kcal/mol
Vibrational entropy               ...      0.01817717 Eh     11.41 kcal/mol
Rotational entropy                ...      0.01520263 Eh      9.54 kcal/mol
Translational entropy             ...      0.01969790 Eh     12.36 kcal/mol
-----------------------------------------------------------------------
Final entropy term                ...      0.05307770 Eh     33.31 kcal/mol

In case the symmetry of your molecule has not been determined correctly
or in case you have a reason to use a different symmetry number we print 
out the resulting rotational entropy values for sn=1,12 :
 --------------------------------------------------------
|  sn= 1 | S(rot)=       0.01520263 Eh      9.54 kcal/mol|
|  sn= 2 | S(rot)=       0.01454817 Eh      9.13 kcal/mol|
|  sn= 3 | S(rot)=       0.01416534 Eh      8.89 kcal/mol|
|  sn= 4 | S(rot)=       0.01389372 Eh      8.72 kcal/mol|
|  sn= 5 | S(rot)=       0.01368303 Eh      8.59 kcal/mol|
|  sn= 6 | S(rot)=       0.01351088 Eh      8.48 kcal/mol|
|  sn= 7 | S(rot)=       0.01336534 Eh      8.39 kcal/mol|
|  sn= 8 | S(rot)=       0.01323926 Eh      8.31 kcal/mol|
|  sn= 9 | S(rot)=       0.01312805 Eh      8.24 kcal/mol|
|  sn=10 | S(rot)=       0.01302857 Eh      8.18 kcal/mol|
|  sn=11 | S(rot)=       0.01293858 Eh      8.12 kcal/mol|
|  sn=12 | S(rot)=       0.01285643 Eh      8.07 kcal/mol|
 --------------------------------------------------------


-------------------
GIBBS FREE ENERGY
-------------------

The Gibbs free energy is G = H - T*S

Total enthalpy                    ...    -38.88988199 Eh 
Total entropy correction          ...     -0.05307770 Eh    -33.31 kcal/mol
-----------------------------------------------------------------------
Final Gibbs free energy         ...    -38.94295969 Eh

For completeness - the Gibbs free energy minus the electronic energy
G-E(el)                           ...      0.21210856 Eh    133.10 kcal/mol


Total Time for Numerical Frequencies  :        46.092 sec
Time for Reference State(s)           :         0.075 sec
Time for Displacements                :        40.674 sec

Timings for individual modules:

Sum of individual times         ...        0.148 sec (=   0.002 min)
XTB module                      ...        0.148 sec (=   0.002 min) 100.0 %
                             ****ORCA TERMINATED NORMALLY****
TOTAL RUN TIME: 0 days 0 hours 0 minutes 46 seconds 605 msec
(SLURM) EXECUTION TIME: 46.626494110 seconds.
