
                                 *****************
                                 * O   R   C   A *
                                 *****************

           --- An Ab Initio, DFT and Semiempirical electronic structure package ---

                  #######################################################
                  #                        -***-                        #
                  #          Department of theory and spectroscopy      #
                  #               Directorship: Frank Neese             #
                  #        Max Planck Institute fuer Kohlenforschung    #
                  #                Kaiser Wilhelm Platz 1               #
                  #                 D-45470 Muelheim/Ruhr               #
                  #                      Germany                        #
                  #                                                     #
                  #                  All rights reserved                #
                  #                        -***-                        #
                  #######################################################


                         Program Version 4.2.1 -  RELEASE  -


 With contributions from (in alphabetic order):
   Daniel Aravena         : Magnetic Suceptibility
   Michael Atanasov       : Ab Initio Ligand Field Theory (pilot matlab implementation)
   Alexander A. Auer      : GIAO ZORA, VPT2
   Ute Becker             : Parallelization
   Giovanni Bistoni       : ED, misc. LED, open-shell LED, HFLD
   Martin Brehm           : Molecular dynamics
   Dmytro Bykov           : SCF Hessian
   Vijay G. Chilkuri      : MRCI spin determinant printing, contributions to CSF-ICE
   Dipayan Datta          : RHF DLPNO-CCSD density
   Achintya Kumar Dutta   : EOM-CC, STEOM-CC
   Dmitry Ganyushin       : Spin-Orbit,Spin-Spin,Magnetic field MRCI
   Miquel Garcia          : C-PCM Hessian, Gaussian charge scheme
   Yang Guo               : DLPNO-NEVPT2, CIM, IAO-localization
   Andreas Hansen         : Spin unrestricted coupled pair/coupled cluster methods
   Benjamin Helmich-Paris : CASSCF linear response (MC-RPA)
   Lee Huntington         : MR-EOM, pCC
   Robert Izsak           : Overlap fitted RIJCOSX, COSX-SCS-MP3, EOM
   Christian Kollmar      : KDIIS, OOCD, Brueckner-CCSD(T), CCSD density
   Simone Kossmann        : Meta GGA functionals, TD-DFT gradient, OOMP2, MP2 Hessian
   Martin Krupicka        : AUTO-CI
   Lucas Lang             : DCDCAS
   Dagmar Lenk            : GEPOL surface, SMD
   Dimitrios Liakos       : Extrapolation schemes; Compound Job, initial MDCI parallelization
   Dimitrios Manganas     : Further ROCIS development; embedding schemes
   Dimitrios Pantazis     : SARC Basis sets
   Taras Petrenko         : DFT Hessian,TD-DFT gradient, ASA, ECA, R-Raman, ABS, FL, XAS/XES, NRVS
   Peter Pinski           : DLPNO-MP2, DLPNO-MP2 Gradient
   Christoph Reimann      : Effective Core Potentials
   Marius Retegan         : Local ZFS, SOC
   Christoph Riplinger    : Optimizer, TS searches, QM/MM, DLPNO-CCSD(T), (RO)-DLPNO pert. Triples
   Tobias Risthaus        : Range-separated hybrids, TD-DFT gradient, RPA, STAB
   Michael Roemelt        : Original ROCIS implementation
   Masaaki Saitow         : Open-shell DLPNO-CCSD energy and density
   Barbara Sandhoefer     : DKH picture change effects
   Avijit Sen             : IP-ROCIS
   Kantharuban Sivalingam : CASSCF convergence, NEVPT2, FIC-MRCI
   Bernardo de Souza      : ESD, SOC TD-DFT
   Georgi Stoychev        : AutoAux, RI-MP2 NMR
   Willem Van den Heuvel  : Paramagnetic NMR
   Boris Wezisla          : Elementary symmetry handling
   Frank Wennmohs         : Technical directorship


 We gratefully acknowledge several colleagues who have allowed us to
 interface, adapt or use parts of their codes:
   Stefan Grimme, W. Hujo, H. Kruse,             : VdW corrections, initial TS optimization,
                  C. Bannwarth                     DFT functionals, gCP, sTDA/sTD-DF
   Ed Valeev, F. Pavosevic, A. Kumar             : LibInt (2-el integral package), F12 methods
   Garnet Chan, S. Sharma, J. Yang, R. Olivares  : DMRG
   Ulf Ekstrom                                   : XCFun DFT Library
   Mihaly Kallay                                 : mrcc  (arbitrary order and MRCC methods)
   Andreas Klamt, Michael Diedenhofen            : otool_cosmo (COSMO solvation model)
   Jiri Pittner, Ondrej Demel                    : Mk-CCSD
   Frank Weinhold                                : gennbo (NPA and NBO analysis)
   Christopher J. Cramer and Donald G. Truhlar   : smd solvation model
   Lars Goerigk                                  : TD-DFT with DH, B97 family of functionals
   V. Asgeirsson, H. Jonsson                     : NEB implementation
   FAccTs GmbH                                   : IRC, NEB, NEB-TS, Multilevel, MM, QM/MM, CI optimization
   S Lehtola, MJT Oliveira, MAL Marques          : LibXC Library


 Your calculation uses the libint2 library for the computation of 2-el integrals
 For citations please refer to: http://libint.valeyev.net

 Your ORCA version has been built with support for libXC version: 4.2.3
 For citations please refer to: https://tddft.org/programs/libxc/

 This ORCA versions uses:
   CBLAS   interface :  Fast vector & matrix operations
   LAPACKE interface :  Fast linear algebra routines
   SCALAPACK package :  Parallel linear algebra routines


----- Orbital basis set information -----
Your calculation utilizes the basis: 6-311+G(d,p)
   H, Li - Ne  : R. Krishnan, J. S. Binkley, R. Seeger and J. A. Pople, J. Chem. Phys. 72, 650 (1980).
   Na - Ar     : A. D. McLean and G. S. Chandler J. Chem. Phys. 72, 5639, (1980).
   K  - Ca     : J.-P. Blaudeau, M. P. McGrath, L. A. Curtiss and L. Radom, J. Chem. Phys. 107, 5016 (1997).
   Ga - Kr     : L. A. Curtiss, M. P. McGrath, J.-P. Blandeau, N. E. Davis, R. C. Binning and L. Radom, J. Chem. Phys. 103, 6104 (1995).
   Pol./Diff.
   H, Li - Cl  : T. Clark, J. Chandrasekhar and P. v. R. Schleyer, J. Comp. Chem. 4, 294 (1983).
   H - Ne      : M. J. Frisch, J. A. Pople and J. S. Binkley, J. Chem. Phys. 80, 3265 (1984).

================================================================================
                                        WARNINGS
                       Please study these warnings very carefully!
================================================================================


WARNING: Geometry Optimization
  ===> : Switching off AutoStart
         For restart on a previous wavefunction, please use MOREAD

WARNING: Post HF methods need fully converged wavefunctions
  ===> : Setting SCFConvForced true
         You can overwrite this default with %scf ConvForced false 


INFO   : the flag for use of LIBINT has been found!

================================================================================
                                       INPUT FILE
================================================================================
NAME = CH3·.inp
|  1> ! UHF MP2 6-311+G(d,p) Opt Freq NoFrozenCore TightOpt TightSCF Grid4 FinalGrid5 PrintBasis PrintMOs NBO
|  2> %maxcore 3000
|  3> 
|  4> *xyz 0 2
|  5> C        0.000000000      0.000000000      0.000000000
|  6> H        1.071911000      0.000000000      0.000000000
|  7> H       -0.535955000      0.928302000      0.000000000
|  8> H       -0.535955000     -0.928302000      0.000000000
|  9> *
| 10> 
| 11> %pal
| 12>  nprocs 12
| 13> end
| 14> 
| 15>                          ****END OF INPUT****
================================================================================

                       *****************************
                       * Geometry Optimization Run *
                       *****************************

Geometry optimization settings:
Update method            Update   .... BFGS
Choice of coordinates    CoordSys .... Z-matrix Internals
Initial Hessian          InHess   .... Almoef's Model

Convergence Tolerances:
Energy Change            TolE     ....  1.0000e-06 Eh
Max. Gradient            TolMAXG  ....  1.0000e-04 Eh/bohr
RMS Gradient             TolRMSG  ....  3.0000e-05 Eh/bohr
Max. Displacement        TolMAXD  ....  1.0000e-03 bohr
RMS Displacement         TolRMSD  ....  6.0000e-04 bohr
Strict Convergence                ....  False
------------------------------------------------------------------------------
                        ORCA OPTIMIZATION COORDINATE SETUP
------------------------------------------------------------------------------

The optimization will be done in new redundant internal coordinates
Making redundant internal coordinates   ...  (new redundants) done
Evaluating the initial hessian          ...  (Almloef) done
Evaluating the coordinates              ...  done
Calculating the B-matrix                .... done
Calculating the G-matrix                .... done
Diagonalizing the G-matrix              .... done
The first mode is                       ....    1
The number of degrees of freedom        ....    6

    -----------------------------------------------------------------
                    Redundant Internal Coordinates


    -----------------------------------------------------------------
         Definition                    Initial Value    Approx d2E/dq
    -----------------------------------------------------------------
      1. B(H   1,C   0)                  1.0719         0.384842   
      2. B(H   2,C   0)                  1.0719         0.384843   
      3. B(H   3,C   0)                  1.0719         0.384843   
      4. A(H   1,C   0,H   3)          120.0000         0.297003   
      5. A(H   2,C   0,H   3)          120.0000         0.297003   
      6. A(H   1,C   0,H   2)          120.0000         0.297003   
      7. I(H   1,H   3,H   2,C   0)      0.0000         0.023978   
    -----------------------------------------------------------------

Number of atoms                         .... 4
Number of degrees of freedom            .... 7

         *************************************************************
         *                GEOMETRY OPTIMIZATION CYCLE   1            *
         *************************************************************
---------------------------------
CARTESIAN COORDINATES (ANGSTROEM)
---------------------------------
  C      0.000000    0.000000    0.000000
  H      1.071911    0.000000    0.000000
  H     -0.535955    0.928302    0.000000
  H     -0.535955   -0.928302    0.000000

----------------------------
CARTESIAN COORDINATES (A.U.)
----------------------------
  NO LB      ZA    FRAG     MASS         X           Y           Z
   0 C     6.0000    0    12.011    0.000000    0.000000    0.000000
   1 H     1.0000    0     1.008    2.025618    0.000000    0.000000
   2 H     1.0000    0     1.008   -1.012808    1.754237    0.000000
   3 H     1.0000    0     1.008   -1.012808   -1.754237    0.000000

--------------------------------
INTERNAL COORDINATES (ANGSTROEM)
--------------------------------
 C      0   0   0     0.000000000000     0.00000000     0.00000000
 H      1   0   0     1.071911000000     0.00000000     0.00000000
 H      1   2   0     1.071910614384   119.99998104     0.00000000
 H      1   2   3     1.071910614384   119.99998104   180.00000000

---------------------------
INTERNAL COORDINATES (A.U.)
---------------------------
 C      0   0   0     0.000000000000     0.00000000     0.00000000
 H      1   0   0     2.025618229938     0.00000000     0.00000000
 H      1   2   0     2.025617501229   119.99998104     0.00000000
 H      1   2   3     2.025617501229   119.99998104   180.00000000

---------------------
BASIS SET INFORMATION
---------------------
There are 2 groups of distinct atoms

 Group   1 Type C   : 12s6p1d contracted to 5s4p1d pattern {63111/3111/1}
 Group   2 Type H   : 5s1p contracted to 3s1p pattern {311/1}

Atom   0C    basis set group =>   1
Atom   1H    basis set group =>   2
Atom   2H    basis set group =>   2
Atom   3H    basis set group =>   2

-------------------------
BASIS SET IN INPUT FORMAT
-------------------------

 # Basis set for element : H 
 NewGTO H 
 S 3 
   1      33.8650000000      0.0254938145
   2       5.0947900000      0.1903731086
   3       1.1587900000      0.8521614860
 S 1 
   1       0.3258400000      1.0000000000
 S 1 
   1       0.1027410000      1.0000000000
 P 1 
   1       0.7500000000      1.0000000000
  end;

 # Basis set for element : C 
 NewGTO C 
 S 6 
   1    4563.2400000000      0.0019666502
   2     682.0240000000      0.0152306019
   3     154.9730000000      0.0761269097
   4      44.4553000000      0.2608010331
   5      13.0290000000      0.6164620782
   6       1.8277300000      0.2210060280
 S 3 
   1      20.9642000000      0.1146600807
   2       4.8033100000      0.9199996477
   3       1.4593300000     -0.0030306821
 P 3 
   1      20.9642000000      0.0402486927
   2       4.8033100000      0.2375939567
   3       1.4593300000      0.8158538515
 S 1 
   1       0.4834560000      1.0000000000
 P 1 
   1       0.4834560000      1.0000000000
 S 1 
   1       0.1455850000      1.0000000000
 P 1 
   1       0.1455850000      1.0000000000
 S 1 
   1       0.0438000000      1.0000000000
 P 1 
   1       0.0438000000      1.0000000000
 D 1 
   1       0.6260000000      1.0000000000
  end;



           ************************************************************
           *        Program running with 12 parallel MPI-processes    *
           *              working on a common directory               *
           ************************************************************
------------------------------------------------------------------------------
                           ORCA GTO INTEGRAL CALCULATION
------------------------------------------------------------------------------

                         BASIS SET STATISTICS AND STARTUP INFO

 # of primitive gaussian shells          ...   37
 # of primitive gaussian functions       ...   59
 # of contracted shells                  ...   22
 # of contracted basis functions         ...   40
 Highest angular momentum                ...    2
 Maximum contraction depth               ...    6
 Integral package used                   ... LIBINT
 Integral threshhold            Thresh   ...  2.500e-11
 Primitive cut-off              TCut     ...  2.500e-12


------------------------------ INTEGRAL EVALUATION ----------------------------


 * One electron integrals 
 Pre-screening matrix                    ... done
 Shell pair data                         ... done (   0.000 sec)



           ************************************************************
           *        Program running with 12 parallel MPI-processes    *
           *              working on a common directory               *
           ************************************************************
-------------------------------------------------------------------------------
                                 ORCA SCF
-------------------------------------------------------------------------------

------------
SCF SETTINGS
------------
Hamiltonian:
 Ab initio Hamiltonian  Method          .... Hartree-Fock(GTOs)


General Settings:
 Integral files         IntName         .... CH3·
 Hartree-Fock type      HFTyp           .... UHF
 Total Charge           Charge          ....    0
 Multiplicity           Mult            ....    2
 Number of Electrons    NEL             ....    9
 Basis Dimension        Dim             ....   40
 Nuclear Repulsion      ENuc            ....      9.7412509664 Eh

Convergence Acceleration:
 DIIS                   CNVDIIS         .... on
   Start iteration      DIISMaxIt       ....    12
   Startup error        DIISStart       ....  0.200000
   # of expansion vecs  DIISMaxEq       ....     5
   Bias factor          DIISBfac        ....   1.050
   Max. coefficient     DIISMaxC        ....  10.000
 Newton-Raphson         CNVNR           .... off
 SOSCF                  CNVSOSCF        .... off
 Level Shifting         CNVShift        .... on
   Level shift para.    LevelShift      ....    0.2500
   Turn off err/grad.   ShiftErr        ....    0.0010
 Zerner damping         CNVZerner       .... off
 Static damping         CNVDamp         .... on
   Fraction old density DampFac         ....    0.7000
   Max. Damping (<1)    DampMax         ....    0.9800
   Min. Damping (>=0)   DampMin         ....    0.0000
   Turn off err/grad.   DampErr         ....    0.1000
 Fernandez-Rico         CNVRico         .... off

SCF Procedure:
 Maximum # iterations   MaxIter         ....   125
 SCF integral mode      SCFMode         .... Direct
   Integral package                     .... LIBINT
 Reset frequency        DirectResetFreq ....    20
 Integral Threshold     Thresh          ....  2.500e-11 Eh
 Primitive CutOff       TCut            ....  2.500e-12 Eh

Convergence Tolerance:
 Convergence Check Mode ConvCheckMode   .... Total+1el-Energy
 Convergence forced     ConvForced      .... 1
 Energy Change          TolE            ....  1.000e-08 Eh
 1-El. energy change                    ....  1.000e-05 Eh
 DIIS Error             TolErr          ....  5.000e-07


Diagonalization of the overlap matrix:
Smallest eigenvalue                        ... 1.636e-02
Time for diagonalization                   ...    0.004 sec
Threshold for overlap eigenvalues          ... 1.000e-08
Number of eigenvalues below threshold      ... 0
Time for construction of square roots      ...    0.012 sec
Total time needed                          ...    0.016 sec

-------------------
DFT GRID GENERATION
-------------------

General Integration Accuracy     IntAcc      ...  4.670
Radial Grid Type                 RadialGrid  ... Gauss-Chebyshev
Angular Grid (max. acc.)         AngularGrid ... Lebedev-302
Angular grid pruning method      GridPruning ... 3 (G Style)
Weight generation scheme         WeightScheme... Becke
Basis function cutoff            BFCut       ...    1.0000e-11
Integration weight cutoff        WCut        ...    1.0000e-14
Grids for H and He will be reduced by one unit

# of grid points (after initial pruning)     ...  16394 (   0.0 sec)
# of grid points (after weights+screening)   ...  16145 (   0.0 sec)
nearest neighbour list constructed           ...    0.0 sec
Grid point re-assignment to atoms done       ...    0.0 sec
Grid point division into batches done        ...    0.2 sec
Reduced shell lists constructed in    0.2 sec

Total number of grid points                  ...    16145
Total number of batches                      ...      253
Average number of points per batch           ...       63
Average number of grid points per atom       ...     4036
Average number of shells per batch           ...    21.04 (95.65%)
Average number of basis functions per batch  ...    38.26 (95.65%)
Average number of large shells per batch     ...    20.52 (97.52%)
Average number of large basis fcns per batch ...    37.57 (98.18%)
Maximum spatial batch extension              ...   2.89,  2.57, 19.60 au
Average spatial batch extension              ...   0.12,  0.13,  0.26 au

Time for grid setup =    0.227 sec

------------------------------
INITIAL GUESS: MODEL POTENTIAL
------------------------------
Loading Hartree-Fock densities                     ... done
Calculating cut-offs                               ... done
Setting up the integral package                    ... done
Initializing the effective Hamiltonian             ... done
Starting the Coulomb interaction                   ... done (   0.0 sec)
Reading the grid                                   ... done
Mapping shells                                     ... done
Starting the XC term evaluation                    ... done (   0.0 sec)
Transforming the Hamiltonian                       ... done (   0.0 sec)
Diagonalizing the Hamiltonian                      ... done (   0.0 sec)
Back transforming the eigenvectors                 ... done (   0.0 sec)
Now organizing SCF variables                       ... done
                      ------------------
                      INITIAL GUESS DONE (   0.4 sec)
                      ------------------
--------------
SCF ITERATIONS
--------------
ITER       Energy         Delta-E        Max-DP      RMS-DP      [F,P]     Damp
               ***  Starting incremental Fock matrix formation  ***
  0    -39.5140704514   0.000000000000 0.02644850  0.00094599  0.2331161 0.7000
  1    -39.5340582462  -0.019987794716 0.01924790  0.00073683  0.1557777 0.7000
                               ***Turning on DIIS***
  2    -39.5467452582  -0.012687012049 0.04010416  0.00163375  0.0971113 0.0000
  3    -39.5121236038   0.034621654375 0.01297243  0.00049716  0.0263530 0.0000
  4    -39.5681994569  -0.056075853086 0.00376398  0.00021623  0.0039108 0.0000
  5    -39.5734767287  -0.005277271781 0.00218583  0.00015480  0.0022858 0.0000
  6    -39.5738353968  -0.000358668071 0.00159394  0.00010632  0.0013972 0.0000
  7    -39.5734726096   0.000362787167 0.00128805  0.00009288  0.0008025 0.0000
  8    -39.5735530367  -0.000080427141 0.00042060  0.00002892  0.0001908 0.0000
  9    -39.5736349499  -0.000081913155 0.00004144  0.00000304  0.0000222 0.0000
 10    -39.5736336965   0.000001253424 0.00002477  0.00000141  0.0000069 0.0000
 11    -39.5736371257  -0.000003429173 0.00000662  0.00000033  0.0000017 0.0000
                            ***DIIS convergence achieved***

               *****************************************************
               *                     SUCCESS                       *
               *           SCF CONVERGED AFTER  12 CYCLES          *
               *****************************************************


----------------
TOTAL SCF ENERGY
----------------

Total Energy       :          -39.57363754 Eh           -1076.85342 eV

Components:
Nuclear Repulsion  :            9.74125097 Eh             265.07291 eV
Electronic Energy  :          -49.31488851 Eh           -1341.92634 eV
One Electron Energy:          -71.68649993 Eh           -1950.68883 eV
Two Electron Energy:           22.37161143 Eh             608.76250 eV

Virial components:
Potential Energy   :          -79.13789094 Eh           -2153.45149 eV
Kinetic Energy     :           39.56425340 Eh            1076.59807 eV
Virial Ratio       :            2.00023719


---------------
SCF CONVERGENCE
---------------

  Last Energy change         ...   -4.1429e-07  Tolerance :   1.0000e-08
  Last MAX-Density change    ...    5.9950e-06  Tolerance :   1.0000e-07
  Last RMS-Density change    ...    3.0061e-07  Tolerance :   5.0000e-09
  Last DIIS Error            ...    8.9466e-07  Tolerance :   5.0000e-07

             **** THE GBW FILE WAS UPDATED (CH3·.gbw) ****
             **** DENSITY FILE WAS UPDATED (CH3·.scfp) ****
             **** ENERGY FILE WAS UPDATED (CH3·.en.tmp) ****
----------------------
UHF SPIN CONTAMINATION
----------------------

Expectation value of <S**2>     :     0.760863
Ideal value S*(S+1) for S=0.5   :     0.750000
Deviation                       :     0.010863

             **** THE GBW FILE WAS UPDATED (CH3·.gbw) ****
             **** DENSITY FILE WAS UPDATED (CH3·.scfp) ****
----------------
ORBITAL ENERGIES
----------------
                 SPIN UP ORBITALS
  NO   OCC          E(Eh)            E(eV) 
   0   1.0000     -11.233084      -305.6678 
   1   1.0000      -0.950896       -25.8752 
   2   1.0000      -0.583866       -15.8878 
   3   1.0000      -0.583865       -15.8878 
   4   1.0000      -0.383450       -10.4342 
   5   0.0000       0.081215         2.2100 
   6   0.0000       0.106486         2.8976 
   7   0.0000       0.106486         2.8976 
   8   0.0000       0.127449         3.4681 
   9   0.0000       0.268020         7.2932 
  10   0.0000       0.278164         7.5692 
  11   0.0000       0.278164         7.5692 
  12   0.0000       0.540369        14.7042 
  13   0.0000       0.540369        14.7042 
  14   0.0000       0.600329        16.3358 
  15   0.0000       0.704128        19.1603 
  16   0.0000       0.830258        22.5925 
  17   0.0000       0.830258        22.5925 
  18   0.0000       0.914752        24.8917 
  19   0.0000       1.273194        34.6454 
  20   0.0000       1.273194        34.6454 
  21   0.0000       1.665975        45.3335 
  22   0.0000       1.679018        45.6884 
  23   0.0000       1.679018        45.6884 
  24   0.0000       1.772987        48.2454 
  25   0.0000       1.929473        52.5036 
  26   0.0000       2.223626        60.5079 
  27   0.0000       2.223626        60.5079 
  28   0.0000       2.240400        60.9644 
  29   0.0000       2.240401        60.9644 
  30   0.0000       2.742551        74.6286 
  31   0.0000       2.765054        75.2409 
  32   0.0000       2.765054        75.2409 
  33   0.0000       3.010949        81.9321 
  34   0.0000       3.010949        81.9321 
  35   0.0000       3.040306        82.7309 
  36   0.0000       3.121226        84.9329 
  37   0.0000       4.140453       112.6675 
  38   0.0000       4.140453       112.6675 
  39   0.0000      25.103652       683.1051 

                 SPIN DOWN ORBITALS
  NO   OCC          E(Eh)            E(eV) 
   0   1.0000     -11.209961      -305.0386 
   1   1.0000      -0.860194       -23.4071 
   2   1.0000      -0.568981       -15.4828 
   3   1.0000      -0.568980       -15.4827 
   4   0.0000       0.070970         1.9312 
   5   0.0000       0.087568         2.3829 
   6   0.0000       0.107608         2.9282 
   7   0.0000       0.107608         2.9282 
   8   0.0000       0.214841         5.8461 
   9   0.0000       0.283100         7.7035 
  10   0.0000       0.283100         7.7035 
  11   0.0000       0.286680         7.8009 
  12   0.0000       0.544933        14.8284 
  13   0.0000       0.544933        14.8284 
  14   0.0000       0.638080        17.3630 
  15   0.0000       0.817507        22.2455 
  16   0.0000       0.845625        23.0106 
  17   0.0000       0.845625        23.0106 
  18   0.0000       0.948959        25.8225 
  19   0.0000       1.334054        36.3014 
  20   0.0000       1.334054        36.3014 
  21   0.0000       1.661350        45.2076 
  22   0.0000       1.684372        45.8341 
  23   0.0000       1.684372        45.8341 
  24   0.0000       1.856363        50.5142 
  25   0.0000       1.942987        52.8714 
  26   0.0000       2.222582        60.4795 
  27   0.0000       2.222582        60.4795 
  28   0.0000       2.279260        62.0218 
  29   0.0000       2.279261        62.0218 
  30   0.0000       2.741745        74.6067 
  31   0.0000       2.768167        75.3256 
  32   0.0000       2.768167        75.3257 
  33   0.0000       3.019426        82.1628 
  34   0.0000       3.019426        82.1628 
  35   0.0000       3.048924        82.9654 
  36   0.0000       3.204243        87.1919 
  37   0.0000       4.161001       113.2266 
  38   0.0000       4.161001       113.2266 
  39   0.0000      25.119225       683.5289 
------------------
MOLECULAR ORBITALS
------------------
                      0         1         2         3         4         5   
                 -11.23308  -0.95090  -0.58387  -0.58387  -0.38345   0.08121
                   1.00000   1.00000   1.00000   1.00000   1.00000   0.00000
                  --------  --------  --------  --------  --------  --------
  0C   1s        -0.562917  0.108262 -0.000000 -0.000000 -0.000000  0.028474
  0C   2s        -0.466439  0.179619 -0.000000 -0.000000 -0.000000  0.050019
  0C   1pz       -0.000000 -0.000000  0.000000  0.000000  0.255563 -0.000000
  0C   1px       -0.000000  0.000000 -0.000000  0.198898  0.000000 -0.000000
  0C   1py        0.000000  0.000000  0.198898  0.000000  0.000000 -0.000000
  0C   3s        -0.006048 -0.459636  0.000000  0.000000  0.000000 -0.131428
  0C   2pz        0.000000  0.000000  0.000000 -0.000000  0.434664 -0.000000
  0C   2px        0.000000  0.000000 -0.000000  0.314613 -0.000000  0.000000
  0C   2py       -0.000000 -0.000000  0.314613  0.000000 -0.000000 -0.000000
  0C   4s         0.001031 -0.361090 -0.000000  0.000000 -0.000000 -0.328025
  0C   3pz       -0.000000 -0.000000 -0.000000  0.000000  0.456804 -0.000000
  0C   3px       -0.000000  0.000000 -0.000000  0.194963  0.000000 -0.000000
  0C   3py       -0.000000 -0.000000  0.194963  0.000000  0.000000  0.000000
  0C   5s         0.000290 -0.026545 -0.000000  0.000000 -0.000000  2.320543
  0C   4pz        0.000000  0.000000  0.000000 -0.000000  0.059120  0.000000
  0C   4px       -0.000000 -0.000000 -0.000000  0.003657  0.000000  0.000000
  0C   4py       -0.000000  0.000000  0.003657  0.000000  0.000000  0.000000
  0C   1dz2      -0.000254 -0.004942  0.000000 -0.000000  0.000000  0.019685
  0C   1dxz       0.000000  0.000000  0.000000 -0.000000 -0.000000  0.000000
  0C   1dyz       0.000000  0.000000  0.000000  0.000000  0.000000  0.000000
  0C   1dx2y2     0.000000  0.000000 -0.000000  0.030457 -0.000000  0.000000
  0C   1dxy       0.000000  0.000000 -0.030457 -0.000000  0.000000  0.000000
  1H   1s        -0.000412 -0.088393 -0.000000  0.161755 -0.000000 -0.018359
  1H   2s         0.000343 -0.108722 -0.000000  0.243792 -0.000000  0.118364
  1H   3s        -0.000530  0.016697 -0.000000  0.077420  0.000000 -0.623448
  1H   1pz       -0.000000 -0.000000 -0.000000  0.000000  0.019385  0.000000
  1H   1px       -0.000178  0.020071  0.000000 -0.018694 -0.000000 -0.000634
  1H   1py        0.000000  0.000000  0.010455  0.000000 -0.000000 -0.000000
  2H   1s        -0.000412 -0.088393  0.140084 -0.080877  0.000000 -0.018359
  2H   2s         0.000343 -0.108722  0.211130 -0.121896 -0.000000  0.118364
  2H   3s        -0.000530  0.016697  0.067047 -0.038710  0.000000 -0.623448
  2H   1pz       -0.000000 -0.000000 -0.000000  0.000000  0.019385  0.000000
  2H   1px        0.000089 -0.010035  0.012622  0.003168  0.000000  0.000317
  2H   1py       -0.000154  0.017382 -0.011406  0.012622 -0.000000 -0.000549
  3H   1s        -0.000412 -0.088393 -0.140084 -0.080877 -0.000000 -0.018359
  3H   2s         0.000343 -0.108722 -0.211130 -0.121896 -0.000000  0.118364
  3H   3s        -0.000530  0.016697 -0.067047 -0.038710  0.000000 -0.623448
  3H   1pz        0.000000 -0.000000 -0.000000 -0.000000  0.019385  0.000000
  3H   1px        0.000089 -0.010035 -0.012622  0.003168 -0.000000  0.000317
  3H   1py        0.000154 -0.017382 -0.011406 -0.012622 -0.000000  0.000549
                      6         7         8         9        10        11   
                   0.10649   0.10649   0.12745   0.26802   0.27816   0.27816
                   0.00000   0.00000   0.00000   0.00000   0.00000   0.00000
                  --------  --------  --------  --------  --------  --------
  0C   1s        -0.000000 -0.000000  0.000000  0.049220  0.000000  0.000000
  0C   2s        -0.000000 -0.000000  0.000000  0.079656  0.000000  0.000000
  0C   1pz       -0.000000 -0.000000  0.096813  0.000000  0.000000 -0.000000
  0C   1px        0.000000  0.044983 -0.000000 -0.000000  0.130519  0.000000
  0C   1py       -0.044983  0.000000 -0.000000 -0.000000 -0.000000  0.130519
  0C   3s        -0.000000 -0.000000 -0.000000 -0.062679  0.000000 -0.000000
  0C   2pz        0.000000  0.000000  0.079552  0.000000  0.000000  0.000000
  0C   2px        0.000000  0.099564  0.000000 -0.000000  0.042474  0.000000
  0C   2py       -0.099564  0.000000 -0.000000 -0.000000 -0.000000  0.042474
  0C   4s         0.000000  0.000000 -0.000000 -2.818918 -0.000002 -0.000000
  0C   3pz       -0.000000 -0.000000  0.537473  0.000000 -0.000000 -0.000000
  0C   3px        0.000000  0.156670 -0.000000 -0.000001  1.559745  0.000000
  0C   3py       -0.156669  0.000000 -0.000000 -0.000000 -0.000000  1.559747
  0C   5s        -0.000000 -0.000000  0.000000 -2.463396 -0.000001 -0.000000
  0C   4pz        0.000000  0.000000 -1.239225  0.000000 -0.000000  0.000000
  0C   4px       -0.000000 -1.548488 -0.000000 -0.000001  0.889724  0.000000
  0C   4py        1.548488 -0.000000  0.000000 -0.000000 -0.000000  0.889726
  0C   1dz2      -0.000000  0.000000  0.000000 -0.025561 -0.000000 -0.000000
  0C   1dxz       0.000000  0.000000 -0.000000  0.000000 -0.000000 -0.000000
  0C   1dyz       0.000000 -0.000000  0.000000 -0.000000 -0.000000 -0.000000
  0C   1dx2y2     0.000000  0.033470  0.000000  0.000000 -0.036963 -0.000000
  0C   1dxy       0.033470 -0.000000  0.000000 -0.000000 -0.000000  0.036963
  1H   1s         0.000000  0.039978  0.000000  0.053508 -0.038264 -0.000000
  1H   2s        -0.000000 -0.131042 -0.000000  0.054667 -0.009295 -0.000000
  1H   3s         0.000000  0.889883  0.000000  2.048196 -3.051127 -0.000000
  1H   1pz        0.000000  0.000000 -0.001938 -0.000000  0.000000 -0.000000
  1H   1px        0.000000  0.007308  0.000000 -0.001987 -0.029584 -0.000000
  1H   1py        0.004173 -0.000000  0.000000 -0.000000 -0.000000  0.009238
  2H   1s        -0.034622 -0.019989 -0.000000  0.053508  0.019132 -0.033137
  2H   2s         0.113486  0.065521  0.000000  0.054667  0.004648 -0.008050
  2H   3s        -0.770662 -0.444941 -0.000000  2.048194  1.525565 -2.642356
  2H   1pz       -0.000000  0.000000 -0.001938  0.000000 -0.000000  0.000000
  2H   1px        0.004972 -0.001303  0.000000  0.000994 -0.000467  0.016810
  2H   1py       -0.004438 -0.004972 -0.000000 -0.001721  0.016810 -0.019878
  3H   1s         0.034622 -0.019989 -0.000000  0.053508  0.019132  0.033137
  3H   2s        -0.113486  0.065521 -0.000000  0.054667  0.004648  0.008050
  3H   3s         0.770662 -0.444942  0.000000  2.048194  1.525564  2.642356
  3H   1pz        0.000000  0.000000 -0.001938  0.000000  0.000000 -0.000000
  3H   1px       -0.004972 -0.001303 -0.000000  0.000994 -0.000467 -0.016810
  3H   1py       -0.004438  0.004972 -0.000000  0.001721 -0.016810 -0.019878
                     12        13        14        15        16        17   
                   0.54037   0.54037   0.60033   0.70413   0.83026   0.83026
                   0.00000   0.00000   0.00000   0.00000   0.00000   0.00000
                  --------  --------  --------  --------  --------  --------
  0C   1s        -0.000000  0.000000 -0.004420  0.000000  0.000000 -0.000000
  0C   2s        -0.000000  0.000000 -0.008518  0.000000  0.000000 -0.000000
  0C   1pz       -0.000000  0.000000 -0.000000 -0.221620  0.000000  0.000000
  0C   1px       -0.056354  0.000000  0.000000 -0.000000 -0.248573 -0.000000
  0C   1py       -0.000000 -0.056354  0.000000  0.000000 -0.000000  0.248573
  0C   3s         0.000000  0.000000  0.299389 -0.000000 -0.000001  0.000000
  0C   2pz       -0.000000  0.000000 -0.000000 -0.969000  0.000000  0.000000
  0C   2px       -0.032763  0.000000  0.000000 -0.000000 -1.073870 -0.000000
  0C   2py       -0.000000 -0.032763  0.000000  0.000000 -0.000000  1.073870
  0C   4s        -0.000002  0.000000 -1.607890  0.000000  0.000003 -0.000000
  0C   3pz        0.000000 -0.000000  0.000000  1.611907 -0.000000 -0.000000
  0C   3px        1.621014 -0.000001 -0.000002  0.000000  1.586363  0.000000
  0C   3py        0.000001  1.621016 -0.000000  0.000000  0.000000 -1.586363
  0C   5s         0.000002 -0.000000  1.724670 -0.000000  0.000001 -0.000000
  0C   4pz        0.000000  0.000000 -0.000000 -0.659953  0.000000  0.000000
  0C   4px       -1.008553  0.000000  0.000001  0.000000  0.366659  0.000000
  0C   4py       -0.000000 -1.008552  0.000000 -0.000000  0.000000 -0.366660
  0C   1dz2       0.000000 -0.000000 -0.014460 -0.000000 -0.000000  0.000000
  0C   1dxz       0.000000 -0.000000 -0.000000  0.000000 -0.000000  0.000000
  0C   1dyz       0.000000 -0.000000  0.000000  0.000000 -0.000000 -0.000000
  0C   1dx2y2     0.050778 -0.000000  0.000000  0.000000  0.065454  0.000000
  0C   1dxy      -0.000000 -0.050778 -0.000000 -0.000000 -0.000000  0.065454
  1H   1s        -0.046034  0.000000  0.054844  0.000000  0.070115  0.000000
  1H   2s        -1.526043  0.000001  1.234098  0.000000  0.838797  0.000000
  1H   3s         1.307434 -0.000001 -1.068676 -0.000000 -2.243615 -0.000000
  1H   1pz        0.000000 -0.000000 -0.000000 -0.024065  0.000000  0.000000
  1H   1px        0.098136 -0.000000 -0.055239  0.000000  0.036976  0.000000
  1H   1py        0.000000  0.036784 -0.000000 -0.000000 -0.000000  0.067429
  2H   1s         0.023017 -0.039867  0.054844 -0.000000 -0.035058 -0.060722
  2H   2s         0.763023 -1.321594  1.234096 -0.000000 -0.419399 -0.726421
  2H   3s        -0.653718  1.132270 -1.068673  0.000000  1.121805  1.943028
  2H   1pz        0.000000 -0.000000  0.000000 -0.024065 -0.000000  0.000000
  2H   1px        0.052122 -0.026566  0.027619 -0.000000 -0.041328  0.045209
  2H   1py       -0.026566  0.082798 -0.047838 -0.000000 -0.045209 -0.010874
  3H   1s         0.023017  0.039867  0.054844 -0.000000 -0.035058  0.060722
  3H   2s         0.763024  1.321594  1.234096  0.000000 -0.419399  0.726421
  3H   3s        -0.653719 -1.132270 -1.068673  0.000000  1.121805 -1.943028
  3H   1pz        0.000000 -0.000000  0.000000 -0.024065  0.000000 -0.000000
  3H   1px        0.052122  0.026566  0.027619 -0.000000 -0.041328 -0.045209
  3H   1py        0.026566  0.082798  0.047838  0.000000  0.045209 -0.010874
                     18        19        20        21        22        23   
                   0.91475   1.27319   1.27319   1.66598   1.67902   1.67902
                   0.00000   0.00000   0.00000   0.00000   0.00000   0.00000
                  --------  --------  --------  --------  --------  --------
  0C   1s        -0.118077  0.000000 -0.000000 -0.000000 -0.000000  0.000000
  0C   2s        -0.245760  0.000000 -0.000000  0.000000 -0.000000  0.000000
  0C   1pz       -0.000000  0.000000 -0.000000 -0.000000 -0.000000 -0.000000
  0C   1px       -0.000000 -0.000000  0.000000  0.000000 -0.000000  0.095166
  0C   1py       -0.000000  0.000000 -0.000000  0.000001 -0.095166 -0.000000
  0C   3s         1.835215 -0.000000  0.000000 -0.000000  0.000000 -0.000001
  0C   2pz       -0.000000  0.000000  0.000000  0.000000 -0.000000  0.000000
  0C   2px       -0.000001  0.000000  0.000000  0.000000 -0.000000  0.063361
  0C   2py       -0.000000 -0.000000  0.000000  0.000001 -0.063361 -0.000000
  0C   4s        -4.097914  0.000000 -0.000000  0.000000  0.000000  0.000000
  0C   3pz        0.000000 -0.000000 -0.000000 -0.000000  0.000000 -0.000000
  0C   3px        0.000001  0.000000  0.000000  0.000000 -0.000000  1.223496
  0C   3py        0.000000 -0.000000 -0.000000  0.000016 -1.223497 -0.000000
  0C   5s        -0.920067 -0.000000 -0.000000  0.000000 -0.000000  0.000000
  0C   4pz       -0.000000  0.000000  0.000000  0.000000 -0.000000 -0.000000
  0C   4px        0.000000  0.000000  0.000000 -0.000000  0.000000 -0.327154
  0C   4py        0.000000  0.000000  0.000000 -0.000004  0.327154  0.000000
  0C   1dz2       0.160566  0.000000 -0.000000  0.000000 -0.000000 -0.000000
  0C   1dxz       0.000000  0.000000  0.565643  0.000000 -0.000000  0.000000
  0C   1dyz      -0.000000  0.565642 -0.000000 -0.000000  0.000000 -0.000000
  0C   1dx2y2     0.000000  0.000000 -0.000000  0.000000 -0.000000  0.644126
  0C   1dxy      -0.000000  0.000000 -0.000000 -0.000008  0.644126  0.000000
  1H   1s        -0.064193  0.000000 -0.000000  0.000000 -0.000000  0.119993
  1H   2s        -0.082250 -0.000000 -0.000000 -0.000000  0.000000 -1.290484
  1H   3s         1.482255 -0.000000 -0.000000  0.000000 -0.000000  0.353180
  1H   1pz       -0.000000  0.000000  0.475571  0.000000  0.000000  0.000000
  1H   1px       -0.168274  0.000000  0.000000 -0.000000  0.000000 -0.158484
  1H   1py       -0.000000  0.000000  0.000000  0.594081  0.513820  0.000000
  2H   1s        -0.064193 -0.000000  0.000000  0.000001 -0.103917 -0.059997
  2H   2s        -0.082251  0.000000 -0.000000 -0.000014  1.117593  0.645242
  2H   3s         1.482258  0.000000 -0.000000  0.000004 -0.305862 -0.176590
  2H   1pz        0.000000  0.411856 -0.237785 -0.000000  0.000000  0.000000
  2H   1px        0.084137  0.000000  0.000000 -0.514497  0.153855 -0.424980
  2H   1py       -0.145729 -0.000000  0.000000 -0.297047  0.247311 -0.153862
  3H   1s        -0.064193 -0.000000  0.000000 -0.000001  0.103917 -0.059997
  3H   2s        -0.082251 -0.000000 -0.000000  0.000014 -1.117593  0.645242
  3H   3s         1.482258  0.000000  0.000000 -0.000004  0.305862 -0.176590
  3H   1pz        0.000000 -0.411856 -0.237785  0.000000  0.000000  0.000000
  3H   1px        0.084137  0.000000  0.000000  0.514497 -0.153855 -0.424980
  3H   1py        0.145729  0.000000  0.000000 -0.297047  0.247311  0.153862
                     24        25        26        27        28        29   
                   1.77299   1.92947   2.22363   2.22363   2.24040   2.24040
                   0.00000   0.00000   0.00000   0.00000   0.00000   0.00000
                  --------  --------  --------  --------  --------  --------
  0C   1s         0.002304 -0.000000  0.000000  0.000000 -0.000000  0.000000
  0C   2s         0.006751 -0.000000  0.000000  0.000000 -0.000000  0.000000
  0C   1pz       -0.000000 -0.143996  0.000000  0.000000 -0.000000  0.000000
  0C   1px       -0.000000  0.000000 -0.000000 -0.222342  0.000000  0.000000
  0C   1py        0.000000  0.000000 -0.222342  0.000000  0.000000  0.000000
  0C   3s        -0.125231  0.000000 -0.000000 -0.000001  0.000000 -0.000000
  0C   2pz       -0.000000 -0.151945 -0.000000 -0.000000  0.000000 -0.000000
  0C   2px       -0.000001  0.000000  0.000000  0.763183  0.000000 -0.000000
  0C   2py       -0.000000 -0.000000  0.763186 -0.000000 -0.000000 -0.000000
  0C   4s         1.075837 -0.000000 -0.000000 -0.000000 -0.000000  0.000000
  0C   3pz       -0.000000 -0.516408 -0.000000  0.000000 -0.000000  0.000000
  0C   3px       -0.000000 -0.000000 -0.000000 -0.247344  0.000000  0.000000
  0C   3py        0.000000  0.000000 -0.247343  0.000000  0.000000  0.000000
  0C   5s        -0.538237 -0.000000  0.000000  0.000001 -0.000000  0.000000
  0C   4pz        0.000000  0.131909  0.000000  0.000000  0.000000 -0.000000
  0C   4px        0.000000  0.000000 -0.000000 -0.425347  0.000000  0.000000
  0C   4py       -0.000000 -0.000000 -0.425348  0.000000  0.000000  0.000000
  0C   1dz2      -1.053182  0.000000  0.000000  0.000000  0.000000 -0.000000
  0C   1dxz      -0.000000  0.000000 -0.000000 -0.000000 -1.029733  0.000000
  0C   1dyz       0.000000 -0.000000 -0.000000 -0.000000 -0.000000 -1.029733
  0C   1dx2y2    -0.000001 -0.000000  0.000000  1.021048 -0.000000 -0.000000
  0C   1dxy      -0.000000  0.000000 -1.021049  0.000000  0.000000  0.000000
  1H   1s         0.130267 -0.000000  0.000000  0.641450 -0.000000 -0.000000
  1H   2s        -0.922900  0.000000 -0.000001 -1.834129  0.000000  0.000000
  1H   3s         0.389224  0.000000  0.000001  1.458631 -0.000000 -0.000000
  1H   1pz        0.000000  0.667288  0.000000  0.000000  0.838586 -0.000000
  1H   1px       -0.067120  0.000000  0.000000  0.391579  0.000000 -0.000000
  1H   1py       -0.000000 -0.000000  0.707005 -0.000000 -0.000000 -0.000000
  2H   1s         0.130267 -0.000000  0.555512 -0.320726 -0.000000 -0.000000
  2H   2s        -0.922902  0.000000 -1.588406  0.917068  0.000000  0.000000
  2H   3s         0.389224 -0.000000  1.263213 -0.729318 -0.000000 -0.000000
  2H   1pz        0.000000  0.667288  0.000000  0.000000 -0.419293  0.726237
  2H   1px        0.033560  0.000000  0.136583  0.628149 -0.000000 -0.000000
  2H   1py       -0.058127 -0.000000  0.470437  0.136583 -0.000000 -0.000000
  3H   1s         0.130267  0.000000 -0.555513 -0.320725  0.000000  0.000000
  3H   2s        -0.922902 -0.000000  1.588407  0.917066 -0.000000 -0.000000
  3H   3s         0.389224  0.000000 -1.263214 -0.729316  0.000000  0.000000
  3H   1pz        0.000000  0.667288 -0.000000 -0.000000 -0.419293 -0.726237
  3H   1px        0.033560  0.000000 -0.136583  0.628149  0.000000  0.000000
  3H   1py        0.058127 -0.000000  0.470437 -0.136583 -0.000000 -0.000000
                     30        31        32        33        34        35   
                   2.74255   2.76505   2.76505   3.01095   3.01095   3.04031
                   0.00000   0.00000   0.00000   0.00000   0.00000   0.00000
                  --------  --------  --------  --------  --------  --------
  0C   1s         0.032280 -0.000000 -0.000000  0.000001 -0.000000 -0.100271
  0C   2s         0.042495 -0.000000 -0.000000  0.000004 -0.000000 -0.274134
  0C   1pz        0.000000 -0.000000  0.000000  0.000000 -0.000000 -0.000000
  0C   1px       -0.000004 -0.306768  0.000000 -0.887171  0.000000 -0.000013
  0C   1py       -0.000000 -0.000000 -0.306767 -0.000000 -0.887171 -0.000000
  0C   3s         0.086694  0.000001 -0.000000 -0.000031  0.000000  2.154585
  0C   2pz       -0.000000  0.000000 -0.000000 -0.000000  0.000000  0.000000
  0C   2px       -0.000012 -1.889773  0.000000  1.110434 -0.000000  0.000015
  0C   2py       -0.000000 -0.000000 -1.889776  0.000000  1.110432  0.000000
  0C   4s        -0.567427  0.000003  0.000000 -0.000026  0.000000  1.929700
  0C   3pz        0.000000 -0.000000  0.000000  0.000000 -0.000000 -0.000000
  0C   3px       -0.000006 -0.821238  0.000000 -0.236398  0.000000 -0.000003
  0C   3py       -0.000000 -0.000000 -0.821239 -0.000000 -0.236398 -0.000000
  0C   5s        -0.964279  0.000007  0.000000  0.000009 -0.000000 -0.509075
  0C   4pz       -0.000000  0.000000 -0.000000 -0.000000  0.000000  0.000000
  0C   4px        0.000001  0.280351 -0.000000 -0.202621  0.000000 -0.000003
  0C   4py        0.000000  0.000000  0.280351 -0.000000 -0.202621 -0.000000
  0C   1dz2       0.442356 -0.000003 -0.000000  0.000012 -0.000000 -0.936509
  0C   1dxz      -0.000000 -0.000000 -0.000000  0.000000  0.000000 -0.000000
  0C   1dyz      -0.000000  0.000000 -0.000000  0.000000 -0.000000 -0.000000
  0C   1dx2y2    -0.000006 -0.767000  0.000000 -0.703347  0.000000 -0.000011
  0C   1dxy       0.000000  0.000000  0.766998  0.000000  0.703348  0.000000
  1H   1s         0.910921 -0.368775  0.000000  0.755584 -0.000000  0.242812
  1H   2s        -1.075471  2.604398 -0.000000 -1.077679  0.000000 -1.831488
  1H   3s         0.967202 -0.537162  0.000000  0.909525 -0.000000  0.271892
  1H   1pz        0.000000  0.000000  0.000000  0.000000 -0.000000 -0.000000
  1H   1px       -0.145837 -1.636178  0.000000 -0.057234  0.000000  1.146227
  1H   1py        0.000000  0.000000  0.336056 -0.000000 -0.557138 -0.000000
  2H   1s         0.910922  0.184377 -0.319363 -0.377800  0.654359  0.242795
  2H   2s        -1.075494 -1.302187  2.255470  0.538881 -0.933320 -1.831465
  2H   3s         0.967204  0.268570 -0.465190 -0.454771  0.787676  0.271872
  2H   1pz        0.000000  0.000000 -0.000000  0.000000  0.000000 -0.000000
  2H   1px        0.072911 -0.157004  0.854003 -0.432151 -0.216472 -0.573120
  2H   1py       -0.126282  0.854003 -1.143121 -0.216486 -0.182199  0.992660
  3H   1s         0.910922  0.184377  0.319363 -0.377800 -0.654359  0.242795
  3H   2s        -1.075494 -1.302188 -2.255470  0.538881  0.933320 -1.831465
  3H   3s         0.967204  0.268571  0.465190 -0.454771 -0.787676  0.271872
  3H   1pz       -0.000000 -0.000000 -0.000000  0.000000 -0.000000 -0.000000
  3H   1px        0.072911 -0.157004 -0.854003 -0.432150  0.216472 -0.573120
  3H   1py        0.126282 -0.854004 -1.143121  0.216486 -0.182199 -0.992660
                     36        37        38        39   
                   3.12123   4.14045   4.14045  25.10365
                   0.00000   0.00000   0.00000   0.00000
                  --------  --------  --------  --------
  0C   1s        -0.000000  0.000000  0.000000 -2.040235
  0C   2s        -0.000000  0.000000  0.000000  2.238959
  0C   1pz        1.332868  0.000000 -0.000000 -0.000000
  0C   1px        0.000000 -1.115727 -0.000000 -0.000000
  0C   1py       -0.000000 -0.000000  1.115727  0.000000
  0C   3s         0.000000 -0.000002 -0.000000 -0.768002
  0C   2pz       -1.604562 -0.000000  0.000000  0.000000
  0C   2px       -0.000000  3.405610  0.000000  0.000000
  0C   2py        0.000000  0.000000 -3.405613 -0.000000
  0C   4s         0.000000 -0.000000 -0.000000  0.105998
  0C   3pz        0.721937  0.000000 -0.000000 -0.000000
  0C   3px       -0.000000 -0.469740 -0.000000 -0.000000
  0C   3py        0.000000 -0.000000  0.469741 -0.000000
  0C   5s        -0.000000 -0.000000  0.000000  0.136456
  0C   4pz       -0.239937  0.000000  0.000000  0.000000
  0C   4px        0.000000 -0.039300 -0.000000 -0.000000
  0C   4py       -0.000000 -0.000000  0.039300  0.000000
  0C   1dz2      -0.000000  0.000000  0.000000  0.163439
  0C   1dxz       0.000000  0.000000 -0.000000  0.000000
  0C   1dyz       0.000000  0.000000 -0.000000 -0.000000
  0C   1dx2y2     0.000000  1.540531  0.000000  0.000000
  0C   1dxy       0.000000 -0.000000  1.540531  0.000000
  1H   1s        -0.000000 -0.966628 -0.000000 -0.005199
  1H   2s        -0.000000 -1.412288 -0.000000  0.300846
  1H   3s        -0.000000  0.549695  0.000000 -0.158277
  1H   1pz        0.142346 -0.000000  0.000000 -0.000000
  1H   1px        0.000000  1.421198  0.000000 -0.193255
  1H   1py       -0.000000  0.000000 -0.098061 -0.000000
  2H   1s         0.000000  0.483315  0.837125 -0.005199
  2H   2s        -0.000000  0.706144  1.223079  0.300847
  2H   3s         0.000000 -0.274847 -0.476051 -0.158277
  2H   1pz        0.142346 -0.000000 -0.000000 -0.000000
  2H   1px       -0.000000  0.428845  0.572935  0.096628
  2H   1py        0.000000 -0.572935 -1.090414 -0.167364
  3H   1s        -0.000000  0.483315 -0.837125 -0.005199
  3H   2s        -0.000000  0.706144 -1.223079  0.300847
  3H   3s         0.000000 -0.274847  0.476051 -0.158277
  3H   1pz        0.142346  0.000000 -0.000000  0.000000
  3H   1px       -0.000000  0.428845 -0.572935  0.096628
  3H   1py       -0.000000  0.572936 -1.090414  0.167364

                      0         1         2         3         4         5   
                 -11.20996  -0.86019  -0.56898  -0.56898   0.07097   0.08757
                   1.00000   1.00000   1.00000   1.00000   0.00000   0.00000
                  --------  --------  --------  --------  --------  --------
  0C   1s        -0.563769  0.101097 -0.000000 -0.000000  0.000000 -0.026696
  0C   2s        -0.466784  0.166838 -0.000000 -0.000000  0.000000 -0.046438
  0C   1pz        0.000000  0.000000  0.000000  0.000000  0.090925  0.000000
  0C   1px       -0.000000  0.000000  0.000000  0.189448  0.000000  0.000000
  0C   1py       -0.000000  0.000000  0.189448 -0.000000 -0.000000  0.000000
  0C   3s        -0.002405 -0.418332 -0.000000  0.000000 -0.000000  0.104804
  0C   2pz       -0.000000  0.000000  0.000000 -0.000000  0.172631  0.000000
  0C   2px        0.000000  0.000000  0.000000  0.276178 -0.000000 -0.000000
  0C   2py        0.000000 -0.000000  0.276178 -0.000000 -0.000000  0.000000
  0C   4s        -0.000099 -0.249456  0.000000  0.000000 -0.000000  0.354695
  0C   3pz        0.000000 -0.000000  0.000000  0.000000  0.076703  0.000000
  0C   3px       -0.000000  0.000000  0.000000  0.163444  0.000000  0.000000
  0C   3py       -0.000000 -0.000000  0.163444 -0.000000 -0.000000 -0.000000
  0C   5s         0.000134 -0.003095  0.000000  0.000000  0.000000 -2.366174
  0C   4pz       -0.000000  0.000000 -0.000000 -0.000000  0.855561  0.000000
  0C   4px       -0.000000  0.000000  0.000000  0.006893  0.000000 -0.000000
  0C   4py       -0.000000 -0.000000  0.006893 -0.000000 -0.000000 -0.000000
  0C   1dz2       0.000964  0.032384 -0.000000 -0.000000  0.000000 -0.026005
  0C   1dxz       0.000000  0.000000  0.000000 -0.000000  0.000000  0.000000
  0C   1dyz       0.000000  0.000000 -0.000000  0.000000  0.000000 -0.000000
  0C   1dx2y2     0.000000  0.000000  0.000000  0.025721 -0.000000 -0.000000
  0C   1dxy      -0.000000  0.000000 -0.025721  0.000000  0.000000 -0.000000
  1H   1s        -0.000359 -0.099135  0.000000  0.173696 -0.000000  0.021543
  1H   2s         0.000102 -0.148656  0.000000  0.284576  0.000000 -0.127949
  1H   3s        -0.000146 -0.015350  0.000000  0.095728 -0.000000  0.648802
  1H   1pz        0.000000 -0.000000 -0.000000  0.000000  0.019554  0.000000
  1H   1px        0.000042  0.020374 -0.000000 -0.023325 -0.000000  0.002334
  1H   1py        0.000000  0.000000  0.012400 -0.000000  0.000000  0.000000
  2H   1s        -0.000359 -0.099135  0.150425 -0.086848 -0.000000  0.021543
  2H   2s         0.000102 -0.148656  0.246450 -0.142288  0.000000 -0.127949
  2H   3s        -0.000146 -0.015350  0.082903 -0.047864 -0.000000  0.648803
  2H   1pz       -0.000000 -0.000000  0.000000 -0.000000  0.019554  0.000000
  2H   1px       -0.000021 -0.010187  0.015469  0.003468  0.000000 -0.001167
  2H   1py        0.000037  0.017644 -0.014394  0.015469 -0.000000  0.002021
  3H   1s        -0.000359 -0.099135 -0.150425 -0.086848 -0.000000  0.021543
  3H   2s         0.000102 -0.148656 -0.246450 -0.142288  0.000000 -0.127949
  3H   3s        -0.000146 -0.015350 -0.082903 -0.047864 -0.000000  0.648803
  3H   1pz        0.000000  0.000000  0.000000 -0.000000  0.019554  0.000000
  3H   1px       -0.000021 -0.010187 -0.015469  0.003468 -0.000000 -0.001167
  3H   1py       -0.000037 -0.017644 -0.014394 -0.015469 -0.000000 -0.002021
                      6         7         8         9        10        11   
                   0.10761   0.10761   0.21484   0.28310   0.28310   0.28668
                   0.00000   0.00000   0.00000   0.00000   0.00000   0.00000
                  --------  --------  --------  --------  --------  --------
  0C   1s        -0.000000  0.000000 -0.000000 -0.000000  0.000000  0.052452
  0C   2s        -0.000000  0.000000 -0.000000 -0.000000  0.000000  0.083911
  0C   1pz       -0.000000  0.000000  0.191326  0.000000  0.000000  0.000000
  0C   1px        0.000000 -0.042532 -0.000000  0.133614 -0.000000  0.000000
  0C   1py       -0.042532 -0.000000  0.000000 -0.000000 -0.133614  0.000000
  0C   3s         0.000000  0.000000 -0.000000  0.000000 -0.000000 -0.060144
  0C   2pz        0.000000 -0.000000  0.174319  0.000000  0.000000  0.000000
  0C   2px        0.000000 -0.092487 -0.000000  0.029742 -0.000000 -0.000000
  0C   2py       -0.092487 -0.000000 -0.000000 -0.000000 -0.029742  0.000000
  0C   4s         0.000000 -0.000000  0.000000  0.000000 -0.000000 -2.852876
  0C   3pz       -0.000000  0.000000  0.983467  0.000000  0.000000  0.000000
  0C   3px        0.000000 -0.150332 -0.000000  1.582737 -0.000000  0.000000
  0C   3py       -0.150332 -0.000000  0.000000 -0.000000 -1.582739  0.000000
  0C   5s        -0.000000  0.000000  0.000000  0.000001 -0.000000 -2.530319
  0C   4pz        0.000000 -0.000000 -0.960985 -0.000000 -0.000000 -0.000000
  0C   4px       -0.000000  1.558355 -0.000000  0.878529 -0.000000 -0.000000
  0C   4py        1.558355  0.000000  0.000000 -0.000000 -0.878530  0.000000
  0C   1dz2      -0.000000 -0.000000 -0.000000 -0.000000  0.000000  0.005483
  0C   1dxz      -0.000000  0.000000 -0.000000 -0.000000 -0.000000  0.000000
  0C   1dyz      -0.000000  0.000000  0.000000 -0.000000 -0.000000 -0.000000
  0C   1dx2y2     0.000000 -0.033227  0.000000 -0.036098  0.000000 -0.000000
  0C   1dxy       0.033227  0.000000  0.000000 -0.000000 -0.036098  0.000000
  1H   1s         0.000000 -0.043188  0.000000 -0.030823  0.000000  0.043591
  1H   2s        -0.000000  0.126063 -0.000000  0.017170 -0.000000 -0.009064
  1H   3s         0.000000 -0.915832  0.000000 -3.071101  0.000000  2.122001
  1H   1pz        0.000000 -0.000000  0.017063  0.000000 -0.000000 -0.000000
  1H   1px        0.000000 -0.006786  0.000000 -0.035003  0.000000  0.001322
  1H   1py        0.004496  0.000000 -0.000000 -0.000000 -0.010854  0.000000
  2H   1s        -0.037402  0.021594 -0.000000  0.015411  0.026693  0.043591
  2H   2s         0.109174 -0.063031  0.000000 -0.008585 -0.014870 -0.009064
  2H   3s        -0.793134  0.457916 -0.000000  1.535550  2.659653  2.122003
  2H   1pz        0.000000 -0.000000  0.017063 -0.000000  0.000000  0.000000
  2H   1px        0.004885  0.001675  0.000000 -0.000610 -0.019857 -0.000661
  2H   1py       -0.003966  0.004885 -0.000000  0.019857  0.023538  0.001145
  3H   1s         0.037402  0.021594  0.000000  0.015411 -0.026693  0.043591
  3H   2s        -0.109174 -0.063031 -0.000000 -0.008585  0.014870 -0.009064
  3H   3s         0.793134  0.457916 -0.000000  1.535549 -2.659654  2.122003
  3H   1pz       -0.000000 -0.000000  0.017063  0.000000  0.000000  0.000000
  3H   1px       -0.004885  0.001675  0.000000 -0.000610  0.019857 -0.000661
  3H   1py       -0.003966 -0.004885 -0.000000 -0.019857  0.023538 -0.001145
                     12        13        14        15        16        17   
                   0.54493   0.54493   0.63808   0.81751   0.84563   0.84563
                   0.00000   0.00000   0.00000   0.00000   0.00000   0.00000
                  --------  --------  --------  --------  --------  --------
  0C   1s         0.000000 -0.000000  0.006059 -0.000000 -0.000000 -0.000000
  0C   2s         0.000000 -0.000000  0.009231 -0.000000 -0.000000 -0.000000
  0C   1pz       -0.000000  0.000000 -0.000000  0.243436 -0.000000 -0.000000
  0C   1px        0.046996  0.000000 -0.000000  0.000000  0.253870  0.000000
  0C   1py        0.000000 -0.046996 -0.000000 -0.000000 -0.000000  0.253870
  0C   3s        -0.000000  0.000000  0.243270  0.000000  0.000001  0.000000
  0C   2pz        0.000000  0.000000 -0.000000  1.066289 -0.000000  0.000000
  0C   2px        0.018525  0.000000  0.000000  0.000000  1.072915  0.000000
  0C   2py        0.000000 -0.018525  0.000000 -0.000000 -0.000000  1.072915
  0C   4s         0.000002 -0.000000 -1.753858  0.000000 -0.000003 -0.000000
  0C   3pz        0.000000 -0.000000 -0.000000 -1.472897  0.000000 -0.000000
  0C   3px       -1.602327 -0.000000 -0.000001 -0.000000 -1.588590 -0.000000
  0C   3py       -0.000000  1.602329 -0.000000 -0.000000  0.000000 -1.588590
  0C   5s        -0.000001 -0.000000  1.589300 -0.000000 -0.000001 -0.000000
  0C   4pz       -0.000000 -0.000000  0.000000  0.569410 -0.000000  0.000000
  0C   4px        1.009369  0.000000  0.000001 -0.000000 -0.348144 -0.000000
  0C   4py        0.000000 -1.009369  0.000000  0.000000  0.000000 -0.348145
  0C   1dz2      -0.000000  0.000000  0.027528 -0.000000  0.000000  0.000000
  0C   1dxz       0.000000 -0.000000 -0.000000 -0.000000  0.000000 -0.000000
  0C   1dyz      -0.000000 -0.000000  0.000000 -0.000000  0.000000 -0.000000
  0C   1dx2y2    -0.052570 -0.000000  0.000000 -0.000000 -0.068758 -0.000000
  0C   1dxy       0.000000 -0.052571 -0.000000  0.000000 -0.000000  0.068758
  1H   1s         0.047739  0.000000  0.056823 -0.000000 -0.065064 -0.000000
  1H   2s         1.530653  0.000000  1.255897 -0.000000 -0.798911 -0.000000
  1H   3s        -1.331848 -0.000000 -0.976220  0.000000  2.189220  0.000000
  1H   1pz        0.000000  0.000000 -0.000000  0.037255 -0.000000 -0.000000
  1H   1px       -0.095258 -0.000000 -0.049809 -0.000000 -0.049124 -0.000000
  1H   1py       -0.000000  0.040740 -0.000000  0.000000 -0.000000  0.069550
  2H   1s        -0.023870 -0.041343  0.056823  0.000000  0.032532 -0.056347
  2H   2s        -0.765327 -1.325586  1.255896  0.000000  0.399456 -0.691879
  2H   3s         0.665924  1.153412 -0.976219 -0.000000 -1.094608  1.895921
  2H   1pz       -0.000000 -0.000000  0.000000  0.037255 -0.000000  0.000000
  2H   1px       -0.054369 -0.023607  0.024905  0.000000  0.039882  0.051387
  2H   1py        0.023607  0.081628 -0.043136  0.000000  0.051387 -0.019455
  3H   1s        -0.023870  0.041343  0.056823  0.000000  0.032532  0.056347
  3H   2s        -0.765328  1.325585  1.255896  0.000000  0.399456  0.691879
  3H   3s         0.665925 -1.153412 -0.976219 -0.000000 -1.094608 -1.895921
  3H   1pz       -0.000000 -0.000000 -0.000000  0.037255 -0.000000 -0.000000
  3H   1px       -0.054369  0.023607  0.024905  0.000000  0.039882 -0.051387
  3H   1py       -0.023607  0.081628  0.043136 -0.000000 -0.051387 -0.019455
                     18        19        20        21        22        23   
                   0.94896   1.33405   1.33405   1.66135   1.68437   1.68437
                   0.00000   0.00000   0.00000   0.00000   0.00000   0.00000
                  --------  --------  --------  --------  --------  --------
  0C   1s         0.120672 -0.000000 -0.000000  0.000000  0.000000 -0.000000
  0C   2s         0.250353 -0.000000 -0.000000  0.000000  0.000000 -0.000000
  0C   1pz       -0.000000 -0.000000 -0.000000 -0.000000  0.000000  0.000000
  0C   1px        0.000000  0.000000  0.000000 -0.000000  0.000000 -0.095730
  0C   1py        0.000000 -0.000000  0.000000  0.000001  0.095730  0.000000
  0C   3s        -1.838596  0.000000  0.000000 -0.000000 -0.000000  0.000000
  0C   2pz        0.000000 -0.000000  0.000000 -0.000000  0.000000  0.000000
  0C   2px        0.000001 -0.000000  0.000000  0.000000  0.000000 -0.051393
  0C   2py        0.000000 -0.000000  0.000000  0.000000  0.051393  0.000000
  0C   4s         4.038905  0.000000 -0.000000  0.000000  0.000000  0.000000
  0C   3pz       -0.000000  0.000000 -0.000000  0.000000 -0.000000  0.000000
  0C   3px       -0.000001 -0.000000 -0.000000  0.000000  0.000000 -1.226527
  0C   3py       -0.000000 -0.000000 -0.000000  0.000009  1.226529  0.000000
  0C   5s         0.878585  0.000000 -0.000000  0.000000  0.000000 -0.000000
  0C   4pz       -0.000000 -0.000000  0.000000 -0.000000  0.000000  0.000000
  0C   4px       -0.000000 -0.000000 -0.000000 -0.000000 -0.000000  0.323777
  0C   4py       -0.000000  0.000000 -0.000000 -0.000002 -0.323776 -0.000000
  0C   1dz2      -0.133728 -0.000000 -0.000000  0.000000  0.000000  0.000000
  0C   1dxz      -0.000000 -0.000000  0.519982 -0.000000 -0.000000 -0.000000
  0C   1dyz       0.000000 -0.519982 -0.000000 -0.000000 -0.000000  0.000000
  0C   1dx2y2    -0.000000 -0.000000 -0.000000  0.000000  0.000000 -0.625349
  0C   1dxy       0.000000  0.000000 -0.000000 -0.000004 -0.625349 -0.000000
  1H   1s         0.060979 -0.000000 -0.000000  0.000000  0.000000 -0.122482
  1H   2s         0.070127  0.000000 -0.000000 -0.000000 -0.000000  1.271497
  1H   3s        -1.434906  0.000000  0.000000 -0.000000  0.000000 -0.341386
  1H   1pz        0.000000 -0.000000  0.511857  0.000000 -0.000000 -0.000000
  1H   1px        0.177398 -0.000000  0.000000  0.000000 -0.000000  0.167818
  1H   1py        0.000000  0.000000 -0.000000  0.594084 -0.523851 -0.000000
  2H   1s         0.060979  0.000000  0.000000  0.000001  0.106073  0.061241
  2H   2s         0.070128  0.000000 -0.000000 -0.000008 -1.101150 -0.635749
  2H   3s        -1.434909 -0.000000  0.000000  0.000002  0.295648  0.170693
  2H   1pz       -0.000000 -0.443281 -0.255928  0.000000 -0.000000 -0.000000
  2H   1px       -0.088699  0.000000 -0.000000 -0.514497 -0.154161  0.434840
  2H   1py        0.153631  0.000000  0.000000 -0.297046 -0.256823  0.154165
  3H   1s         0.060979  0.000000 -0.000000 -0.000001 -0.106073  0.061241
  3H   2s         0.070128 -0.000000  0.000000  0.000008  1.101150 -0.635749
  3H   3s        -1.434909 -0.000000 -0.000000 -0.000002 -0.295648  0.170693
  3H   1pz       -0.000000  0.443281 -0.255928  0.000000  0.000000 -0.000000
  3H   1px       -0.088699 -0.000000  0.000000  0.514497  0.154161  0.434840
  3H   1py       -0.153631 -0.000000 -0.000000 -0.297046 -0.256823 -0.154165
                     24        25        26        27        28        29   
                   1.85636   1.94299   2.22258   2.22258   2.27926   2.27926
                   0.00000   0.00000   0.00000   0.00000   0.00000   0.00000
                  --------  --------  --------  --------  --------  --------
  0C   1s         0.011476  0.000000 -0.000000  0.000000 -0.000000 -0.000000
  0C   2s         0.023412  0.000000 -0.000000  0.000000 -0.000000 -0.000000
  0C   1pz       -0.000000  0.142701  0.000000  0.000000 -0.000000 -0.000000
  0C   1px       -0.000000  0.000000  0.000000 -0.224808  0.000000 -0.000000
  0C   1py        0.000000 -0.000000  0.224808  0.000000  0.000000 -0.000000
  0C   3s        -0.193727 -0.000000  0.000000 -0.000001  0.000000  0.000000
  0C   2pz       -0.000000  0.189165  0.000000 -0.000000  0.000000  0.000000
  0C   2px       -0.000001 -0.000000 -0.000000  0.768670 -0.000000 -0.000000
  0C   2py       -0.000000  0.000000 -0.768673 -0.000000 -0.000000  0.000000
  0C   4s         1.019351  0.000000 -0.000000 -0.000000 -0.000000 -0.000000
  0C   3pz       -0.000000  0.498925  0.000000  0.000000 -0.000000 -0.000000
  0C   3px       -0.000000  0.000000  0.000000 -0.235219  0.000000 -0.000000
  0C   3py        0.000000 -0.000000  0.235218  0.000000  0.000000 -0.000000
  0C   5s        -0.523250  0.000000  0.000000  0.000001 -0.000000 -0.000000
  0C   4pz        0.000000 -0.125649 -0.000000  0.000000  0.000000  0.000000
  0C   4px        0.000000 -0.000000  0.000000 -0.430036  0.000000 -0.000000
  0C   4py       -0.000000 -0.000000  0.430037  0.000000  0.000000 -0.000000
  0C   1dz2      -1.040067 -0.000000  0.000000  0.000000 -0.000000  0.000000
  0C   1dxz      -0.000000  0.000000  0.000000 -0.000000 -1.053528  0.000000
  0C   1dyz       0.000000 -0.000000  0.000000 -0.000000  0.000000  1.053528
  0C   1dx2y2    -0.000000  0.000000 -0.000000  1.023674 -0.000000  0.000000
  0C   1dxy       0.000000 -0.000000  1.023675  0.000000  0.000000 -0.000000
  1H   1s         0.153844  0.000000 -0.000000  0.649518 -0.000000  0.000000
  1H   2s        -0.891819 -0.000000  0.000000 -1.859806  0.000000 -0.000000
  1H   3s         0.380561 -0.000000 -0.000000  1.467990 -0.000000  0.000000
  1H   1pz        0.000000 -0.667390 -0.000000  0.000000  0.816944 -0.000000
  1H   1px       -0.073750 -0.000000 -0.000000  0.395035 -0.000000 -0.000000
  1H   1py       -0.000000  0.000000 -0.697159 -0.000000 -0.000000  0.000000
  2H   1s         0.153844  0.000000 -0.562499 -0.324759 -0.000000  0.000000
  2H   2s        -0.891820 -0.000000  1.610644  0.929906  0.000000 -0.000000
  2H   3s         0.380561  0.000000 -1.271318 -0.733996 -0.000000  0.000000
  2H   1pz        0.000000 -0.667391 -0.000000 -0.000000 -0.408472 -0.707494
  2H   1px        0.036875 -0.000000 -0.130823  0.621629 -0.000000  0.000000
  2H   1py       -0.063869  0.000000 -0.470567  0.130823 -0.000000  0.000000
  3H   1s         0.153844 -0.000000  0.562499 -0.324759  0.000000 -0.000000
  3H   2s        -0.891820  0.000000 -1.610644  0.929906 -0.000000  0.000000
  3H   3s         0.380561 -0.000000  1.271318 -0.733996  0.000000 -0.000000
  3H   1pz        0.000000 -0.667391  0.000000 -0.000000 -0.408472  0.707494
  3H   1px        0.036875  0.000000  0.130823  0.621629 -0.000000 -0.000000
  3H   1py        0.063869  0.000000 -0.470567 -0.130823 -0.000000  0.000000
                     30        31        32        33        34        35   
                   2.74175   2.76817   2.76817   3.01943   3.01943   3.04892
                   0.00000   0.00000   0.00000   0.00000   0.00000   0.00000
                  --------  --------  --------  --------  --------  --------
  0C   1s         0.030300 -0.000000  0.000000  0.000001 -0.000000 -0.100645
  0C   2s         0.038056 -0.000000  0.000000  0.000004 -0.000000 -0.276188
  0C   1pz        0.000000 -0.000000 -0.000000  0.000000 -0.000000 -0.000000
  0C   1px       -0.000003 -0.296165 -0.000000 -0.885624  0.000000 -0.000013
  0C   1py       -0.000000 -0.000000  0.296164  0.000000  0.885624  0.000000
  0C   3s         0.118430  0.000001 -0.000000 -0.000031  0.000000  2.162324
  0C   2pz       -0.000000  0.000000  0.000000 -0.000000  0.000000  0.000000
  0C   2px       -0.000009 -1.910579 -0.000000  1.055958 -0.000000  0.000015
  0C   2py       -0.000000 -0.000000  1.910582 -0.000000 -1.055957 -0.000000
  0C   4s        -0.556032  0.000002  0.000000 -0.000026  0.000000  1.923982
  0C   3pz        0.000000 -0.000000 -0.000000  0.000000 -0.000000 -0.000000
  0C   3px       -0.000005 -0.816435 -0.000000 -0.244925  0.000000 -0.000003
  0C   3py       -0.000000 -0.000000  0.816436  0.000000  0.244925  0.000000
  0C   5s        -0.963174  0.000005  0.000000  0.000009 -0.000000 -0.503091
  0C   4pz       -0.000000  0.000000  0.000000 -0.000000  0.000000  0.000000
  0C   4px        0.000001  0.282965  0.000000 -0.195477  0.000000 -0.000003
  0C   4py        0.000000  0.000000 -0.282965  0.000000  0.195477 -0.000000
  0C   1dz2       0.458157 -0.000002 -0.000000  0.000012 -0.000000 -0.947128
  0C   1dxz      -0.000000 -0.000000  0.000000  0.000000 -0.000000 -0.000000
  0C   1dyz      -0.000000 -0.000000  0.000000  0.000000 -0.000000 -0.000000
  0C   1dx2y2    -0.000005 -0.751882 -0.000000 -0.732952  0.000000 -0.000011
  0C   1dxy       0.000000  0.000000 -0.751880 -0.000000 -0.732952 -0.000000
  1H   1s         0.909305 -0.376352 -0.000000  0.750517 -0.000000  0.232816
  1H   2s        -1.084966  2.619106  0.000000 -1.017736  0.000000 -1.824358
  1H   3s         0.965169 -0.550892 -0.000000  0.888449 -0.000000  0.267877
  1H   1pz        0.000000  0.000000  0.000000  0.000000  0.000000 -0.000000
  1H   1px       -0.130894 -1.633461 -0.000000 -0.090591  0.000000  1.146526
  1H   1py        0.000000  0.000000 -0.347369  0.000000  0.553219  0.000000
  2H   1s         0.909305  0.188168  0.325926 -0.375266 -0.649971  0.232799
  2H   2s        -1.084983 -1.309544 -2.268208  0.508910  0.881407 -1.824337
  2H   3s         0.965170  0.275438  0.477082 -0.444233 -0.769424  0.267858
  2H   1pz       -0.000000  0.000000  0.000000 -0.000000 -0.000000 -0.000000
  2H   1px        0.065441 -0.147840 -0.857725 -0.437551  0.200331 -0.573270
  2H   1py       -0.113345  0.857725  1.138255 -0.200345  0.206237  0.992920
  3H   1s         0.909305  0.188168 -0.325925 -0.375266  0.649971  0.232799
  3H   2s        -1.084983 -1.309544  2.268208  0.508909 -0.881408 -1.824337
  3H   3s         0.965170  0.275438 -0.477082 -0.444233  0.769424  0.267858
  3H   1pz       -0.000000 -0.000000  0.000000  0.000000 -0.000000 -0.000000
  3H   1px        0.065441 -0.147840  0.857725 -0.437551 -0.200331 -0.573270
  3H   1py        0.113345 -0.857726  1.138255  0.200345  0.206237 -0.992920
                     36        37        38        39   
                   3.20424   4.16100   4.16100  25.11923
                   0.00000   0.00000   0.00000   0.00000
                  --------  --------  --------  --------
  0C   1s        -0.000000  0.000000 -0.000000 -2.040136
  0C   2s        -0.000000  0.000000 -0.000000  2.239001
  0C   1pz        1.340363 -0.000000  0.000000 -0.000000
  0C   1px        0.000000 -1.119887  0.000000 -0.000000
  0C   1py        0.000000 -0.000000 -1.119887  0.000000
  0C   3s         0.000000 -0.000002  0.000000 -0.767455
  0C   2pz       -1.580817 -0.000000 -0.000000  0.000000
  0C   2px       -0.000000  3.414361 -0.000000  0.000000
  0C   2py       -0.000000  0.000000  3.414364 -0.000000
  0C   4s         0.000000 -0.000000  0.000000  0.105909
  0C   3pz        0.701582  0.000000  0.000000 -0.000000
  0C   3px       -0.000000 -0.465826  0.000000 -0.000000
  0C   3py        0.000000 -0.000000 -0.465826  0.000000
  0C   5s        -0.000000 -0.000000 -0.000000  0.136302
  0C   4pz       -0.232787  0.000000 -0.000000  0.000000
  0C   4px        0.000000 -0.042395  0.000000 -0.000000
  0C   4py        0.000000 -0.000000 -0.042395 -0.000000
  0C   1dz2      -0.000000  0.000000 -0.000000  0.163075
  0C   1dxz       0.000000  0.000000  0.000000  0.000000
  0C   1dyz       0.000000 -0.000000  0.000000 -0.000000
  0C   1dx2y2     0.000000  1.540085 -0.000000  0.000000
  0C   1dxy       0.000000 -0.000000 -1.540085  0.000000
  1H   1s        -0.000000 -0.960260  0.000000 -0.005193
  1H   2s        -0.000000 -1.424037  0.000000  0.300505
  1H   3s        -0.000000  0.557052 -0.000000 -0.158102
  1H   1pz        0.137923 -0.000000  0.000000 -0.000000
  1H   1px        0.000000  1.420198 -0.000000 -0.193035
  1H   1py        0.000000  0.000000  0.094718 -0.000000
  2H   1s         0.000000  0.480131 -0.831611 -0.005193
  2H   2s        -0.000000  0.712019 -1.233254  0.300506
  2H   3s        -0.000000 -0.278526  0.482422 -0.158103
  2H   1pz        0.137923 -0.000000  0.000000 -0.000000
  2H   1px       -0.000000  0.426088 -0.573949  0.096518
  2H   1py        0.000000 -0.573950  1.088829 -0.167174
  3H   1s         0.000000  0.480131  0.831611 -0.005193
  3H   2s        -0.000000  0.712019  1.233254  0.300506
  3H   3s         0.000000 -0.278526 -0.482422 -0.158103
  3H   1pz        0.137923  0.000000  0.000000  0.000000
  3H   1px       -0.000000  0.426088  0.573949  0.096518
  3H   1py       -0.000000  0.573950  1.088829  0.167174



                    ********************************
                    * MULLIKEN POPULATION ANALYSIS *
                    ********************************

--------------------------------------------
MULLIKEN ATOMIC CHARGES AND SPIN POPULATIONS
--------------------------------------------
   0 C :   -0.377057    1.287829
   1 H :    0.125686   -0.095943
   2 H :    0.125686   -0.095943
   3 H :    0.125686   -0.095943
Sum of atomic charges         :   -0.0000000
Sum of atomic spin populations:    1.0000000

-----------------------------------------------------
MULLIKEN REDUCED ORBITAL CHARGES AND SPIN POPULATIONS
-----------------------------------------------------
CHARGE
  0 C s       :     3.302008  s :     3.302008
      pz      :     0.982295  p :     3.046243
      px      :     1.031974
      py      :     1.031974
      dz2     :     0.004746  d :     0.028806
      dxz     :     0.000000
      dyz     :     0.000000
      dx2y2   :     0.012030
      dxy     :     0.012030
  1 H s       :     0.846516  s :     0.846516
      pz      :     0.005902  p :     0.027799
      px      :     0.017592
      py      :     0.004305
  2 H s       :     0.846516  s :     0.846516
      pz      :     0.005902  p :     0.027799
      px      :     0.007627
      py      :     0.014270
  3 H s       :     0.846516  s :     0.846516
      pz      :     0.005902  p :     0.027799
      px      :     0.007627
      py      :     0.014270

SPIN
  0 C s       :     0.164961  s :     0.164961
      pz      :     0.982295  p :     1.127515
      px      :     0.072610
      py      :     0.072610
      dz2     :    -0.005726  d :    -0.004646
      dxz     :     0.000000
      dyz     :     0.000000
      dx2y2   :     0.000540
      dxy     :     0.000540
  1 H s       :    -0.101582  s :    -0.101582
      pz      :     0.005902  p :     0.005639
      px      :    -0.000016
      py      :    -0.000248
  2 H s       :    -0.101582  s :    -0.101582
      pz      :     0.005902  p :     0.005639
      px      :    -0.000190
      py      :    -0.000074
  3 H s       :    -0.101582  s :    -0.101582
      pz      :     0.005902  p :     0.005639
      px      :    -0.000190
      py      :    -0.000074


                     *******************************
                     * LOEWDIN POPULATION ANALYSIS *
                     *******************************

-------------------------------------------
LOEWDIN ATOMIC CHARGES AND SPIN POPULATIONS
-------------------------------------------
   0 C :   -0.057015    1.042704
   1 H :    0.019005   -0.014235
   2 H :    0.019005   -0.014234
   3 H :    0.019005   -0.014234

----------------------------------------------------
LOEWDIN REDUCED ORBITAL CHARGES AND SPIN POPULATIONS
----------------------------------------------------
CHARGE
  0 C s       :     2.902097  s :     2.902097
      pz      :     0.941185  p :     3.106218
      px      :     1.082516
      py      :     1.082517
      dz2     :     0.004465  d :     0.048700
      dxz     :     0.000000
      dyz     :     0.000000
      dx2y2   :     0.022117
      dxy     :     0.022117
  1 H s       :     0.902448  s :     0.902448
      pz      :     0.019605  p :     0.078547
      px      :     0.047532
      py      :     0.011410
  2 H s       :     0.902448  s :     0.902448
      pz      :     0.019605  p :     0.078547
      px      :     0.020440
      py      :     0.038502
  3 H s       :     0.902448  s :     0.902448
      pz      :     0.019605  p :     0.078547
      px      :     0.020440
      py      :     0.038502

SPIN
  0 C s       :     0.049194  s :     0.049194
      pz      :     0.941185  p :     1.002388
      px      :     0.030602
      py      :     0.030602
      dz2     :    -0.004246  d :    -0.008878
      dxz     :     0.000000
      dyz     :     0.000000
      dx2y2   :    -0.002316
      dxy     :    -0.002316
  1 H s       :    -0.041135  s :    -0.041135
      pz      :     0.019605  p :     0.026900
      px      :     0.006513
      py      :     0.000782
  2 H s       :    -0.041135  s :    -0.041135
      pz      :     0.019605  p :     0.026900
      px      :     0.002215
      py      :     0.005080
  3 H s       :    -0.041135  s :    -0.041135
      pz      :     0.019605  p :     0.026900
      px      :     0.002215
      py      :     0.005080


                      *****************************
                      * MAYER POPULATION ANALYSIS *
                      *****************************

  NA   - Mulliken gross atomic population
  ZA   - Total nuclear charge
  QA   - Mulliken gross atomic charge
  VA   - Mayer's total valence
  BVA  - Mayer's bonded valence
  FA   - Mayer's free valence

  ATOM       NA         ZA         QA         VA         BVA        FA
  0 C      6.3771     6.0000    -0.3771     3.9024     2.9006     1.0017
  1 H      0.8743     1.0000     0.1257     0.9644     0.9547     0.0097
  2 H      0.8743     1.0000     0.1257     0.9644     0.9547     0.0097
  3 H      0.8743     1.0000     0.1257     0.9644     0.9547     0.0097

  Mayer bond orders larger than 0.100000
B(  0-C ,  1-H ) :   0.9669 B(  0-C ,  2-H ) :   0.9669 B(  0-C ,  3-H ) :   0.9669 


Now starting NBO....

 *********************************** NBO 7.0 ***********************************
             N A T U R A L   A T O M I C   O R B I T A L   A N D
          N A T U R A L   B O N D   O R B I T A L   A N A L Y S I S
 *********************** Giovanni  F. Caramori (I101916) ***********************
  (c) Copyright 1996-2020 Board of Regents of the University of Wisconsin System
      on behalf of the Theoretical Chemistry Institute.  All rights reserved.

          Cite this program [NBO 7.0.8 (11-Feb-2020)] as:

          NBO 7.0.  E. D. Glendening, J. K. Badenhoop, A. E. Reed,
          J. E. Carpenter, J. A. Bohmann, C. M. Morales, P. Karafiloglou,
          C. R. Landis, and F. Weinhold, Theoretical Chemistry Institute,
          University of Wisconsin, Madison, WI (2018)

       /NPA    / : Natural Population Analysis
       /NBO    / : Natural Bond Orbital Analysis
       /AONBO  / : Checkpoint the AO to NBO transformation
       /ARCHIVE/ : Write the archive file to lfn47

 Job title: ORCA Job: CH3·


 NATURAL POPULATIONS:  Natural atomic orbital occupancies

  NAO Atom No lang   Type(AO)    Occupancy     Spin
 -----------------------------------------------------
   1    C  1  s      Cor( 1s)     2.00000     0.00000
   2    C  1  s      Val( 2s)     1.18393     0.07765
   3    C  1  s      Ryd( 3s)     0.00012    -0.00001
   4    C  1  s      Ryd( 4s)     0.00000     0.00000
   5    C  1  s      Ryd( 5s)     0.00000     0.00000
   6    C  1  px     Val( 2p)     1.11273     0.03949
   7    C  1  px     Ryd( 3p)     0.00123     0.00017
   8    C  1  px     Ryd( 5p)     0.00001     0.00000
   9    C  1  px     Ryd( 4p)     0.00000     0.00000
  10    C  1  py     Val( 2p)     1.11273     0.03949
  11    C  1  py     Ryd( 3p)     0.00123     0.00017
  12    C  1  py     Ryd( 5p)     0.00001     0.00000
  13    C  1  py     Ryd( 4p)     0.00000     0.00000
  14    C  1  pz     Val( 2p)     0.99411     0.99411
  15    C  1  pz     Ryd( 3p)     0.00550     0.00550
[...]
                                         0.0000
  37. (0.00049) RY ( 2) H  4            s(  0.00%)p 1.00(100.00%)
                                         0.0000  0.0000  0.0000  0.8660 -0.5000
                                         0.0000
  38. (0.00048) RY ( 3) H  4            s(  0.00%)p 1.00(100.00%)
                                         0.0000  0.0000  0.0000  0.0000  0.0000
                                         1.0000
  39. (0.00017) RY ( 4) H  4            s( 15.53%)p 5.44( 84.47%)
                                        -0.0261  0.3511  0.1772  0.4595  0.7959
                                         0.0000
  40. (0.00006) RY ( 5) H  4            s( 97.04%)p 0.03(  2.96%)


 NHO DIRECTIONALITY AND BOND BENDING (deviation from line of nuclear centers at
                                      the position of maximum hybrid amplitude)

         [Thresholds for printing:  angular deviation  >  1.0 degree]
                                    p- or d-character  > 25.0%
                                    orbital occupancy  >  0.10e

                        Line of Centers        Hybrid 1             Hybrid 2
                        ---------------  -------------------  ------------------
           NBO            Theta   Phi    Theta   Phi    Dev   Theta   Phi    Dev
 ===============================================================================
    None exceeding thresholds


 NATURAL BOND ORBITALS (Summary):

           NBO                 Occupancy
 ========================================
 Molecular unit  1  (CH3)
 ------ Lewis ---------------------------
    1. CR ( 1) C  1             0.99960
    2. BD ( 1) C  1- H  2       0.98690
    3. BD ( 1) C  1- H  3       0.98690
    4. BD ( 1) C  1- H  4       0.98690
 ------ non-Lewis -----------------------
    5. LV ( 1) C  1             0.00315
    6. BD*( 1) C  1- H  2       0.00600
    7. BD*( 1) C  1- H  3       0.00600
    8. BD*( 1) C  1- H  4       0.00600
    9. RY ( 1) C  1             0.00288
   10. RY ( 2) C  1             0.00288
   11. RY ( 3) C  1             0.00147
   12. RY ( 4) C  1             0.00099
   13. RY ( 5) C  1             0.00099
   14. RY ( 6) C  1             0.00065
   15. RY ( 7) C  1             0.00065
   16. RY ( 8) C  1             0.00024
   17. RY ( 9) C  1             0.00018
   18. RY (10) C  1             0.00015
   19. RY (11) C  1             0.00015
   20. RY (12) C  1             0.00015
   21. RY (13) C  1             0.00004
   22. RY (14) C  1             0.00001
   23. RY (15) C  1             0.00000
   24. RY (16) C  1             0.00000
   25. RY (17) C  1             0.00000
   26. RY ( 1) H  2             0.00118
   27. RY ( 2) H  2             0.00049
   28. RY ( 3) H  2             0.00048
   29. RY ( 4) H  2             0.00017
   30. RY ( 5) H  2             0.00006
   31. RY ( 1) H  3             0.00118
   32. RY ( 2) H  3             0.00049
   33. RY ( 3) H  3             0.00048
   34. RY ( 4) H  3             0.00017
   35. RY ( 5) H  3             0.00006
   36. RY ( 1) H  4             0.00118
   37. RY ( 2) H  4             0.00049
   38. RY ( 3) H  4             0.00048
   39. RY ( 4) H  4             0.00017
   40. RY ( 5) H  4             0.00006
          -------------------------------
                 Total Lewis    3.96029  ( 99.0073%)
           Valence non-Lewis    0.02114  (  0.5284%)
           Rydberg non-Lewis    0.01857  (  0.4643%)
          -------------------------------
               Total unit  1    4.00000  (100.0000%)
              Charge unit  1    0.50000

 $CHOOSE
  ALPHA
   LONE 1 1 END
   BOND S 1 2 S 1 3 S 1 4 END
  END
  BETA
   BOND S 1 2 S 1 3 S 1 4 END
  END
 $END

 NBO analysis completed in 0.08 CPU seconds (0 wall seconds)
 Maximum scratch memory used by NBO was 321675 words (2.45 MB)
Stopping NBO...Storing NBOs: CH3·.pmp2re.nbo

                                *** returned from   NBO  program ***


----------------------------------
MP2 DERIVATIVE INTEGRAL GENERATION
----------------------------------


Input Wavefunction Amplitudes       ... CH3·.mp2tbb.tmp
Input Correlated Electron Density   ... CH3·.pmp2re
Input Energy Weighted Density       ... CH3·.wmp2.tmp
Input SCF Electron Density          ... CH3·.scfp

One-Electron Terms    ...
                        ... One-Electron Terms done
Prescreening matrices              ... done

Batch handling in the gradient evaluation:
Memory available                      ... 3000.0 MB
Memory per occupied orbital in Q2     ...    0.1 MB
Memory per occupied orbital in Q3     ...    0.0 MB
Total memory requirement per |i>      ...    0.1 MB
Max. Number of orbitals possible      ...  25533
Number of orbitals treated per batch  ...      9
Number of batches to be done          ...      1
Batch   0: i=    0 ...     8

---------------------------------------
MP2 TOTAL ENERGY:      -39.726998708 Eh
---------------------------------------

-----------------------------------
NORM OF THE MP2 GRADIENT:  0.000003
-----------------------------------

-------------------------   --------------------
FINAL SINGLE POINT ENERGY       -39.726998708194
-------------------------   --------------------

                                *** OPTIMIZATION RUN DONE ***

                            ***************************************
                            *     ORCA property calculations      *
                            ***************************************

                                    ---------------------
                                    Active property flags
                                    ---------------------
   (+) Dipole Moment


------------------------------------------------------------------------------
                       ORCA ELECTRIC PROPERTIES CALCULATION
------------------------------------------------------------------------------

Dipole Moment Calculation                       ... on
Quadrupole Moment Calculation                   ... off
Polarizability Calculation                      ... off
GBWName                                         ... CH3·.gbw
Electron density file                           ... CH3·.scfp
The origin for moment calculation is the CENTER OF MASS  = ( 0.000000,  0.000000  0.000000)

-------------
DIPOLE MOMENT
-------------
                                X             Y             Z
Electronic contribution:     -0.00000       0.00000       0.00000
Nuclear contribution   :      0.00000      -0.00000      -0.00000
                        -----------------------------------------
Total Dipole Moment    :      0.00000      -0.00000      -0.00000
                        -----------------------------------------
Magnitude (a.u.)       :      0.00000
Magnitude (Debye)      :      0.00000



--------------------
Rotational spectrum 
--------------------
 
Rotational constants in cm-1:     9.576147     9.576144     4.788073 
Rotational constants in MHz : 287085.668944 287085.570265 143542.809802 

 Dipole components along the rotational axes: 
x,y,z [a.u.] :    -0.000000    -0.000000    -0.000000 
x,y,z [Debye]:    -0.000000    -0.000000    -0.000000 

 

                         *** MP2 UNRELAXED DENSITY ***

------------------------------------------------------------------------------
                       ORCA ELECTRIC PROPERTIES CALCULATION
------------------------------------------------------------------------------

Dipole Moment Calculation                       ... on
Quadrupole Moment Calculation                   ... off
Polarizability Calculation                      ... off
GBWName                                         ... CH3·.gbw
Electron density file                           ... CH3·.pmp2ur
The origin for moment calculation is the CENTER OF MASS  = ( 0.000000,  0.000000  0.000000)

-------------
DIPOLE MOMENT
-------------
                                X             Y             Z
Electronic contribution:     -0.00000       0.00000       0.00000
Nuclear contribution   :      0.00000      -0.00000      -0.00000
                        -----------------------------------------
Total Dipole Moment    :      0.00000      -0.00000      -0.00000
                        -----------------------------------------
Magnitude (a.u.)       :      0.00000
Magnitude (Debye)      :      0.00000



--------------------
Rotational spectrum 
--------------------
 
Rotational constants in cm-1:     9.576147     9.576144     4.788073 
Rotational constants in MHz : 287085.668944 287085.570265 143542.809802 

 Dipole components along the rotational axes: 
x,y,z [a.u.] :    -0.000000    -0.000000    -0.000000 
x,y,z [Debye]:    -0.000000    -0.000000    -0.000000 

 

                           *** MP2 RELAXED DENSITY ***

------------------------------------------------------------------------------
                       ORCA ELECTRIC PROPERTIES CALCULATION
------------------------------------------------------------------------------

Dipole Moment Calculation                       ... on
Quadrupole Moment Calculation                   ... off
Polarizability Calculation                      ... off
GBWName                                         ... CH3·.gbw
Electron density file                           ... CH3·.pmp2re
The origin for moment calculation is the CENTER OF MASS  = ( 0.000000,  0.000000  0.000000)

-------------
DIPOLE MOMENT
-------------
                                X             Y             Z
Electronic contribution:     -0.00000       0.00000       0.00000
Nuclear contribution   :      0.00000      -0.00000      -0.00000
                        -----------------------------------------
Total Dipole Moment    :      0.00000      -0.00000      -0.00000
                        -----------------------------------------
Magnitude (a.u.)       :      0.00000
Magnitude (Debye)      :      0.00000



--------------------
Rotational spectrum 
--------------------
 
Rotational constants in cm-1:     9.576147     9.576144     4.788073 
Rotational constants in MHz : 287085.668944 287085.570265 143542.809802 

 Dipole components along the rotational axes: 
x,y,z [a.u.] :    -0.000000    -0.000000    -0.000000 
x,y,z [Debye]:    -0.000000    -0.000000    -0.000000 

 
------------------------------------------------------------------------------
                         ORCA MP2 H E S S I A N CALCULATION
------------------------------------------------------------------------------

Calculating analytic MP2 second derivatives ... (>CH3·.last_mp2) done

-----------------------
VIBRATIONAL FREQUENCIES
-----------------------

Scaling factor for frequencies =  1.000000000  (already applied!)

   0:         0.00 cm**-1
   1:         0.00 cm**-1
   2:         0.00 cm**-1
   3:         0.00 cm**-1
   4:         0.00 cm**-1
   5:         0.00 cm**-1
   6:       460.86 cm**-1
   7:      1444.77 cm**-1
   8:      1444.80 cm**-1
   9:      3176.82 cm**-1
  10:      3369.63 cm**-1
  11:      3369.64 cm**-1


------------
NORMAL MODES
------------

These modes are the Cartesian displacements weighted by the diagonal matrix
M(i,i)=1/sqrt(m[i]) where m[i] is the mass of the displaced atom
Thus, these vectors are normalized but *not* orthogonal

                  0          1          2          3          4          5    
      0       0.000000   0.000000   0.000000   0.000000   0.000000   0.000000
      1       0.000000   0.000000   0.000000   0.000000   0.000000   0.000000
      2       0.000000   0.000000   0.000000   0.000000   0.000000   0.000000
      3       0.000000   0.000000   0.000000   0.000000   0.000000   0.000000
      4       0.000000   0.000000   0.000000   0.000000   0.000000   0.000000
      5       0.000000   0.000000   0.000000   0.000000   0.000000   0.000000
      6       0.000000   0.000000   0.000000   0.000000   0.000000   0.000000
      7       0.000000   0.000000   0.000000   0.000000   0.000000   0.000000
      8       0.000000   0.000000   0.000000   0.000000   0.000000   0.000000
      9       0.000000   0.000000   0.000000   0.000000   0.000000   0.000000
     10       0.000000   0.000000   0.000000   0.000000   0.000000   0.000000
     11       0.000000   0.000000   0.000000   0.000000   0.000000   0.000000
                  6          7          8          9         10         11    
      0      -0.000000  -0.092489   0.000000  -0.000000   0.100246  -0.000000
      1       0.000000  -0.000000  -0.092490  -0.000000   0.000000   0.100245
      2       0.143847  -0.000000   0.000000   0.000000   0.000000  -0.000000
      3      -0.000000  -0.074831   0.000000   0.577353  -0.812226   0.000002
      4      -0.000000   0.000001   0.809546  -0.000000   0.000000   0.015902
      5      -0.571346  -0.000000  -0.000000  -0.000000   0.000000   0.000000
      6       0.000000   0.588451   0.382945  -0.288675  -0.191133   0.358591
      7      -0.000000   0.382948   0.146264   0.499998   0.358590  -0.605196
      8      -0.571346   0.000000  -0.000000  -0.000000  -0.000000   0.000000
      9       0.000000   0.588450  -0.382946  -0.288675  -0.191135  -0.358590
     10       0.000000  -0.382947   0.146265  -0.499998  -0.358593  -0.605194
     11      -0.571346   0.000000   0.000000  -0.000000  -0.000000  -0.000000


-----------
IR SPECTRUM
-----------

 Mode    freq (cm**-1)   T**2         TX         TY         TZ
-------------------------------------------------------------------
   6:       460.86   96.175379  (  0.000000  -0.000000  -9.806905)
   7:      1444.77    3.445109  (  1.856101   0.000003   0.000000)
   8:      1444.80    3.445098  ( -0.000003   1.856097  -0.000000)
   9:      3176.82    0.000000  (  0.000315   0.000000  -0.000000)
  10:      3369.63    2.710877  (  1.646474   0.000005  -0.000000)
  11:      3369.64    2.710836  ( -0.000005   1.646462  -0.000000)

The first frequency considered to be a vibration is 6
The total number of vibrations considered is 6


--------------------------
THERMOCHEMISTRY AT 298.15K
--------------------------

Temperature         ... 298.15 K
Pressure            ... 1.00 atm
Total Mass          ... 15.03 AMU

Throughout the following assumptions are being made:
  (1) The electronic state is orbitally nondegenerate
      but the spin degeneracy is treated
  (2) There are no thermally accessible electronically excited states
  (3) Hindered rotations indicated by low frequency modes are not
      treated as such but are treated as vibrations and this may
      cause some error
  (4) All equations used are the standard statistical mechanics
      equations for an ideal gas
  (5) All vibrations are strictly harmonic

freq.     460.86  E(vib)   ...       0.16 
freq.    1444.77  E(vib)   ...       0.00 
freq.    1444.80  E(vib)   ...       0.00 
freq.    3176.82  E(vib)   ...       0.00 
freq.    3369.63  E(vib)   ...       0.00 
freq.    3369.64  E(vib)   ...       0.00 

------------
INNER ENERGY
------------

The inner energy is: U= E(el) + E(ZPE) + E(vib) + E(rot) + E(trans)
    E(el)   - is the total energy from the electronic structure calculation
              = E(kin-el) + E(nuc-el) + E(el-el) + E(nuc-nuc)
    E(ZPE)  - the the zero temperature vibrational energy from the frequency calculation
    E(vib)  - the the finite temperature correction to E(ZPE) due to population
              of excited vibrational states
    E(rot)  - is the rotational thermal energy
    E(trans)- is the translational thermal energy

Summary of contributions to the inner energy U:
Electronic energy                ...    -39.72699871 Eh
Zero point energy                ...      0.03022334 Eh      18.97 kcal/mol
Thermal vibrational correction   ...      0.00026710 Eh       0.17 kcal/mol
Thermal rotational correction    ...      0.00141627 Eh       0.89 kcal/mol
Thermal translational correction ...      0.00141627 Eh       0.89 kcal/mol
-----------------------------------------------------------------------
Total thermal energy                    -39.69367573 Eh


Summary of corrections to the electronic energy:
(perhaps to be used in another calculation)
Total thermal correction                  0.00309964 Eh       1.95 kcal/mol
Non-thermal (ZPE) correction              0.03022334 Eh      18.97 kcal/mol
-----------------------------------------------------------------------
Total correction                          0.03332298 Eh      20.91 kcal/mol


--------
ENTHALPY
--------

The enthalpy is H = U + kB*T
                kB is Boltzmann's constant
Total free energy                 ...    -39.69367573 Eh 
Thermal Enthalpy correction       ...      0.00094421 Eh       0.59 kcal/mol
-----------------------------------------------------------------------
Total Enthalpy                    ...    -39.69273152 Eh


Note: Rotational entropy computed according to Herzberg 
Infrared and Raman Spectra, Chapter V,1, Van Nostrand Reinhold, 1945 
Point Group:  D3h, Symmetry Number:   6  
Rotational constants in cm-1:     9.576147     9.576144     4.788073 

Vibrational entropy computed according to the QRRHO of S. Grimme
Chem.Eur.J. 2012 18 9955


-------
ENTROPY
-------

The entropy contributions are T*S = T*(S(el)+S(vib)+S(rot)+S(trans))
     S(el)   - electronic entropy
     S(vib)  - vibrational entropy
     S(rot)  - rotational entropy
     S(trans)- translational entropy
The entropies will be listed as mutliplied by the temperature to get
units of energy

Electronic entropy                ...      0.00065446 Eh      0.41 kcal/mol
Vibrational entropy               ...      0.00037758 Eh      0.24 kcal/mol
Rotational entropy                ...      0.00494655 Eh      3.10 kcal/mol
Translational entropy             ...      0.01618771 Eh     10.16 kcal/mol
-----------------------------------------------------------------------
Final entropy term                ...      0.02216629 Eh     13.91 kcal/mol

In case the symmetry of your molecule has not been determined correctly
or in case you have a reason to use a different symmetry number we print 
out the resulting rotational entropy values for sn=1,12 :
 --------------------------------------------------------
|  sn= 1 | S(rot)=       0.00663829 Eh      4.17 kcal/mol|
|  sn= 2 | S(rot)=       0.00598384 Eh      3.75 kcal/mol|
|  sn= 3 | S(rot)=       0.00560100 Eh      3.51 kcal/mol|
|  sn= 4 | S(rot)=       0.00532938 Eh      3.34 kcal/mol|
|  sn= 5 | S(rot)=       0.00511869 Eh      3.21 kcal/mol|
|  sn= 6 | S(rot)=       0.00494655 Eh      3.10 kcal/mol|
|  sn= 7 | S(rot)=       0.00480100 Eh      3.01 kcal/mol|
|  sn= 8 | S(rot)=       0.00467492 Eh      2.93 kcal/mol|
|  sn= 9 | S(rot)=       0.00456371 Eh      2.86 kcal/mol|
|  sn=10 | S(rot)=       0.00446423 Eh      2.80 kcal/mol|
|  sn=11 | S(rot)=       0.00437424 Eh      2.74 kcal/mol|
|  sn=12 | S(rot)=       0.00429209 Eh      2.69 kcal/mol|
 --------------------------------------------------------


-------------------
GIBBS FREE ENERGY
-------------------

The Gibbs free energy is G = H - T*S

Total enthalpy                    ...    -39.69273152 Eh 
Total entropy correction          ...     -0.02216629 Eh    -13.91 kcal/mol
-----------------------------------------------------------------------
Final Gibbs free energy         ...    -39.71489781 Eh

For completeness - the Gibbs free energy minus the electronic energy
G-E(el)                           ...      0.01210090 Eh      7.59 kcal/mol


Timings for individual modules:

Sum of individual times         ...       56.131 sec (=   0.936 min)
GTO integral calculation        ...        3.610 sec (=   0.060 min)   6.4 %
SCF iterations                  ...       15.588 sec (=   0.260 min)  27.8 %
MP2 module                      ...       15.055 sec (=   0.251 min)  26.8 %
Geometry relaxation             ...        0.053 sec (=   0.001 min)   0.1 %
Analytical frequency calculation...       21.825 sec (=   0.364 min)  38.9 %
                             ****ORCA TERMINATED NORMALLY****
TOTAL RUN TIME: 0 days 0 hours 0 minutes 57 seconds 414 msec
