
                                 *****************
                                 * O   R   C   A *
                                 *****************

           --- An Ab Initio, DFT and Semiempirical electronic structure package ---

                  #######################################################
                  #                        -***-                        #
                  #          Department of theory and spectroscopy      #
                  #               Directorship: Frank Neese             #
                  #        Max Planck Institute fuer Kohlenforschung    #
                  #                Kaiser Wilhelm Platz 1               #
                  #                 D-45470 Muelheim/Ruhr               #
                  #                      Germany                        #
                  #                                                     #
                  #                  All rights reserved                #
                  #                        -***-                        #
                  #######################################################


                         Program Version 4.2.1 -  RELEASE  -


 With contributions from (in alphabetic order):
   Daniel Aravena         : Magnetic Suceptibility
   Michael Atanasov       : Ab Initio Ligand Field Theory (pilot matlab implementation)
   Alexander A. Auer      : GIAO ZORA, VPT2
   Ute Becker             : Parallelization
   Giovanni Bistoni       : ED, misc. LED, open-shell LED, HFLD
   Martin Brehm           : Molecular dynamics
   Dmytro Bykov           : SCF Hessian
   Vijay G. Chilkuri      : MRCI spin determinant printing, contributions to CSF-ICE
   Dipayan Datta          : RHF DLPNO-CCSD density
   Achintya Kumar Dutta   : EOM-CC, STEOM-CC
   Dmitry Ganyushin       : Spin-Orbit,Spin-Spin,Magnetic field MRCI
   Miquel Garcia          : C-PCM Hessian, Gaussian charge scheme
   Yang Guo               : DLPNO-NEVPT2, CIM, IAO-localization
   Andreas Hansen         : Spin unrestricted coupled pair/coupled cluster methods
   Benjamin Helmich-Paris : CASSCF linear response (MC-RPA)
   Lee Huntington         : MR-EOM, pCC
   Robert Izsak           : Overlap fitted RIJCOSX, COSX-SCS-MP3, EOM
   Christian Kollmar      : KDIIS, OOCD, Brueckner-CCSD(T), CCSD density
   Simone Kossmann        : Meta GGA functionals, TD-DFT gradient, OOMP2, MP2 Hessian
   Martin Krupicka        : AUTO-CI
   Lucas Lang             : DCDCAS
   Dagmar Lenk            : GEPOL surface, SMD
   Dimitrios Liakos       : Extrapolation schemes; Compound Job, initial MDCI parallelization
   Dimitrios Manganas     : Further ROCIS development; embedding schemes
   Dimitrios Pantazis     : SARC Basis sets
   Taras Petrenko         : DFT Hessian,TD-DFT gradient, ASA, ECA, R-Raman, ABS, FL, XAS/XES, NRVS
   Peter Pinski           : DLPNO-MP2, DLPNO-MP2 Gradient
   Christoph Reimann      : Effective Core Potentials
   Marius Retegan         : Local ZFS, SOC
   Christoph Riplinger    : Optimizer, TS searches, QM/MM, DLPNO-CCSD(T), (RO)-DLPNO pert. Triples
   Tobias Risthaus        : Range-separated hybrids, TD-DFT gradient, RPA, STAB
   Michael Roemelt        : Original ROCIS implementation
   Masaaki Saitow         : Open-shell DLPNO-CCSD energy and density
   Barbara Sandhoefer     : DKH picture change effects
   Avijit Sen             : IP-ROCIS
   Kantharuban Sivalingam : CASSCF convergence, NEVPT2, FIC-MRCI
   Bernardo de Souza      : ESD, SOC TD-DFT
   Georgi Stoychev        : AutoAux, RI-MP2 NMR
   Willem Van den Heuvel  : Paramagnetic NMR
   Boris Wezisla          : Elementary symmetry handling
   Frank Wennmohs         : Technical directorship


 We gratefully acknowledge several colleagues who have allowed us to
 interface, adapt or use parts of their codes:
   Stefan Grimme, W. Hujo, H. Kruse,             : VdW corrections, initial TS optimization,
                  C. Bannwarth                     DFT functionals, gCP, sTDA/sTD-DF
   Ed Valeev, F. Pavosevic, A. Kumar             : LibInt (2-el integral package), F12 methods
   Garnet Chan, S. Sharma, J. Yang, R. Olivares  : DMRG
   Ulf Ekstrom                                   : XCFun DFT Library
   Mihaly Kallay                                 : mrcc  (arbitrary order and MRCC methods)
   Andreas Klamt, Michael Diedenhofen            : otool_cosmo (COSMO solvation model)
   Jiri Pittner, Ondrej Demel                    : Mk-CCSD
   Frank Weinhold                                : gennbo (NPA and NBO analysis)
   Christopher J. Cramer and Donald G. Truhlar   : smd solvation model
   Lars Goerigk                                  : TD-DFT with DH, B97 family of functionals
   V. Asgeirsson, H. Jonsson                     : NEB implementation
   FAccTs GmbH                                   : IRC, NEB, NEB-TS, Multilevel, MM, QM/MM, CI optimization
   S Lehtola, MJT Oliveira, MAL Marques          : LibXC Library


 Your calculation uses the libint2 library for the computation of 2-el integrals
 For citations please refer to: http://libint.valeyev.net

 Your ORCA version has been built with support for libXC version: 4.2.3
 For citations please refer to: https://tddft.org/programs/libxc/

 This ORCA versions uses:
   CBLAS   interface :  Fast vector & matrix operations
   LAPACKE interface :  Fast linear algebra routines
   SCALAPACK package :  Parallel linear algebra routines


----- Orbital basis set information -----
Your calculation utilizes the basis: 6-311+G(d,p)
   H, Li - Ne  : R. Krishnan, J. S. Binkley, R. Seeger and J. A. Pople, J. Chem. Phys. 72, 650 (1980).
   Na - Ar     : A. D. McLean and G. S. Chandler J. Chem. Phys. 72, 5639, (1980).
   K  - Ca     : J.-P. Blaudeau, M. P. McGrath, L. A. Curtiss and L. Radom, J. Chem. Phys. 107, 5016 (1997).
   Ga - Kr     : L. A. Curtiss, M. P. McGrath, J.-P. Blandeau, N. E. Davis, R. C. Binning and L. Radom, J. Chem. Phys. 103, 6104 (1995).
   Pol./Diff.
   H, Li - Cl  : T. Clark, J. Chandrasekhar and P. v. R. Schleyer, J. Comp. Chem. 4, 294 (1983).
   H - Ne      : M. J. Frisch, J. A. Pople and J. S. Binkley, J. Chem. Phys. 80, 3265 (1984).

================================================================================
                                        WARNINGS
                       Please study these warnings very carefully!
================================================================================


WARNING: Geometry Optimization
  ===> : Switching off AutoStart
         For restart on a previous wavefunction, please use MOREAD

WARNING: Post HF methods need fully converged wavefunctions
  ===> : Setting SCFConvForced true
         You can overwrite this default with %scf ConvForced false 


INFO   : the flag for use of LIBINT has been found!

================================================================================
                                       INPUT FILE
================================================================================
NAME = H3CHCl‡.inp
|  1> ! UHF MP2 6-311+G(d,p) OptTS Freq IRC NoFrozenCore TightOpt TightSCF Grid4 FinalGrid5 PrintBasis PrintMOs NBO
|  2> %maxcore 2000
|  3> 
|  4> *xyz 0 2
|  5> C        0.000084000      0.000009000      1.937284000
|  6> H       -1.056738000      0.000072000      2.154239000
|  7> H        0.528433000     -0.915241000      2.154332000
|  8> H       -0.000001000     -0.000097000      0.597378000
|  9> H        0.528527000      0.915228000      2.154201000
| 10> Cl      -0.000303000      0.000029000     -0.853145000
| 11> *
| 12> 
| 13> %pal
| 14>  nprocs 12
| 15> end
| 16> 
| 17> %geom
| 18>  inhess read
| 19>  inhessname "freq.hess"
| 20>  ts_mode
| 21>   {B 0 3}
| 22>  end
| 23>  ts_active_atoms
| 24>   {0 3 5}
| 25>  end
| 26>  modify_internal
| 27>   {B 0 3 A}
| 28>   {B 3 5 A}
| 29>  end
| 30> end
| 31> 
| 32> %irc
| 33>  maxiter 1000
| 34>  de_init_displ 0.25
| 35> end
| 36> 
| 37>                          ****END OF INPUT****
================================================================================

                       *****************************
                       * Geometry Optimization Run *
                       *****************************

Geometry optimization settings:
Update method            Update   .... Bofill
Choice of coordinates    CoordSys .... Z-matrix Internals
Initial Hessian          InHess   .... Read

Convergence Tolerances:
Energy Change            TolE     ....  1.0000e-06 Eh
Max. Gradient            TolMAXG  ....  1.0000e-04 Eh/bohr
RMS Gradient             TolRMSG  ....  3.0000e-05 Eh/bohr
Max. Displacement        TolMAXD  ....  1.0000e-03 bohr
RMS Displacement         TolRMSD  ....  6.0000e-04 bohr
Strict Convergence                ....  False
------------------------------------------------------------------------------
                        ORCA OPTIMIZATION COORDINATE SETUP
------------------------------------------------------------------------------

The optimization will be done in new redundant internal coordinates
Making redundant internal coordinates   ...  (new redundants) Bond   3,  0 is already included
Bond   5,  3 is already included
done
Following TS mode number                ...    internal coordinate number:  3
TS-active-atoms for coordinate setup... 0 3 5 
Evaluating the initial hessian          ... (Reading Exact Hessian)...  
InHessName: freq.hess	The file <freq.hess> is opened as a .hess file
done
done
Diagonalizing the Hessian               .... done
Dimension of the hessian                .... 14
Lowest eigenvalues of the non projected Hessian:
 -0.028652719 -0.000000000  0.000000000  0.001920074  0.024217739
done
Evaluating the coordinates              ...  done
Calculating the B-matrix                .... done
Calculating the G-matrix                .... done
Diagonalizing the G-matrix              .... done
The first mode is                       ....    2
The number of degrees of freedom        ....   12

    -----------------------------------------------------------------
                    Redundant Internal Coordinates


    -----------------------------------------------------------------
         Definition                    Initial Value    d2E/dq (diagonal element)
    -----------------------------------------------------------------
      1. B(H   1,C   0)                  1.0789         0.369589   
      2. B(H   2,C   0)                  1.0789         0.369587   
      3. B(H   3,C   0)                  1.3399        -0.009533   
      4. B(H   4,C   0)                  1.0789         0.369581   
      5. B(Cl  5,C   0)                  2.7904         0.039989   
      6. B(Cl  5,H   3)                  1.4505         0.015899   
      7. A(H   1,C   0,H   2)          116.0602         0.083776   
      8. A(H   1,C   0,H   4)          116.0611         0.083773   
      9. A(H   1,C   0,H   3)          101.5974         0.068937   
     10. A(H   2,C   0,H   4)          116.0621         0.083767   
     11. A(H   3,C   0,H   4)          101.6048         0.068941   
     12. A(H   2,C   0,H   3)          101.6040         0.068931   
     13. L(C   0,H   3,Cl  5,H   1, 1) 179.9917         0.024564   
     14. L(C   0,H   3,Cl  5,H   1, 2) 179.9831         0.001938   
    -----------------------------------------------------------------

Number of atoms                         .... 6
Number of degrees of freedom            .... 14

         *************************************************************
         *                GEOMETRY OPTIMIZATION CYCLE   1            *
         *************************************************************
---------------------------------
CARTESIAN COORDINATES (ANGSTROEM)
---------------------------------
  C      0.000084    0.000009    1.937284
  H     -1.056738    0.000072    2.154239
  H      0.528433   -0.915241    2.154332
  H     -0.000001   -0.000097    0.597378
  H      0.528527    0.915228    2.154201
  Cl    -0.000303    0.000029   -0.853145

----------------------------
CARTESIAN COORDINATES (A.U.)
----------------------------
  NO LB      ZA    FRAG     MASS         X           Y           Z
   0 C     6.0000    0    12.011    0.000159    0.000017    3.660936
   1 H     1.0000    0     1.008   -1.996945    0.000136    4.070922
   2 H     1.0000    0     1.008    0.998594   -1.729555    4.071097
   3 H     1.0000    0     1.008   -0.000002   -0.000183    1.128881
   4 H     1.0000    0     1.008    0.998771    1.729530    4.070850
   5 Cl   17.0000    0    35.453   -0.000573    0.000055   -1.612210

--------------------------------
INTERNAL COORDINATES (ANGSTROEM)
--------------------------------
 C      0   0   0     0.000000000000     0.00000000     0.00000000
 H      1   0   0     1.078861536842     0.00000000     0.00000000
 H      1   2   0     1.078862856254   116.06023616     0.00000000
 H      1   2   3     1.339906006889   101.59743710   109.20437234
 H      1   2   3     1.078856249506   116.06108958   218.41004330
 Cl     4   1   2     1.450523036911   179.98738136    48.90260338

---------------------------
INTERNAL COORDINATES (A.U.)
---------------------------
 C      0   0   0     0.000000000000     0.00000000     0.00000000
 H      1   0   0     2.038752841054     0.00000000     0.00000000
 H      1   2   0     2.038755334381   116.06023616     0.00000000
 H      1   2   3     2.532055398216   101.59743710   109.20437234
 H      1   2   3     2.038742849436   116.06108958   218.41004330
 Cl     4   1   2     2.741091290705   179.98738136    48.90260338

---------------------
BASIS SET INFORMATION
---------------------
There are 3 groups of distinct atoms

 Group   1 Type C   : 12s6p1d contracted to 5s4p1d pattern {63111/3111/1}
 Group   2 Type H   : 5s1p contracted to 3s1p pattern {311/1}
 Group   3 Type Cl  : 14s11p1d contracted to 7s6p1d pattern {6311111/521111/1}

Atom   0C    basis set group =>   1
Atom   1H    basis set group =>   2
Atom   2H    basis set group =>   2
Atom   3H    basis set group =>   2
Atom   4H    basis set group =>   2
Atom   5Cl   basis set group =>   3

-------------------------
BASIS SET IN INPUT FORMAT
-------------------------

 # Basis set for element : H 
 NewGTO H 
 S 3 
   1      33.8650000000      0.0254938145
   2       5.0947900000      0.1903731086
   3       1.1587900000      0.8521614860
 S 1 
   1       0.3258400000      1.0000000000
 S 1 
   1       0.1027410000      1.0000000000
 P 1 
   1       0.7500000000      1.0000000000
  end;

 # Basis set for element : C 
 NewGTO C 
 S 6 
   1    4563.2400000000      0.0019666502
   2     682.0240000000      0.0152306019
   3     154.9730000000      0.0761269097
   4      44.4553000000      0.2608010331
   5      13.0290000000      0.6164620782
   6       1.8277300000      0.2210060280
 S 3 
   1      20.9642000000      0.1146600807
   2       4.8033100000      0.9199996477
   3       1.4593300000     -0.0030306821
 P 3 
   1      20.9642000000      0.0402486927
   2       4.8033100000      0.2375939567
   3       1.4593300000      0.8158538515
 S 1 
   1       0.4834560000      1.0000000000
 P 1 
   1       0.4834560000      1.0000000000
 S 1 
   1       0.1455850000      1.0000000000
 P 1 
   1       0.1455850000      1.0000000000
 S 1 
   1       0.0438000000      1.0000000000
 P 1 
   1       0.0438000000      1.0000000000
 D 1 
   1       0.6260000000      1.0000000000
  end;

 # Basis set for element : Cl
 NewGTO Cl
 S 6 
   1  105819.0000000000      0.0007380002
   2   15872.0000000000      0.0057180019
   3    3619.6500000000      0.0294950099
   4    1030.8000000000      0.1172860392
   5     339.9080000000      0.3629491212
   6     124.5380000000      0.5841491951
 S 3 
   1     124.5380000000      0.1341769734
   2      49.5135000000      0.6242498762
   3      20.8056000000      0.2917559421
 S 1 
   1       6.5834600000      1.0000000000
 S 1 
   1       2.5646800000      1.0000000000
 S 1 
   1       0.5597630000      1.0000000000
 S 1 
   1       0.1832730000      1.0000000000
 P 5 
   1     589.7760000000      0.0023909997
   2     139.8490000000      0.0185039976
   3      45.1413000000      0.0813769893
   4      16.8733000000      0.2215519708
   5       6.7411000000      0.7725688983
 P 2 
   1       6.7411000000     -1.5722438126
   2       2.7715200000      0.9923888817
 P 1 
   1       1.0238700000      1.0000000000
 P 1 
   1       0.3813680000      1.0000000000
 P 1 
   1       0.1094370000      1.0000000000
 S 1 
   1       0.0483000000      1.0000000000
 P 1 
   1       0.0483000000      1.0000000000
 D 1 
   1       0.7500000000      1.0000000000
  end;



           ************************************************************
           *        Program running with 12 parallel MPI-processes    *
           *              working on a common directory               *
           ************************************************************
------------------------------------------------------------------------------
                           ORCA GTO INTEGRAL CALCULATION
------------------------------------------------------------------------------

                         BASIS SET STATISTICS AND STARTUP INFO

 # of primitive gaussian shells          ...   69
 # of primitive gaussian functions       ...  119
 # of contracted shells                  ...   40
 # of contracted basis functions         ...   76
 Highest angular momentum                ...    2
 Maximum contraction depth               ...    6
 Integral package used                   ... LIBINT
 Integral threshhold            Thresh   ...  2.500e-11
 Primitive cut-off              TCut     ...  2.500e-12


------------------------------ INTEGRAL EVALUATION ----------------------------


 * One electron integrals 
 Pre-screening matrix                    ... done
 Shell pair data                         ... done (   0.000 sec)



           ************************************************************
           *        Program running with 12 parallel MPI-processes    *
           *              working on a common directory               *
           ************************************************************
-------------------------------------------------------------------------------
                                 ORCA SCF
-------------------------------------------------------------------------------

------------
SCF SETTINGS
------------
Hamiltonian:
 Ab initio Hamiltonian  Method          .... Hartree-Fock(GTOs)


General Settings:
 Integral files         IntName         .... H3CHCl‡
 Hartree-Fock type      HFTyp           .... UHF
 Total Charge           Charge          ....    0
 Multiplicity           Mult            ....    2
 Number of Electrons    NEL             ....   27
 Basis Dimension        Dim             ....   76
 Nuclear Repulsion      ENuc            ....     46.9210599865 Eh

Convergence Acceleration:
 DIIS                   CNVDIIS         .... on
   Start iteration      DIISMaxIt       ....    12
   Startup error        DIISStart       ....  0.200000
   # of expansion vecs  DIISMaxEq       ....     5
   Bias factor          DIISBfac        ....   1.050
   Max. coefficient     DIISMaxC        ....  10.000
 Newton-Raphson         CNVNR           .... off
 SOSCF                  CNVSOSCF        .... off
 Level Shifting         CNVShift        .... on
   Level shift para.    LevelShift      ....    0.2500
   Turn off err/grad.   ShiftErr        ....    0.0010
 Zerner damping         CNVZerner       .... off
 Static damping         CNVDamp         .... on
   Fraction old density DampFac         ....    0.7000
   Max. Damping (<1)    DampMax         ....    0.9800
   Min. Damping (>=0)   DampMin         ....    0.0000
   Turn off err/grad.   DampErr         ....    0.1000
 Fernandez-Rico         CNVRico         .... off

SCF Procedure:
 Maximum # iterations   MaxIter         ....   125
 SCF integral mode      SCFMode         .... Direct
   Integral package                     .... LIBINT
 Reset frequency        DirectResetFreq ....    20
 Integral Threshold     Thresh          ....  2.500e-11 Eh
 Primitive CutOff       TCut            ....  2.500e-12 Eh

Convergence Tolerance:
 Convergence Check Mode ConvCheckMode   .... Total+1el-Energy
 Convergence forced     ConvForced      .... 1
 Energy Change          TolE            ....  1.000e-08 Eh
 1-El. energy change                    ....  1.000e-05 Eh
 DIIS Error             TolErr          ....  5.000e-07


Diagonalization of the overlap matrix:
Smallest eigenvalue                        ... 4.028e-03
Time for diagonalization                   ...    0.007 sec
Threshold for overlap eigenvalues          ... 1.000e-08
Number of eigenvalues below threshold      ... 0
Time for construction of square roots      ...    0.003 sec
Total time needed                          ...    0.010 sec

-------------------
DFT GRID GENERATION
-------------------

General Integration Accuracy     IntAcc      ...  4.670
Radial Grid Type                 RadialGrid  ... Gauss-Chebyshev
Angular Grid (max. acc.)         AngularGrid ... Lebedev-302
Angular grid pruning method      GridPruning ... 3 (G Style)
Weight generation scheme         WeightScheme... Becke
Basis function cutoff            BFCut       ...    1.0000e-11
Integration weight cutoff        WCut        ...    1.0000e-14
Grids for H and He will be reduced by one unit

# of grid points (after initial pruning)     ...  26526 (   0.0 sec)
# of grid points (after weights+screening)   ...  25705 (   0.0 sec)
nearest neighbour list constructed           ...    0.0 sec
Grid point re-assignment to atoms done       ...    0.0 sec
Grid point division into batches done        ...    0.4 sec
Reduced shell lists constructed in    0.4 sec

Total number of grid points                  ...    25705
Total number of batches                      ...      405
Average number of points per batch           ...       63
Average number of grid points per atom       ...     4284
Average number of shells per batch           ...    32.77 (81.93%)
Average number of basis functions per batch  ...    63.34 (83.35%)
Average number of large shells per batch     ...    31.03 (94.68%)
Average number of large basis fcns per batch ...    58.06 (91.66%)
Maximum spatial batch extension              ...   1.47,  1.65,  3.00 au
Average spatial batch extension              ...   0.08,  0.08,  0.08 au

Time for grid setup =    0.495 sec

------------------------------
INITIAL GUESS: MODEL POTENTIAL
------------------------------
Loading Hartree-Fock densities                     ... done
Calculating cut-offs                               ... done
Setting up the integral package                    ... done
Initializing the effective Hamiltonian             ... done
Starting the Coulomb interaction                   ... done (   0.0 sec)
Reading the grid                                   ... done
Mapping shells                                     ... done
Starting the XC term evaluation                    ... done (   0.0 sec)
Transforming the Hamiltonian                       ... done (   0.0 sec)
Diagonalizing the Hamiltonian                      ... done (   0.0 sec)
Back transforming the eigenvectors                 ... done (   0.0 sec)
Now organizing SCF variables                       ... done
                      ------------------
                      INITIAL GUESS DONE (   0.8 sec)
                      ------------------
--------------
SCF ITERATIONS
--------------
ITER       Energy         Delta-E        Max-DP      RMS-DP      [F,P]     Damp
               ***  Starting incremental Fock matrix formation  ***
  0   -499.5462120821   0.000000000000 0.02629249  0.00074655  0.6488965 0.7000
  1   -499.5787699256  -0.032557843503 0.01851223  0.00061263  0.4561175 0.7000
  2   -499.5998313321  -0.021061406550 0.01101783  0.00044161  0.3205654 0.7000
  3   -499.6138499468  -0.014018614643 0.00712688  0.00032160  0.2253424 0.7000
                               ***Turning on DIIS***
  4   -499.6236112787  -0.009761331910 0.00568447  0.00024448  0.1584264 0.7000
  5   -499.7037068943  -0.080095615592 0.00544353  0.00021819  0.1113902 0.7000
  6   -499.6968716642   0.006835230098 0.01639037  0.00064249  0.0781195 0.0000
  7   -499.6503435381   0.046528126089 0.00358544  0.00014051  0.0052821 0.0000
  8   -499.6464107921   0.003932745949 0.00334745  0.00013578  0.0036721 0.0000
  9   -499.6486445424  -0.002233750295 0.00162806  0.00007710  0.0021165 0.0000
 10   -499.6481954255   0.000449116944 0.00103275  0.00004229  0.0010822 0.0000
 11   -499.6486647809  -0.000469355469 0.00116112  0.00004001  0.0005855 0.0000
 12   -499.6488042809  -0.000139499944 0.00042743  0.00001456  0.0001346 0.0000
 13   -499.6488783305  -0.000074049643 0.00029468  0.00000864  0.0000723 0.0000
 14   -499.6490008676  -0.000122537077 0.00009945  0.00000278  0.0000211 0.0000
 15   -499.6490226476  -0.000021779981 0.00002062  0.00000096  0.0000093 0.0000
 16   -499.6490346736  -0.000012025963 0.00001448  0.00000065  0.0000037 0.0000
                            ***DIIS convergence achieved***

               *****************************************************
               *                     SUCCESS                       *
               *           SCF CONVERGED AFTER  17 CYCLES          *
               *****************************************************


----------------
TOTAL SCF ENERGY
----------------

Total Energy       :         -499.64903228 Eh          -13596.14138 eV

Components:
Nuclear Repulsion  :           46.92105999 Eh            1276.78695 eV
Electronic Energy  :         -546.57009226 Eh          -14872.92834 eV
One Electron Energy:         -781.83907593 Eh          -21274.92285 eV
Two Electron Energy:          235.26898366 Eh            6401.99452 eV

Virial components:
Potential Energy   :         -999.36197490 Eh          -27194.02185 eV
Kinetic Energy     :          499.71294263 Eh           13597.88047 eV
Virial Ratio       :            1.99987211


---------------
SCF CONVERGENCE
---------------

  Last Energy change         ...    2.3971e-06  Tolerance :   1.0000e-08
  Last MAX-Density change    ...    3.5189e-06  Tolerance :   1.0000e-07
  Last RMS-Density change    ...    1.4582e-07  Tolerance :   5.0000e-09
  Last DIIS Error            ...    9.1003e-07  Tolerance :   5.0000e-07

             **** THE GBW FILE WAS UPDATED (H3CHCl‡.gbw) ****
             **** DENSITY FILE WAS UPDATED (H3CHCl‡.scfp) ****
             **** ENERGY FILE WAS UPDATED (H3CHCl‡.en.tmp) ****
----------------------
UHF SPIN CONTAMINATION
----------------------

Expectation value of <S**2>     :     0.783769
Ideal value S*(S+1) for S=0.5   :     0.750000
Deviation                       :     0.033769

             **** THE GBW FILE WAS UPDATED (H3CHCl‡.gbw) ****
             **** DENSITY FILE WAS UPDATED (H3CHCl‡.scfp) ****
----------------
ORBITAL ENERGIES
----------------
                 SPIN UP ORBITALS
  NO   OCC          E(Eh)            E(eV) 
   0   1.0000    -104.821892     -2852.3487 
   1   1.0000     -11.282013      -306.9992 
   2   1.0000     -10.548314      -287.0342 
   3   1.0000      -8.025970      -218.3978 
   4   1.0000      -8.011753      -218.0109 
   5   1.0000      -8.011753      -218.0109 
   6   1.0000      -1.104402       -30.0523 
   7   1.0000      -1.003740       -27.3132 
   8   1.0000      -0.648778       -17.6541 
   9   1.0000      -0.619904       -16.8685 
  10   1.0000      -0.619900       -16.8683 
  11   1.0000      -0.454721       -12.3736 
  12   1.0000      -0.454721       -12.3736 
  13   1.0000      -0.419578       -11.4173 
  14   0.0000       0.065795         1.7904 
  15   0.0000       0.100521         2.7353 
  16   0.0000       0.100522         2.7353 
  17   0.0000       0.101079         2.7505 
  18   0.0000       0.135476         3.6865 
  19   0.0000       0.150674         4.1001 
  20   0.0000       0.150674         4.1001 
  21   0.0000       0.216947         5.9034 
  22   0.0000       0.250493         6.8163 
  23   0.0000       0.250499         6.8164 
  24   0.0000       0.301346         8.2000 
  25   0.0000       0.344710         9.3800 
  26   0.0000       0.493379        13.4255 
  27   0.0000       0.493382        13.4256 
  28   0.0000       0.505155        13.7460 
  29   0.0000       0.564848        15.3703 
  30   0.0000       0.629795        17.1376 
  31   0.0000       0.629803        17.1378 
  32   0.0000       0.679183        18.4815 
  33   0.0000       0.782400        21.2902 
  34   0.0000       0.782407        21.2904 
  35   0.0000       0.864528        23.5250 
  36   0.0000       1.027952        27.9720 
  37   0.0000       1.035441        28.1758 
  38   0.0000       1.035450        28.1760 
  39   0.0000       1.152202        31.3530 
  40   0.0000       1.165019        31.7018 
  41   0.0000       1.165019        31.7018 
  42   0.0000       1.200068        32.6555 
  43   0.0000       1.200070        32.6556 
  44   0.0000       1.417564        38.5739 
  45   0.0000       1.644733        44.7555 
  46   0.0000       1.666418        45.3455 
  47   0.0000       1.666424        45.3457 
  48   0.0000       1.762933        47.9718 
  49   0.0000       1.762965        47.9727 
  50   0.0000       1.887218        51.3538 
  51   0.0000       2.077694        56.5369 
  52   0.0000       2.134413        58.0803 
  53   0.0000       2.134438        58.0810 
  54   0.0000       2.428689        66.0880 
  55   0.0000       2.428707        66.0885 
  56   0.0000       2.580559        70.2206 
  57   0.0000       2.646386        72.0118 
  58   0.0000       2.646388        72.0119 
  59   0.0000       2.749837        74.8269 
  60   0.0000       2.749854        74.8273 
  61   0.0000       2.794576        76.0443 
  62   0.0000       2.869712        78.0888 
  63   0.0000       2.903434        79.0064 
  64   0.0000       2.924918        79.5911 
  65   0.0000       2.924937        79.5916 
  66   0.0000       3.211764        87.3965 
  67   0.0000       3.906798       106.3094 
  68   0.0000       4.130394       112.3937 
  69   0.0000       4.130407       112.3941 
  70   0.0000      10.446563       284.2654 
  71   0.0000      25.059242       681.8966 
  72   0.0000      26.683835       726.1041 
  73   0.0000      26.683840       726.1042 
  74   0.0000      27.030978       735.5503 
  75   0.0000     219.296226      5967.3537 

                 SPIN DOWN ORBITALS
  NO   OCC          E(Eh)            E(eV) 
   0   1.0000    -104.815582     -2852.1770 
   1   1.0000     -11.263552      -306.4968 
   2   1.0000     -10.541642      -286.8527 
   3   1.0000      -8.008063      -217.9105 
   4   1.0000      -8.008063      -217.9105 
   5   1.0000      -7.999963      -217.6901 
   6   1.0000      -1.050553       -28.5870 
   7   1.0000      -0.932339       -25.3702 
   8   1.0000      -0.607754       -16.5378 
   9   1.0000      -0.607749       -16.5377 
  10   1.0000      -0.553689       -15.0667 
  11   1.0000      -0.442358       -12.0372 
  12   1.0000      -0.442358       -12.0372 
  13   0.0000       0.007757         0.2111 
  14   0.0000       0.071047         1.9333 
  15   0.0000       0.101187         2.7534 
  16   0.0000       0.101188         2.7535 
  17   0.0000       0.115125         3.1327 
  18   0.0000       0.138888         3.7793 
  19   0.0000       0.151627         4.1260 
  20   0.0000       0.151628         4.1260 
  21   0.0000       0.221276         6.0212 
  22   0.0000       0.255835         6.9616 
  23   0.0000       0.255840         6.9618 
  24   0.0000       0.310345         8.4449 
  25   0.0000       0.391367        10.6496 
  26   0.0000       0.494922        13.4675 
  27   0.0000       0.494925        13.4676 
  28   0.0000       0.517729        14.0881 
  29   0.0000       0.589562        16.0428 
  30   0.0000       0.633390        17.2354 
  31   0.0000       0.633397        17.2356 
  32   0.0000       0.741106        20.1665 
  33   0.0000       0.797170        21.6921 
  34   0.0000       0.797177        21.6923 
  35   0.0000       0.889091        24.1934 
  36   0.0000       1.054110        28.6838 
  37   0.0000       1.069428        29.1006 
  38   0.0000       1.069437        29.1009 
  39   0.0000       1.171019        31.8651 
  40   0.0000       1.171020        31.8651 
  41   0.0000       1.194291        32.4983 
  42   0.0000       1.242431        33.8083 
  43   0.0000       1.242432        33.8083 
  44   0.0000       1.445113        39.3235 
  45   0.0000       1.642113        44.6842 
  46   0.0000       1.671019        45.4707 
  47   0.0000       1.671025        45.4709 
  48   0.0000       1.770523        48.1784 
  49   0.0000       1.770553        48.1792 
  50   0.0000       1.929927        52.5160 
  51   0.0000       2.087976        56.8167 
  52   0.0000       2.140022        58.2330 
  53   0.0000       2.140045        58.2336 
  54   0.0000       2.446175        66.5638 
  55   0.0000       2.446193        66.5643 
  56   0.0000       2.611969        71.0753 
  57   0.0000       2.652181        72.1695 
  58   0.0000       2.652182        72.1695 
  59   0.0000       2.752511        74.8996 
  60   0.0000       2.752529        74.9001 
  61   0.0000       2.801662        76.2371 
  62   0.0000       2.885428        78.5165 
  63   0.0000       2.922152        79.5158 
  64   0.0000       2.931302        79.7648 
  65   0.0000       2.931319        79.7652 
  66   0.0000       3.214674        87.4757 
  67   0.0000       3.938469       107.1712 
  68   0.0000       4.143911       112.7616 
  69   0.0000       4.143924       112.7619 
  70   0.0000      10.456213       284.5280 
  71   0.0000      25.072040       682.2449 
  72   0.0000      26.686706       726.1822 
  73   0.0000      26.686711       726.1823 
  74   0.0000      27.043108       735.8804 
  75   0.0000     219.299756      5967.4497 
------------------
MOLECULAR ORBITALS
------------------
                      0         1         2         3         4         5   
                 -104.82189 -11.28201 -10.54831  -8.02597  -8.01175  -8.01175
                   1.00000   1.00000   1.00000   1.00000   1.00000   1.00000
                  --------  --------  --------  --------  --------  --------
  0C   1s         0.000000 -0.563067  0.000014 -0.000003 -0.000000  0.000000
  0C   2s        -0.000000 -0.466429 -0.000004 -0.000001  0.000000 -0.000000
  0C   1pz       -0.000002  0.000162 -0.000135  0.000033  0.000000 -0.000000
  0C   1px       -0.000000 -0.000000 -0.000000  0.000000  0.000001 -0.000006
  0C   1py       -0.000000  0.000000 -0.000000  0.000000 -0.000006 -0.000001
  0C   3s         0.000008 -0.005686  0.000667 -0.000099 -0.000000  0.000000
  0C   2pz        0.000007  0.000202  0.000532 -0.000124 -0.000000  0.000000
  0C   2px       -0.000000  0.000000 -0.000000  0.000000 -0.000005  0.000034
  0C   2py        0.000000 -0.000000  0.000000 -0.000000  0.000034  0.000005
  0C   4s        -0.000062  0.002187 -0.005183  0.000575  0.000000 -0.000000
  0C   3pz        0.000026 -0.000304  0.002148 -0.000197 -0.000000  0.000000
  0C   3px       -0.000000 -0.000000 -0.000000 -0.000000 -0.000019  0.000139
  0C   3py        0.000000 -0.000000  0.000001 -0.000000  0.000139  0.000019
  0C   5s        -0.000064  0.000718 -0.005149 -0.000067 -0.000000  0.000000
  0C   4pz        0.000029 -0.000105  0.002335  0.000054  0.000000 -0.000000
  0C   4px        0.000000 -0.000000  0.000000 -0.000000  0.000016 -0.000115
  0C   4py        0.000000 -0.000000  0.000000  0.000000 -0.000115 -0.000016
  0C   1dz2      -0.000007 -0.000312 -0.000491  0.000082  0.000000 -0.000000
  0C   1dxz      -0.000000 -0.000000 -0.000000  0.000000  0.000002 -0.000017
  0C   1dyz      -0.000000 -0.000000 -0.000000  0.000000 -0.000017 -0.000002
  0C   1dx2y2     0.000000  0.000000  0.000000 -0.000000  0.000003 -0.000024
  0C   1dxy       0.000000 -0.000000  0.000000 -0.000000  0.000024  0.000003
  1H   1s        -0.000001 -0.000402 -0.000060  0.000016  0.000001 -0.000007
  1H   2s         0.000003 -0.000014  0.000268 -0.000084 -0.000016  0.000115
  1H   3s         0.000003 -0.000587  0.000352 -0.000089  0.000007 -0.000050
  1H   1pz        0.000000 -0.000013 -0.000004  0.000016  0.000001 -0.000005
  1H   1px       -0.000001  0.000036 -0.000033  0.000007 -0.000002  0.000017
  1H   1py       -0.000000 -0.000000 -0.000000  0.000000 -0.000017 -0.000002
  2H   1s        -0.000001 -0.000402 -0.000060  0.000016 -0.000007  0.000003
  2H   2s         0.000003 -0.000014  0.000269 -0.000084  0.000107 -0.000044
  2H   3s         0.000003 -0.000587  0.000352 -0.000089 -0.000047  0.000019
  2H   1pz        0.000000 -0.000013 -0.000005  0.000016 -0.000005  0.000002
  2H   1px        0.000000 -0.000018  0.000017 -0.000003 -0.000013 -0.000011
  2H   1py       -0.000001  0.000031 -0.000029  0.000006  0.000010 -0.000013
  3H   1s         0.000001 -0.000162  0.000209 -0.000170  0.000000 -0.000000
  3H   2s        -0.000000 -0.000047  0.000210 -0.000411 -0.000000  0.000000
  3H   3s         0.000140 -0.001226  0.010453  0.000236 -0.000000  0.000000
  3H   1pz        0.000019  0.000067  0.001244  0.000035 -0.000000  0.000000
  3H   1px        0.000000  0.000000  0.000000  0.000000  0.000006 -0.000041
  3H   1py        0.000000 -0.000000  0.000000 -0.000000 -0.000041 -0.000006
  4H   1s        -0.000001 -0.000402 -0.000060  0.000016  0.000006  0.000004
  4H   2s         0.000003 -0.000014  0.000268 -0.000084 -0.000091 -0.000071
  4H   3s         0.000003 -0.000587  0.000352 -0.000089  0.000040  0.000031
  4H   1pz        0.000000 -0.000013 -0.000004  0.000016  0.000004  0.000003
  4H   1px        0.000000 -0.000018  0.000017 -0.000003  0.000016 -0.000007
  4H   1py        0.000001 -0.000031  0.000029 -0.000006  0.000006  0.000016
  5Cl  1s         0.411722 -0.000001 -0.121961 -0.000518  0.000000 -0.000000
  5Cl  2s         0.654658 -0.000001 -0.331572 -0.001430  0.000000 -0.000000
  5Cl  3s         0.012124 -0.000007  0.512458  0.002319 -0.000000  0.000000
  5Cl  4s        -0.000932  0.000017  0.604474  0.002696 -0.000000 -0.000000
  5Cl  5s         0.000230 -0.000094  0.044819 -0.000431 -0.000000  0.000000
  5Cl  6s        -0.000187  0.000460 -0.015269  0.000093  0.000000 -0.000000
  5Cl  1pz        0.000092 -0.000002  0.004921 -1.230604 -0.000112  0.000236
  5Cl  1px        0.000000 -0.000000  0.000001 -0.000248  0.167456 -1.219816
  5Cl  1py       -0.000000  0.000000 -0.000000  0.000079 -1.219816 -0.167456
  5Cl  2pz        0.000055  0.000006  0.001307 -0.327177 -0.000030  0.000063
  5Cl  2px        0.000000  0.000000  0.000000 -0.000066  0.044506 -0.324197
  5Cl  2py       -0.000000 -0.000000 -0.000000  0.000021 -0.324197 -0.044506
  5Cl  3pz       -0.000061 -0.000032  0.000215 -0.050626 -0.000004  0.000009
  5Cl  3px       -0.000000 -0.000000  0.000000 -0.000010  0.006711 -0.048884
  5Cl  3py        0.000000  0.000000  0.000000  0.000003 -0.048884 -0.006711
  5Cl  4pz        0.000048  0.000160  0.000968  0.002691  0.000000 -0.000000
  5Cl  4px        0.000000  0.000000  0.000000  0.000001 -0.000320  0.002328
  5Cl  4py       -0.000000 -0.000000 -0.000000 -0.000000  0.002328  0.000320
  5Cl  5pz       -0.000074  0.000162 -0.004190 -0.001474 -0.000000  0.000000
  5Cl  5px       -0.000000  0.000000 -0.000001 -0.000000  0.000168 -0.001221
  5Cl  5py        0.000000 -0.000000  0.000000  0.000000 -0.001221 -0.000168
  5Cl  7s         0.000043  0.000022  0.003963 -0.000105  0.000000 -0.000000
  5Cl  6pz        0.000041 -0.000012  0.002677  0.000578  0.000000 -0.000000
  5Cl  6px        0.000000 -0.000000  0.000000  0.000000 -0.000075  0.000545
  5Cl  6py       -0.000000  0.000000 -0.000000 -0.000000  0.000545  0.000075
  5Cl  1dz2       0.000003  0.000036  0.000676 -0.000346 -0.000000  0.000000
  5Cl  1dxz       0.000000  0.000000  0.000000 -0.000000  0.000042 -0.000309
  5Cl  1dyz      -0.000000 -0.000000 -0.000000  0.000000 -0.000309 -0.000042
  5Cl  1dx2y2    -0.000000  0.000000 -0.000000  0.000000 -0.000000  0.000000
  5Cl  1dxy      -0.000000  0.000000 -0.000000  0.000000 -0.000000 -0.000000
                      6         7         8         9        10        11   
                  -1.10440  -1.00374  -0.64878  -0.61990  -0.61990  -0.45472
                   1.00000   1.00000   1.00000   1.00000   1.00000   1.00000
                  --------  --------  --------  --------  --------  --------
  0C   1s         0.032491  0.101269  0.013648  0.000000 -0.000003  0.000000
  0C   2s         0.053795  0.168145  0.022305  0.000000 -0.000004  0.000000
  0C   1pz        0.014368  0.002610 -0.129098 -0.000021  0.000029  0.000009
  0C   1px        0.000002  0.000001 -0.000052  0.059950 -0.189629 -0.001423
  0C   1py        0.000000  0.000000 -0.000006  0.189630  0.059950  0.015076
  0C   3s        -0.135330 -0.436715 -0.051105  0.000000  0.000009  0.000002
  0C   2pz        0.035780  0.017927 -0.225137 -0.000035  0.000053  0.000010
  0C   2px        0.000003  0.000001 -0.000085  0.096538 -0.305362 -0.002454
  0C   2py        0.000003  0.000002 -0.000011  0.305362  0.096537  0.025984
  0C   4s        -0.111946 -0.304611 -0.059223 -0.000004  0.000012 -0.000024
  0C   3pz        0.017784 -0.005689 -0.143034 -0.000022  0.000036  0.000028
  0C   3px       -0.000000  0.000000 -0.000049  0.059897 -0.189461 -0.000660
  0C   3py        0.000003 -0.000000 -0.000006  0.189460  0.059896  0.006988
  0C   5s        -0.050551 -0.021273  0.001983  0.000000  0.000002  0.000013
  0C   4pz        0.019363 -0.003537 -0.003184 -0.000000 -0.000000 -0.000004
  0C   4px        0.000002  0.000001  0.000001  0.000437 -0.001381  0.001222
  0C   4py        0.000001 -0.000000 -0.000001  0.001382  0.000437 -0.012938
  0C   1dz2      -0.012060 -0.007117  0.027514  0.000001 -0.000009  0.000000
  0C   1dxz      -0.000001 -0.000000 -0.000001  0.002256 -0.007143 -0.000183
  0C   1dyz      -0.000002 -0.000001  0.000004  0.007143  0.002260  0.001932
  0C   1dx2y2    -0.000000  0.000000  0.000009 -0.009147  0.028946  0.000204
  0C   1dxy       0.000000 -0.000000  0.000000  0.028944  0.009145  0.002153
  1H   1s        -0.022271 -0.079983 -0.038308 -0.048475  0.153363  0.001260
  1H   2s        -0.029490 -0.106180 -0.054038 -0.073266  0.231797  0.002458
  1H   3s         0.010577  0.018188 -0.013148 -0.021188  0.067038  0.001794
  1H   1pz        0.001742  0.003423 -0.006850  0.001161 -0.003676  0.000055
  1H   1px       -0.006861 -0.019659 -0.004902 -0.005283  0.016716  0.000174
  1H   1py        0.000000  0.000001 -0.000000  0.009998  0.003159  0.001289
  2H   1s        -0.022269 -0.079983 -0.038374 -0.108574 -0.118646 -0.012165
  2H   2s        -0.029485 -0.106180 -0.054134 -0.164102 -0.179326 -0.023676
  2H   3s         0.010578  0.018187 -0.013177 -0.047459 -0.051865 -0.017395
  2H   1pz        0.001742  0.003424 -0.006848  0.002604  0.002849 -0.000532
  2H   1px        0.003430  0.009828  0.002452  0.012616  0.000335  0.001302
  2H   1py       -0.005941 -0.017025 -0.004253 -0.006382 -0.014739 -0.001177
  3H   1s        -0.067902 -0.035365  0.129756  0.000006 -0.000033  0.000001
  3H   2s        -0.094631 -0.062689  0.246601  0.000014 -0.000063  0.000006
  3H   3s         0.062241 -0.006564  0.034048  0.000004 -0.000013  0.000039
  3H   1pz        0.014381 -0.021395 -0.004010 -0.000002  0.000003 -0.000005
  3H   1px        0.000004 -0.000002 -0.000006  0.003393 -0.010732  0.001653
  3H   1py       -0.000002 -0.000001  0.000004  0.010731  0.003393 -0.017509
  4H   1s        -0.022270 -0.079984 -0.038370  0.157043 -0.034688  0.010909
  4H   2s        -0.029489 -0.106179 -0.054128  0.237358 -0.052428  0.021241
  4H   3s         0.010578  0.018188 -0.013174  0.068644 -0.015164  0.015584
  4H   1pz        0.001741  0.003422 -0.006849 -0.003766  0.000834  0.000478
  4H   1px        0.003431  0.009830  0.002452 -0.010518 -0.006977 -0.001399
  4H   1py        0.005942  0.017024  0.004251 -0.013693  0.008394 -0.000924
  5Cl  1s        -0.033104  0.013359 -0.008334 -0.000001  0.000002 -0.000000
  5Cl  2s        -0.095779  0.038726 -0.024335 -0.000002  0.000005 -0.000000
  5Cl  3s         0.189188 -0.077100  0.049957  0.000003 -0.000010  0.000000
  5Cl  4s         0.379092 -0.152681  0.093731  0.000006 -0.000018 -0.000000
  5Cl  5s        -0.571310  0.231070 -0.138693 -0.000009  0.000027  0.000002
  5Cl  6s        -0.523280  0.228584 -0.198316 -0.000014  0.000043 -0.000011
  5Cl  1pz        0.038704  0.012737 -0.215285 -0.000017  0.000054  0.000022
  5Cl  1px        0.000007  0.000002 -0.000040 -0.005150  0.016290 -0.031511
  5Cl  1py       -0.000003 -0.000000  0.000016 -0.016288 -0.005149  0.333707
  5Cl  2pz        0.010042  0.003227 -0.052795 -0.000004  0.000013  0.000005
  5Cl  2px        0.000002  0.000000 -0.000010 -0.001253  0.003964 -0.007552
  5Cl  2py       -0.000001 -0.000000  0.000004 -0.003964 -0.001253  0.079976
  5Cl  3pz       -0.028221 -0.008371  0.155471  0.000013 -0.000039 -0.000016
  5Cl  3px       -0.000006 -0.000001  0.000029  0.003744 -0.011842  0.022873
  5Cl  3py        0.000002  0.000000 -0.000011  0.011841  0.003743 -0.242232
  5Cl  4pz       -0.052222 -0.016891  0.349005  0.000028 -0.000089 -0.000040
  5Cl  4px       -0.000010 -0.000003  0.000066  0.008528 -0.026974  0.055177
  5Cl  4py        0.000003  0.000001 -0.000026  0.026971  0.008526 -0.584326
  5Cl  5pz       -0.027053  0.006138  0.136286  0.000012 -0.000035 -0.000036
  5Cl  5px       -0.000005  0.000002  0.000024  0.004622 -0.014619  0.034882
  5Cl  5py        0.000002 -0.000001 -0.000009  0.014616  0.004620 -0.369408
  5Cl  7s         0.022853 -0.000688 -0.018801 -0.000002  0.000003 -0.000017
  5Cl  6pz        0.018820 -0.006117 -0.017519 -0.000002  0.000003 -0.000001
  5Cl  6px        0.000002 -0.000001 -0.000003 -0.000738  0.002334 -0.003564
  5Cl  6py        0.000000  0.000000  0.000001 -0.002334 -0.000738  0.037737
  5Cl  1dz2      -0.026398  0.001740  0.028052  0.000002 -0.000007 -0.000001
  5Cl  1dxz      -0.000009  0.000001  0.000010  0.000883 -0.002791  0.001413
  5Cl  1dyz       0.000003 -0.000000 -0.000004  0.002791  0.000882 -0.014966
  5Cl  1dx2y2    -0.000000 -0.000000  0.000000 -0.000026  0.000082  0.000003
  5Cl  1dxy      -0.000000 -0.000000 -0.000000  0.000083  0.000026  0.000034
                     12        13        14        15        16        17   
                  -0.45472  -0.41958   0.06580   0.10052   0.10052   0.10108
                   1.00000   1.00000   0.00000   0.00000   0.00000   0.00000
                  --------  --------  --------  --------  --------  --------
  0C   1s        -0.000000 -0.015650  0.026224 -0.000002  0.000003 -0.002481
  0C   2s        -0.000001 -0.027443  0.047350 -0.000004  0.000005 -0.004927
  0C   1pz        0.000005 -0.190300 -0.032791 -0.000020  0.000046 -0.030887
  0C   1px       -0.015078 -0.000000 -0.000002 -0.040376 -0.025543 -0.000005
  0C   1py       -0.001424 -0.000010  0.000000 -0.025543  0.040378  0.000077
  0C   3s         0.000003  0.083167 -0.168417  0.000032 -0.000050  0.038039
  0C   2pz        0.000005 -0.331402 -0.027779 -0.000031  0.000076 -0.047682
  0C   2px       -0.025987  0.000000 -0.000003 -0.083450 -0.052790 -0.000013
  0C   2py       -0.002454 -0.000019  0.000004 -0.052793  0.083451  0.000159
  0C   4s        -0.000010  0.197599  0.103763 -0.000218  0.000365 -0.246550
  0C   3pz        0.000018 -0.326797 -0.258512  0.000002 -0.000023 -0.006959
  0C   3px       -0.006995  0.000006 -0.000024 -0.149918 -0.094850 -0.000014
  0C   3py       -0.000661 -0.000026 -0.000022 -0.094841  0.149938  0.000313
  0C   5s         0.000015 -0.018301  2.950703 -0.001423  0.001539 -1.465313
  0C   4pz       -0.000005 -0.012007  0.001861  0.001456 -0.002361  1.794594
  0C   4px        0.012934  0.000002  0.000041  1.292517  0.817654  0.000241
  0C   4py        0.001221 -0.000001 -0.000066  0.817664 -1.292522 -0.002431
  0C   1dz2       0.000001  0.020153  0.006087  0.000020 -0.000038  0.024333
  0C   1dxz      -0.001932 -0.000001 -0.000002 -0.007780 -0.004924  0.000000
  0C   1dyz      -0.000182  0.000004  0.000001 -0.004921  0.007783  0.000019
  0C   1dx2y2     0.002153 -0.000000  0.000002  0.024644  0.015594  0.000004
  0C   1dxy      -0.000203  0.000000  0.000001 -0.015595  0.024641  0.000049
  1H   1s         0.013324 -0.023006 -0.013634  0.031465  0.019936 -0.014325
  1H   2s         0.025940 -0.049089  0.074557 -0.093989 -0.059512  0.017160
  1H   3s         0.019027 -0.026664 -0.669183  0.675134  0.427315 -0.048983
  1H   1pz        0.000583 -0.012213  0.003395  0.000985  0.000617  0.003498
  1H   1px        0.001831 -0.003158 -0.009309 -0.003854 -0.002451  0.006372
  1H   1py       -0.000122 -0.000000  0.000001  0.003103 -0.004904 -0.000010
  2H   1s        -0.005571 -0.023012 -0.013641  0.001497 -0.037192 -0.014384
  2H   2s        -0.010840 -0.049107  0.074567 -0.004497  0.111099  0.017356
  2H   3s        -0.007967 -0.026671 -0.669285  0.032364 -0.798001 -0.050231
  2H   1pz       -0.000244 -0.012212  0.003395  0.000050 -0.001167  0.003494
  2H   1px       -0.000637  0.001580  0.004654  0.005111 -0.002073 -0.003194
  2H   1py       -0.001251 -0.002737 -0.008061  0.002743  0.004061  0.005524
  3H   1s         0.000000  0.033339  0.000784  0.000028 -0.000055  0.035825
  3H   2s         0.000003  0.044897  0.039493 -0.000014  0.000028 -0.013885
  3H   3s         0.000026 -0.020008 -0.854268  0.001159 -0.002251  1.464216
  3H   1pz       -0.000005  0.046129 -0.001632  0.000002 -0.000006  0.003914
  3H   1px        0.017509  0.000008  0.000002  0.005409  0.003422 -0.000001
  3H   1py        0.001653 -0.000001 -0.000002  0.003422 -0.005409 -0.000008
  4H   1s        -0.007751 -0.023007 -0.013637 -0.032994  0.017324 -0.014276
  4H   2s        -0.015084 -0.049093  0.074569  0.098511 -0.051713  0.017024
  4H   3s        -0.011080 -0.026663 -0.669214 -0.707445  0.371284 -0.047957
  4H   1pz       -0.000339 -0.012212  0.003394 -0.001027  0.000536  0.003499
  4H   1px       -0.000382  0.001579  0.004655  0.000309  0.005515 -0.003178
  4H   1py        0.001449  0.002735  0.008061 -0.004856 -0.000724 -0.005516
  5Cl  1s         0.000000 -0.001984 -0.003196  0.000003 -0.000005  0.003966
  5Cl  2s         0.000000 -0.005756 -0.009238  0.000010 -0.000014  0.011418
  5Cl  3s         0.000000  0.011485  0.018174 -0.000019  0.000027 -0.022092
  5Cl  4s        -0.000000  0.024040  0.041283 -0.000046  0.000068 -0.052754
  5Cl  5s         0.000002 -0.040300 -0.084084  0.000097 -0.000156  0.114369
  5Cl  6s        -0.000007 -0.055440  0.010681 -0.000025  0.000122 -0.044846
  5Cl  1pz        0.000063  0.252348  0.011274  0.000027 -0.000056  0.038691
  5Cl  1px       -0.333707  0.000044  0.000002  0.031729  0.020072  0.000007
  5Cl  1py       -0.031511 -0.000004 -0.000001  0.020072 -0.031730 -0.000062
  5Cl  2pz        0.000015  0.060646  0.002445  0.000008 -0.000015  0.010687
  5Cl  2px       -0.079976  0.000011  0.000000  0.008427  0.005331  0.000002
  5Cl  2py       -0.007552 -0.000001 -0.000000  0.005331 -0.008427 -0.000017
  5Cl  3pz       -0.000045 -0.184960 -0.006572 -0.000031  0.000060 -0.042237
  5Cl  3px        0.242232 -0.000032 -0.000001 -0.031388 -0.019857 -0.000008
  5Cl  3py        0.022873  0.000003  0.000000 -0.019857  0.031390  0.000062
  5Cl  4pz       -0.000111 -0.453667 -0.033253 -0.000004  0.000026 -0.012759
  5Cl  4px        0.584326 -0.000079 -0.000010 -0.027172 -0.017189 -0.000002
  5Cl  4py        0.055177  0.000008  0.000006 -0.017190  0.027173  0.000051
  5Cl  5pz       -0.000077 -0.280442  0.178393 -0.000503  0.000962 -0.655942
  5Cl  5px        0.369408 -0.000047  0.000050 -0.198877 -0.125814 -0.000129
  5Cl  5py        0.034882  0.000003 -0.000025 -0.125812  0.198883  0.000424
  5Cl  7s        -0.000014  0.021902 -0.158908  0.000520 -0.000293  0.445207
  5Cl  6pz        0.000003  0.040182 -0.377032  0.000995 -0.001329  1.114096
  5Cl  6px       -0.037736  0.000007 -0.000075  0.069428  0.043921  0.000142
  5Cl  6py       -0.003563 -0.000002  0.000012  0.043913 -0.069416 -0.000127
  5Cl  1dz2      -0.000005 -0.003666 -0.003187  0.000014 -0.000031  0.019966
  5Cl  1dxz       0.014966 -0.000002 -0.000001  0.007744  0.004899  0.000008
  5Cl  1dyz       0.001413  0.000001  0.000001  0.004900 -0.007746 -0.000019
  5Cl  1dx2y2     0.000040 -0.000000 -0.000000  0.001380  0.000873  0.000000
  5Cl  1dxy      -0.000004 -0.000000 -0.000000 -0.000872  0.001377  0.000003
                     18        19        20        21        22        23   
                   0.13548   0.15067   0.15067   0.21695   0.25049   0.25050
                   0.00000   0.00000   0.00000   0.00000   0.00000   0.00000
                  --------  --------  --------  --------  --------  --------
  0C   1s         0.008124 -0.000001  0.000001  0.017495  0.000004 -0.000001
  0C   2s         0.013770 -0.000001  0.000002  0.028704  0.000006 -0.000001
  0C   1pz       -0.015905 -0.000001 -0.000001  0.003184 -0.000005  0.000018
  0C   1px        0.000005  0.012340 -0.004565 -0.000005 -0.128794  0.004573
  0C   1py       -0.000004  0.004564  0.012347  0.000003 -0.004573 -0.128793
  0C   3s        -0.023862  0.000002 -0.000003 -0.013953 -0.000012  0.000002
  0C   2pz       -0.016253 -0.000000 -0.000003 -0.031426  0.000000  0.000011
  0C   2px        0.000012  0.028296 -0.010465 -0.000000 -0.065293  0.002319
  0C   2py       -0.000007  0.010465  0.028305 -0.000002 -0.002317 -0.065290
  0C   4s        -0.242751  0.000028 -0.000035 -1.019664 -0.000146  0.000018
  0C   3pz       -0.065153  0.000003 -0.000011  0.306448 -0.000094  0.000193
  0C   3px        0.000005  0.049956 -0.018485 -0.000069 -1.537890  0.054597
  0C   3py       -0.000009  0.018478  0.050003  0.000071 -0.054613 -1.537943
  0C   5s         0.010168  0.000115 -0.000094  4.228349 -0.000350  0.000135
  0C   4pz       -0.514250  0.000067 -0.000021 -2.235448  0.000049  0.000039
  0C   4px       -0.000120 -0.879792  0.325335 -0.000363 -0.988417  0.035124
  0C   4py        0.000067 -0.325332 -0.879802  0.000046 -0.035071 -0.988597
  0C   1dz2      -0.026731  0.000002 -0.000002 -0.006278 -0.000002  0.000000
  0C   1dxz      -0.000003 -0.002217  0.000819 -0.000005  0.016454 -0.000586
  0C   1dyz      -0.000003 -0.000820 -0.002216  0.000003  0.000582  0.016455
  0C   1dx2y2    -0.000001 -0.008938  0.003306  0.000001 -0.034514  0.001230
  0C   1dxy      -0.000001  0.003306  0.008936  0.000001  0.001231  0.034514
  1H   1s         0.010802 -0.007718  0.002856  0.006595 -0.049109  0.001745
  1H   2s         0.034870  0.045766 -0.016927  0.110421 -0.084248  0.002995
  1H   3s         0.063815 -0.291175  0.107704 -0.293985 -2.958650  0.105122
  1H   1pz       -0.004847  0.002457 -0.000909 -0.003167 -0.006618  0.000236
  1H   1px       -0.005321  0.002451 -0.000907  0.001586  0.022558 -0.000802
  1H   1py        0.000000 -0.000784 -0.002119 -0.000001 -0.000369 -0.010350
  2H   1s         0.010803  0.001385 -0.008104  0.006592  0.023050 -0.043410
  2H   2s         0.034850 -0.008223  0.048108  0.110435  0.039519 -0.074464
  2H   3s         0.063978  0.052283 -0.305876 -0.293750  1.388482 -2.615222
  2H   1pz       -0.004849 -0.000441  0.002582 -0.003175  0.003107 -0.005850
  2H   1px        0.002660 -0.001710 -0.001616 -0.000792 -0.002629 -0.014174
  2H   1py       -0.004609 -0.001495  0.002039  0.001372 -0.013741  0.014839
  3H   1s        -0.052211  0.000000 -0.000000  0.021095  0.000003  0.000006
  3H   2s        -0.007148  0.000005 -0.000008  0.028986 -0.000009  0.000019
  3H   3s        -0.697478  0.000023 -0.000040  1.536352 -0.000149  0.000189
  3H   1pz        0.017772  0.000001 -0.000002  0.002777  0.000001 -0.000001
  3H   1px        0.000004  0.000326 -0.000121 -0.000001 -0.005139  0.000182
  3H   1py       -0.000002  0.000121  0.000326  0.000001 -0.000183 -0.005142
  4H   1s         0.010800  0.006327  0.005256  0.006595  0.026073  0.041658
  4H   2s         0.034859 -0.037543 -0.031178  0.110424  0.044709  0.071470
  4H   3s         0.063861  0.238767  0.198300 -0.293830  1.570702  2.509839
  4H   1pz       -0.004848 -0.002015 -0.001674 -0.003171  0.003513  0.005613
  4H   1px        0.002661 -0.000246  0.002340 -0.000792 -0.001614  0.014326
  4H   1py        0.004608  0.002463  0.000576 -0.001373  0.014761  0.013824
  5Cl  1s         0.003514 -0.000000  0.000000  0.005515 -0.000000 -0.000000
  5Cl  2s         0.010462 -0.000000  0.000000  0.016743 -0.000001 -0.000001
  5Cl  3s        -0.023165  0.000000 -0.000001 -0.039713  0.000003  0.000001
  5Cl  4s        -0.035947  0.000000 -0.000001 -0.046774  0.000004  0.000001
  5Cl  5s         0.038298 -0.000000 -0.000001  0.004073 -0.000005  0.000002
  5Cl  6s         0.274582 -0.000002  0.000015  0.739593 -0.000029 -0.000035
  5Cl  1pz        0.043014 -0.000010  0.000006 -0.002715  0.000004  0.000002
  5Cl  1px        0.000004  0.076827 -0.028409  0.000003 -0.006152  0.000219
  5Cl  1py        0.000002  0.028409  0.076827 -0.000004 -0.000218 -0.006155
  5Cl  2pz        0.013736 -0.000003  0.000002 -0.000838  0.000001  0.000001
  5Cl  2px        0.000001  0.021913 -0.008103  0.000001 -0.001361  0.000048
  5Cl  2py        0.000000  0.008103  0.021913 -0.000001 -0.000048 -0.001361
  5Cl  3pz       -0.060902  0.000012 -0.000007  0.003013 -0.000004 -0.000002
  5Cl  3px       -0.000007 -0.088518  0.032732 -0.000003  0.004174 -0.000148
  5Cl  3py       -0.000001 -0.032732 -0.088517  0.000004  0.000148  0.004175
  5Cl  4pz        0.049290  0.000000  0.000001  0.006276 -0.000004 -0.000005
  5Cl  4px        0.000011 -0.007686  0.002842 -0.000000  0.016122 -0.000576
  5Cl  4py       -0.000006 -0.002842 -0.007686  0.000001  0.000569  0.016138
  5Cl  5pz       -0.595145  0.000102 -0.000053 -0.270130  0.000011 -0.000060
  5Cl  5px       -0.000069 -0.813944  0.300982 -0.000089 -0.019514  0.000705
  5Cl  5py       -0.000004 -0.300983 -0.813943  0.000063 -0.000683 -0.019566
  5Cl  7s        -0.204723 -0.000070  0.000043 -4.941731  0.000211 -0.000096
  5Cl  6pz        1.521575 -0.000262  0.000151 -2.599365  0.000103 -0.000021
  5Cl  6px        0.000240  1.713507 -0.633626 -0.000356  0.221204 -0.007897
  5Cl  6py       -0.000059  0.633626  1.713514  0.000012  0.007818  0.221399
  5Cl  1dz2      -0.032320  0.000004 -0.000002  0.063680  0.000004  0.000001
  5Cl  1dxz      -0.000011 -0.013973  0.005167  0.000022 -0.014417  0.000515
  5Cl  1dyz       0.000005 -0.005167 -0.013973 -0.000008 -0.000510 -0.014432
  5Cl  1dx2y2    -0.000000 -0.000650  0.000240 -0.000000 -0.008471  0.000301
  5Cl  1dxy      -0.000000  0.000239  0.000645 -0.000000  0.000303  0.008464
                     24        25        26        27        28        29   
                   0.30135   0.34471   0.49338   0.49338   0.50515   0.56485
                   0.00000   0.00000   0.00000   0.00000   0.00000   0.00000
                  --------  --------  --------  --------  --------  --------
  0C   1s         0.048491 -0.026811  0.000002 -0.000000 -0.000945  0.001838
  0C   2s         0.079458 -0.045263  0.000002 -0.000002 -0.003322  0.003479
  0C   1pz       -0.061049 -0.132393 -0.000040 -0.000035 -0.057602  0.008195
  0C   1px        0.000015  0.000006  0.008257  0.059602 -0.000057  0.000008
  0C   1py       -0.000009 -0.000023 -0.059606  0.008259  0.000051 -0.000003
  0C   3s        -0.093777  0.083285 -0.000063 -0.000039 -0.032309 -0.110135
  0C   2pz       -0.062112 -0.139023 -0.000106 -0.000081 -0.166082 -0.125129
  0C   2px        0.000008  0.000005  0.005823  0.042022 -0.000033  0.000003
  0C   2py       -0.000005 -0.000019 -0.042024  0.005820  0.000023 -0.000006
  0C   4s        -2.911616  1.294513  0.001110  0.000898  0.995675  0.577533
  0C   3pz       -0.567981 -1.471165 -0.000218 -0.000214 -0.085837  0.682485
  0C   3px        0.000171 -0.000083 -0.184123 -1.329206  0.001428 -0.000185
  0C   3py       -0.000105 -0.000150  1.329167 -0.184171 -0.001433  0.000145
  0C   5s        -6.313563  0.488006 -0.001668 -0.001154 -1.459529  0.779774
  0C   4pz        1.570008  0.222907 -0.000372 -0.000318 -0.436639 -0.545773
  0C   4px        0.000334  0.000127  0.149979  1.082521 -0.000971  0.000087
  0C   4py       -0.000039 -0.000179 -1.082537  0.149971  0.000981 -0.000106
  0C   1dz2      -0.021587 -0.035967  0.000013  0.000010  0.014373  0.034797
  0C   1dxz       0.000003  0.000003 -0.000472 -0.003392  0.000016  0.000003
  0C   1dyz      -0.000004 -0.000011  0.003394 -0.000468 -0.000011  0.000003
  0C   1dx2y2     0.000004  0.000006  0.006092  0.043934 -0.000046 -0.000001
  0C   1dxy       0.000002  0.000006  0.043933 -0.006094 -0.000041 -0.000001
  1H   1s         0.048150  0.026964 -0.006437 -0.046345 -0.012918 -0.030139
  1H   2s        -0.013744  0.137508 -0.192366 -1.384448 -0.486817 -0.436057
  1H   3s         2.772276  0.067933  0.211397  1.516609  1.209104 -0.018746
  1H   1pz       -0.002875 -0.003183  0.000964  0.006851  0.012701 -0.001954
  1H   1px       -0.005502 -0.001126 -0.012184 -0.087788 -0.017383 -0.010134
  1H   1py       -0.000001 -0.000003  0.015226 -0.002106 -0.000019  0.000006
  2H   1s         0.048145  0.026965  0.043323  0.017601 -0.013023 -0.030114
  2H   2s        -0.013737  0.137664  1.293981  0.525541 -0.490208 -0.435647
  2H   3s         2.771645  0.067471 -1.416374 -0.574999  1.212479 -0.019159
  2H   1pz       -0.002869 -0.003179 -0.006387 -0.002589  0.012747 -0.001944
  2H   1px        0.002749  0.000557 -0.036021 -0.029001  0.008806  0.005052
  2H   1py       -0.004760 -0.000963  0.073974  0.021750 -0.015236 -0.008759
  3H   1s        -0.009739 -0.128080  0.000065  0.000055  0.043726  0.005162
  3H   2s        -0.155091 -0.645198  0.001560  0.001181  1.303476 -0.810155
  3H   3s         0.365158 -4.038757 -0.006046 -0.004880 -5.636360  1.345429
  3H   1pz        0.002896  0.016124  0.000009  0.000002  0.013121  0.042894
  3H   1px       -0.000005 -0.000004 -0.002904 -0.020965  0.000011  0.000014
  3H   1py        0.000002  0.000007  0.020972 -0.002906 -0.000006 -0.000006
  4H   1s         0.048147  0.026960 -0.036930  0.028723 -0.012943 -0.030128
  4H   2s        -0.013737  0.137532 -1.103275  0.857799 -0.487723 -0.435873
  4H   3s         2.771903  0.067975  1.208908 -0.938797  1.209889 -0.018890
  4H   1pz       -0.002872 -0.003186  0.005463 -0.004226  0.012720 -0.001951
  4H   1px        0.002751  0.000566  0.026804 -0.037713  0.008749  0.005054
  4H   1py        0.004761  0.000972  0.065303 -0.041052  0.015094  0.008771
  5Cl  1s        -0.002319  0.011081  0.000003  0.000002  0.004595  0.002022
  5Cl  2s        -0.007044  0.033230  0.000008  0.000006  0.013792  0.006377
  5Cl  3s         0.016759 -0.075631 -0.000020 -0.000016 -0.031463 -0.017152
  5Cl  4s         0.019755 -0.108586 -0.000018 -0.000015 -0.046044 -0.009641
  5Cl  5s        -0.000421  0.065026 -0.000024 -0.000019  0.040047 -0.047026
  5Cl  6s        -0.408672  1.323502  0.000974  0.000795  0.935955  0.194603
  5Cl  1pz       -0.007349 -0.089522  0.000055  0.000050  0.041344  0.135692
  5Cl  1px       -0.000006 -0.000029 -0.010018 -0.072304  0.000072  0.000013
  5Cl  1py        0.000002  0.000020  0.072310 -0.010017 -0.000067 -0.000003
  5Cl  2pz       -0.002029 -0.022300  0.000010  0.000010  0.006048  0.022648
  5Cl  2px       -0.000001 -0.000007 -0.001828 -0.013193  0.000013  0.000002
  5Cl  2py        0.000000  0.000004  0.013194 -0.001828 -0.000012 -0.000000
  5Cl  3pz        0.007988  0.080931 -0.000023 -0.000023 -0.002152 -0.036589
  5Cl  3px        0.000002  0.000022  0.004076  0.029427 -0.000025 -0.000001
  5Cl  3py       -0.000001 -0.000014 -0.029426  0.004077  0.000025 -0.000001
  5Cl  4pz       -0.001787  0.122928 -0.000213 -0.000183 -0.244706 -0.803369
  5Cl  4px        0.000021  0.000061  0.044735  0.322822 -0.000344 -0.000099
  5Cl  4py       -0.000011 -0.000052 -0.322868  0.044720  0.000310  0.000026
  5Cl  5pz        0.150555  1.851829  0.001184  0.000963  1.434350  1.917322
  5Cl  5px       -0.000024  0.000347 -0.067934 -0.490177  0.000757  0.000283
  5Cl  5py        0.000023 -0.000121  0.490276 -0.067899 -0.000572 -0.000087
  5Cl  7s         2.916917  0.883586  0.002161  0.001732  1.961595 -1.283207
  5Cl  6pz        1.165786 -0.580177  0.000777  0.000621  0.506397 -1.753859
  5Cl  6px        0.000257 -0.000047  0.016293  0.117532  0.000015 -0.000313
  5Cl  6py       -0.000060 -0.000013 -0.117573  0.016279  0.000037  0.000104
  5Cl  1dz2      -0.016801 -0.121525  0.000090  0.000085  0.032192 -0.119128
  5Cl  1dxz      -0.000015 -0.000061 -0.007788 -0.056229  0.000051 -0.000049
  5Cl  1dyz       0.000006  0.000037  0.056223 -0.007791 -0.000045  0.000021
  5Cl  1dx2y2     0.000003  0.000001  0.000803  0.005783 -0.000004  0.000000
  5Cl  1dxy       0.000002  0.000001  0.005798 -0.000804 -0.000005  0.000001
                     30        31        32        33        34        35   
                   0.62980   0.62980   0.67918   0.78240   0.78241   0.86453
                   0.00000   0.00000   0.00000   0.00000   0.00000   0.00000
                  --------  --------  --------  --------  --------  --------
  0C   1s        -0.000000  0.000001  0.027564  0.000007 -0.000002 -0.066211
  0C   2s        -0.000001  0.000002  0.055071  0.000012 -0.000005 -0.132232
  0C   1pz        0.000002  0.000012  0.170728 -0.000027  0.000023  0.142554
  0C   1px       -0.008742 -0.001937 -0.000004 -0.242076 -0.049349 -0.000036
  0C   1py       -0.001938  0.008748  0.000010  0.049349 -0.242075  0.000034
  0C   3s         0.000008 -0.000017 -0.243568 -0.000026  0.000012  0.668260
  0C   2pz       -0.000004  0.000025  0.608662 -0.000134  0.000110  0.729524
  0C   2px        0.002733  0.000601 -0.000021 -1.027933 -0.209554 -0.000160
  0C   2py        0.000604 -0.002704  0.000032  0.209550 -1.027937  0.000158
  0C   4s        -0.000053 -0.000011  0.063450 -0.000252  0.000044 -0.202804
  0C   3pz        0.000106  0.000080 -1.584356  0.000363 -0.000202 -2.207768
  0C   3px        0.561615  0.124424  0.000200  1.599766  0.326121  0.000248
  0C   3py        0.124414 -0.561743 -0.000182 -0.326128  1.599772 -0.000455
  0C   5s         0.000184  0.000185 -0.380891  0.000278 -0.000124 -3.651946
  0C   4pz       -0.000023 -0.000042  0.645663 -0.000048  0.000003  0.980690
  0C   4px       -0.598397 -0.132558  0.000011  0.374321  0.076299  0.000212
  0C   4py       -0.132550  0.598417 -0.000003 -0.076339  0.374428 -0.000031
  0C   1dz2      -0.000002  0.000008  0.033183 -0.000003 -0.000006  0.044176
  0C   1dxz       0.031634  0.007007  0.000026  0.046196  0.009412  0.000014
  0C   1dyz       0.007007 -0.031630 -0.000007 -0.009423  0.046200 -0.000031
  0C   1dx2y2    -0.002663 -0.000588 -0.000000 -0.062958 -0.012828  0.000009
  0C   1dxy       0.000592 -0.002664 -0.000000 -0.012822  0.062959  0.000012
  1H   1s         0.014440  0.003199  0.030740 -0.074552 -0.015199 -0.070572
  1H   2s         0.540094  0.119682  0.505074 -0.764660 -0.155945 -0.978036
  1H   3s        -0.571253 -0.126641  0.142830  2.214346  0.451418  2.247449
  1H   1pz       -0.018738 -0.004150  0.024470 -0.026833 -0.005463  0.009567
  1H   1px        0.030625  0.006785  0.007466  0.038828  0.007911  0.059129
  1H   1py        0.005626 -0.025402 -0.000004  0.011297 -0.055449 -0.000023
  2H   1s        -0.004455 -0.014117  0.030744  0.050447 -0.056978 -0.070568
  2H   2s        -0.166411 -0.527603  0.504870  0.517568 -0.584513 -0.977908
  2H   3s         0.175910  0.557792  0.142814 -1.498385  1.692396  2.246724
  2H   1pz        0.005767  0.018288  0.024504  0.018147 -0.020501  0.009590
  2H   1px        0.026208  0.008177 -0.003722 -0.023560 -0.047320 -0.029561
  2H   1py        0.004237 -0.029820  0.006462 -0.043933  0.006941  0.051203
  3H   1s        -0.000007 -0.000000  0.123837 -0.000006 -0.000001 -0.005782
  3H   2s        -0.000013 -0.000051  0.591194  0.000075 -0.000056 -0.344893
  3H   3s         0.000382  0.000355 -3.323813  0.000501 -0.000019 -2.973317
  3H   1pz       -0.000002 -0.000011 -0.092434  0.000013  0.000010 -0.018185
  3H   1px        0.007744  0.001716 -0.000021 -0.031970 -0.006518 -0.000063
  3H   1py        0.001717 -0.007756  0.000003  0.006517 -0.031972  0.000076
  4H   1s        -0.009998  0.010909  0.030743  0.024127  0.072165 -0.070570
  4H   2s        -0.373676  0.407940  0.504958  0.247582  0.740263 -0.977893
  4H   3s         0.395081 -0.431419  0.142789 -0.716592 -2.143557  2.247096
  4H   1pz        0.012956 -0.014142  0.024486  0.008670  0.025967  0.009555
  4H   1px        0.027210  0.003654 -0.003721 -0.040196  0.034325 -0.029550
  4H   1py        0.008755 -0.028822 -0.006464  0.037717  0.023577 -0.051214
  5Cl  1s        -0.000000 -0.000000  0.000605  0.000000 -0.000000  0.000758
  5Cl  2s        -0.000000 -0.000001  0.001637  0.000001 -0.000001  0.002628
  5Cl  3s         0.000001  0.000001 -0.002242 -0.000001  0.000002 -0.008960
  5Cl  4s         0.000000  0.000002 -0.012338 -0.000005  0.000009  0.004115
  5Cl  5s         0.000006 -0.000001  0.033544  0.000028 -0.000033 -0.087882
  5Cl  6s        -0.000070 -0.000055  0.376372 -0.000123  0.000050  0.680091
  5Cl  1pz        0.000024  0.000018  0.155686 -0.000003 -0.000002 -0.025966
  5Cl  1px       -0.181208 -0.040139  0.000030 -0.000779 -0.000160 -0.000007
  5Cl  1py       -0.040140  0.181206 -0.000015  0.000157 -0.000774  0.000000
  5Cl  2pz        0.000003  0.000002  0.028838 -0.000002  0.000000 -0.001982
  5Cl  2px       -0.027971 -0.006196  0.000006  0.000523  0.000106 -0.000001
  5Cl  2py       -0.006196  0.027971 -0.000003 -0.000107  0.000524  0.000000
  5Cl  3pz       -0.000000 -0.000001 -0.066858  0.000011 -0.000004 -0.013404
  5Cl  3px        0.034639  0.007673 -0.000014 -0.005005 -0.001019  0.000004
  5Cl  3py        0.007673 -0.034640  0.000005  0.001022 -0.005008 -0.000004
  5Cl  4pz       -0.000165 -0.000116 -0.719808 -0.000038  0.000031  0.281667
  5Cl  4px        1.085943  0.240546 -0.000130  0.031683  0.006460  0.000024
  5Cl  4py        0.240549 -1.085931  0.000077 -0.006454  0.031664  0.000024
  5Cl  5pz        0.000247  0.000153  1.722673 -0.000027 -0.000033  0.254816
  5Cl  5px       -2.156083 -0.477592  0.000318 -0.078946 -0.016094  0.000183
  5Cl  5py       -0.477599  2.156066 -0.000191  0.016087 -0.078911 -0.000188
  5Cl  7s        -0.000221 -0.000204  1.626004 -0.000200  0.000013  2.212537
  5Cl  6pz       -0.000269 -0.000201 -0.039393 -0.000090  0.000023  0.940539
  5Cl  6px        1.306528  0.289409  0.000046 -0.019911 -0.004045  0.000139
  5Cl  6py        0.289411 -1.306522  0.000015  0.004089 -0.019991  0.000008
  5Cl  1dz2      -0.000014 -0.000005  0.151290 -0.000034 -0.000001 -0.019460
  5Cl  1dxz       0.038231  0.008469  0.000045  0.039315  0.008007 -0.000146
  5Cl  1dyz       0.008469 -0.038237 -0.000003 -0.008028  0.039343  0.000149
  5Cl  1dx2y2    -0.003048 -0.000677  0.000001  0.021489  0.004379  0.000011
  5Cl  1dxy       0.000677 -0.003060  0.000000  0.004373 -0.021473  0.000007
                     36        37        38        39        40        41   
                   1.02795   1.03544   1.03545   1.15220   1.16502   1.16502
                   0.00000   0.00000   0.00000   0.00000   0.00000   0.00000
                  --------  --------  --------  --------  --------  --------
  0C   1s        -0.069592  0.000110  0.000239 -0.062861 -0.000002  0.000003
  0C   2s        -0.158371  0.000254  0.000548 -0.137810 -0.000003  0.000007
  0C   1pz       -0.003266  0.000033  0.000038 -0.077071 -0.000001  0.000002
  0C   1px        0.000022  0.007319 -0.000286  0.000006  0.000370  0.007322
  0C   1py       -0.000033 -0.000288 -0.007324 -0.000014  0.007323 -0.000372
  0C   3s         1.702118 -0.002884 -0.006087  1.296396  0.000029 -0.000066
  0C   2pz       -0.201473  0.000447  0.000831 -0.360325 -0.000005  0.000008
  0C   2px        0.000160  0.058278 -0.002283  0.000018  0.000880  0.017496
  0C   2py       -0.000260 -0.002291 -0.058317 -0.000049  0.017502 -0.000893
  0C   4s        -5.903868  0.010301  0.021459 -4.347778 -0.000091  0.000208
  0C   3pz        0.986300 -0.002191 -0.004016  1.306418  0.000014 -0.000029
  0C   3px       -0.000441 -0.287851  0.011285  0.000059 -0.002658 -0.052530
  0C   3py        0.001288  0.011300  0.287932  0.000130 -0.052528  0.002665
  0C   5s         0.356819 -0.002068 -0.002827 -1.542783 -0.000057  0.000141
  0C   4pz       -0.436274  0.001239  0.002111  0.423111  0.000016 -0.000037
  0C   4px       -0.000029  0.051424 -0.002023 -0.000017 -0.002043 -0.040333
  0C   4py       -0.000172 -0.002010 -0.051382  0.000071 -0.040327  0.002044
  0C   1dz2       0.159313 -0.000265 -0.000611  0.022578  0.000003 -0.000001
  0C   1dxz      -0.000267 -0.194402  0.007631  0.000187 -0.000672 -0.013362
  0C   1dyz       0.000763  0.007619  0.194388 -0.000104 -0.013376  0.000683
  0C   1dx2y2    -0.000162 -0.103774  0.004042  0.000058  0.000266  0.005107
  0C   1dxy      -0.000403 -0.004068 -0.103778  0.000034 -0.005091  0.000249
  1H   1s        -0.008771 -0.010436  0.000418 -0.004833  0.000365  0.007173
  1H   2s         0.853193 -0.104436  0.000680  0.340358  0.000837  0.016596
  1H   3s         0.642105 -0.019644 -0.001014  0.604396 -0.005757 -0.114413
  1H   1pz        0.006616  0.119354 -0.004732 -0.047624  0.000397  0.007931
  1H   1px        0.126508  0.016308 -0.001083  0.087760 -0.000097 -0.001911
  1H   1py        0.000465  0.004752  0.121126 -0.000049 -0.003509  0.000184
  2H   1s        -0.008699  0.005568  0.008842 -0.004821  0.006023 -0.003896
  2H   2s         0.853691  0.053151  0.083593  0.340268  0.013967 -0.009039
  2H   3s         0.642418  0.009700  0.014551  0.604585 -0.096086  0.062118
  2H   1pz        0.005993 -0.063750 -0.101076 -0.047347  0.006677 -0.004314
  2H   1px       -0.063131 -0.084280  0.063226 -0.043867 -0.000850 -0.003059
  2H   1py        0.109521 -0.059078  0.019831  0.076061 -0.002335 -0.000575
  3H   1s         0.039736 -0.000090 -0.000185 -0.113255 -0.000002  0.000004
  3H   2s         0.559705 -0.001001 -0.002072  0.048581  0.000001 -0.000002
  3H   3s         2.413946 -0.004867 -0.009183  4.056627  0.000047 -0.000128
  3H   1pz        0.241609 -0.000561 -0.000986 -0.153518 -0.000003  0.000005
  3H   1px        0.000714  0.392092 -0.015380 -0.000155  0.000238  0.004696
  3H   1py       -0.001545 -0.015380 -0.392075  0.000149  0.004699 -0.000238
  4H   1s        -0.008772  0.004861 -0.009234 -0.004827 -0.006390 -0.003272
  4H   2s         0.852960  0.046190 -0.094320  0.340313 -0.014796 -0.007573
  4H   3s         0.642225  0.008368 -0.018781  0.604472  0.101933  0.052093
  4H   1pz        0.006802 -0.055657  0.105648 -0.047459 -0.007075 -0.003611
  4H   1px       -0.063604 -0.088943 -0.055988 -0.043828  0.000541 -0.003136
  4H   1py       -0.109372  0.060481  0.015947 -0.076066 -0.002276  0.000809
  5Cl  1s        -0.016039  0.000037  0.000070  0.017209  0.000000 -0.000001
  5Cl  2s        -0.044216  0.000101  0.000194  0.046199  0.000000 -0.000002
  5Cl  3s         0.068143 -0.000154 -0.000296 -0.059600 -0.000001  0.000002
  5Cl  4s         0.309595 -0.000717 -0.001370 -0.381369 -0.000004  0.000015
  5Cl  5s        -1.062064  0.002488  0.004750  1.534714  0.000016 -0.000059
  5Cl  6s         0.674561 -0.001824 -0.003439 -2.734013 -0.000032  0.000102
  5Cl  1pz        0.047872 -0.000097 -0.000195 -0.018723 -0.000000  0.000001
  5Cl  1px        0.000028  0.007792 -0.000305  0.000003 -0.000040 -0.000800
  5Cl  1py       -0.000033 -0.000307 -0.007797  0.000003 -0.000800  0.000041
  5Cl  2pz        0.012267 -0.000026 -0.000052 -0.014358 -0.000000  0.000001
  5Cl  2px        0.000007  0.001331 -0.000052 -0.000001 -0.000010 -0.000208
  5Cl  2py       -0.000007 -0.000052 -0.001332  0.000001 -0.000208  0.000011
  5Cl  3pz       -0.055995  0.000125  0.000247  0.108748  0.000002 -0.000005
  5Cl  3px       -0.000034 -0.007283  0.000285  0.000011  0.000045  0.000899
  5Cl  3py        0.000038  0.000287  0.007287 -0.000006  0.000899 -0.000046
  5Cl  4pz       -0.185168  0.000313  0.000652 -0.370241 -0.000006  0.000013
  5Cl  4px       -0.000002  0.007607 -0.000301 -0.000078  0.000112  0.002212
  5Cl  4py       -0.000059 -0.000295 -0.007588  0.000007  0.002213 -0.000112
  5Cl  5pz        0.035891  0.000032 -0.000141 -0.486784 -0.000003  0.000015
  5Cl  5px       -0.000345 -0.142363  0.005591 -0.000105 -0.000339 -0.006722
  5Cl  5py        0.000706  0.005576  0.142319  0.000096 -0.006727  0.000342
  5Cl  7s        -1.493882  0.003797  0.006710  0.444110  0.000022 -0.000062
  5Cl  6pz       -0.691711  0.001652  0.003020  0.185987  0.000008 -0.000026
  5Cl  6px        0.000082  0.071291 -0.002797  0.000023  0.000550  0.010917
  5Cl  6py       -0.000318 -0.002796 -0.071286  0.000009  0.010922 -0.000556
  5Cl  1dz2      -0.194891  0.000140  0.000723  0.552696  0.000008 -0.000018
  5Cl  1dxz       0.001352  0.761496 -0.029876  0.000234 -0.000571 -0.009675
  5Cl  1dyz      -0.002982 -0.029865 -0.761512  0.000096 -0.009278  0.000390
  5Cl  1dx2y2     0.000002 -0.001806  0.000003  0.000047  0.050427  0.998206
  5Cl  1dxy      -0.000005 -0.000151 -0.002127  0.000020 -0.998210  0.050429
                     42        43        44        45        46        47   
                   1.20007   1.20007   1.41756   1.64473   1.66642   1.66642
                   0.00000   0.00000   0.00000   0.00000   0.00000   0.00000
                  --------  --------  --------  --------  --------  --------
  0C   1s         0.000032 -0.000001 -0.001077 -0.000000 -0.000001 -0.000000
  0C   2s         0.000073 -0.000002  0.005054  0.000000 -0.000001  0.000001
  0C   1pz        0.000033 -0.000007 -0.062927  0.000000  0.000005 -0.000005
  0C   1px        0.017764 -0.005134 -0.000012  0.000004 -0.008519  0.050245
  0C   1py       -0.005138 -0.017767  0.000005 -0.000014 -0.050238 -0.008515
  0C   3s        -0.000791 -0.000009 -0.372418 -0.000000 -0.000020 -0.000084
  0C   2pz        0.000185 -0.000031 -0.044923 -0.000000 -0.000005  0.000004
  0C   2px        0.045063 -0.013023 -0.000066  0.000004 -0.008812  0.051956
  0C   2py       -0.013035 -0.045069  0.000042 -0.000005 -0.051966 -0.008805
  0C   4s         0.002843  0.000142  2.928947  0.000000  0.000272  0.000766
  0C   3pz       -0.000705 -0.000006 -0.778716 -0.000000  0.000038 -0.000208
  0C   3px       -0.160809  0.046481 -0.000029  0.000066 -0.131155  0.773696
  0C   3py        0.046515  0.160850 -0.000176 -0.000201 -0.773674 -0.131153
  0C   5s         0.000726  0.000245  0.719502  0.000000 -0.000020  0.000038
  0C   4pz       -0.000194 -0.000111 -0.462396 -0.000000 -0.000077 -0.000121
  0C   4px       -0.073113  0.021128  0.000022 -0.000022  0.042783 -0.252372
  0C   4py        0.021157  0.073146 -0.000069  0.000062  0.252339  0.042775
  0C   1dz2      -0.000049  0.000050 -0.332615 -0.000000 -0.000116 -0.000167
  0C   1dxz       0.441783 -0.127737 -0.000053  0.000014 -0.025071  0.148085
  0C   1dyz      -0.127715 -0.441792  0.000073 -0.000040 -0.148062 -0.025132
  0C   1dx2y2     0.138161 -0.039888  0.000050 -0.000037  0.070262 -0.414819
  0C   1dxy       0.039958  0.138171  0.000003 -0.000103 -0.414788 -0.070243
  1H   1s        -0.014952  0.004323  0.028476 -0.000007  0.013555 -0.079884
  1H   2s         0.022503 -0.006622 -0.608656  0.000075 -0.146432  0.863129
  1H   3s        -0.171868  0.049500  0.118843 -0.000026  0.049465 -0.291261
  1H   1pz       -0.329355  0.095215 -0.025660  0.000016  0.069247 -0.408923
  1H   1px       -0.057459  0.016589 -0.024757 -0.000045  0.035323 -0.208314
  1H   1py       -0.044597 -0.154214 -0.000008 -0.595955  0.399866  0.067787
  2H   1s         0.011203  0.010779  0.028434  0.000018  0.062444  0.051707
  2H   2s        -0.017527 -0.016525 -0.608460 -0.000222 -0.674606 -0.558595
  2H   3s         0.128390  0.123785  0.118618  0.000071  0.227695  0.188599
  2H   1pz        0.247107  0.237634 -0.025901  0.000073  0.319450  0.264458
  2H   1px        0.074841 -0.120935  0.012436  0.516203  0.142426 -0.337902
[...]
The origin for moment calculation is the CENTER OF MASS  = (-0.000239, -0.000049 -0.014521)

-------------
DIPOLE MOMENT
-------------
                                X             Y             Z
Electronic contribution:     -0.00061      -0.00012      -6.57385
Nuclear contribution   :      0.00073       0.00015       7.82049
                        -----------------------------------------
Total Dipole Moment    :      0.00012       0.00002       1.24663
                        -----------------------------------------
Magnitude (a.u.)       :      1.24663
Magnitude (Debye)      :      3.16869



--------------------
Rotational spectrum 
--------------------
 
Rotational constants in cm-1:     4.938558     0.189941     0.189941 
Rotational constants in MHz : 148054.257737  5694.297813  5694.297806 

 Dipole components along the rotational axes: 
x,y,z [a.u.] :     1.246635    -0.000000     0.000000 
x,y,z [Debye]:     3.168694    -0.000001     0.000000 

 

                           *** MP2 RELAXED DENSITY ***

------------------------------------------------------------------------------
                       ORCA ELECTRIC PROPERTIES CALCULATION
------------------------------------------------------------------------------

Dipole Moment Calculation                       ... on
Quadrupole Moment Calculation                   ... off
Polarizability Calculation                      ... off
GBWName                                         ... H3CHCl‡.gbw
Electron density file                           ... H3CHCl‡.pmp2re
The origin for moment calculation is the CENTER OF MASS  = (-0.000239, -0.000049 -0.014521)

-------------
DIPOLE MOMENT
-------------
                                X             Y             Z
Electronic contribution:     -0.00062      -0.00013      -6.67005
Nuclear contribution   :      0.00073       0.00015       7.82049
                        -----------------------------------------
Total Dipole Moment    :      0.00011       0.00002       1.15044
                        -----------------------------------------
Magnitude (a.u.)       :      1.15044
Magnitude (Debye)      :      2.92417



--------------------
Rotational spectrum 
--------------------
 
Rotational constants in cm-1:     4.938558     0.189941     0.189941 
Rotational constants in MHz : 148054.257737  5694.297813  5694.297806 

 Dipole components along the rotational axes: 
x,y,z [a.u.] :     1.150435    -0.000000     0.000000 
x,y,z [Debye]:     2.924174    -0.000001     0.000000 

 
------------------------------------------------------------------------------
                         ORCA MP2 H E S S I A N CALCULATION
------------------------------------------------------------------------------

Calculating analytic MP2 second derivatives ... (>H3CHCl‡.last_mp2) done

-----------------------
VIBRATIONAL FREQUENCIES
-----------------------

Scaling factor for frequencies =  1.000000000  (already applied!)

   0:         0.00 cm**-1
   1:         0.00 cm**-1
   2:         0.00 cm**-1
   3:         0.00 cm**-1
   4:         0.00 cm**-1
   5:         0.00 cm**-1
   6:     -1250.58 cm**-1 ***imaginary mode***
   7:       345.29 cm**-1
   8:       345.30 cm**-1
   9:       526.48 cm**-1
  10:       942.41 cm**-1
  11:       942.41 cm**-1
  12:      1224.56 cm**-1
  13:      1449.01 cm**-1
  14:      1449.02 cm**-1
  15:      3134.01 cm**-1
  16:      3304.69 cm**-1
  17:      3304.71 cm**-1


------------
NORMAL MODES
------------

These modes are the Cartesian displacements weighted by the diagonal matrix
M(i,i)=1/sqrt(m[i]) where m[i] is the mass of the displaced atom
Thus, these vectors are normalized but *not* orthogonal

                  0          1          2          3          4          5    
      0       0.000000   0.000000   0.000000   0.000000   0.000000   0.000000
      1       0.000000   0.000000   0.000000   0.000000   0.000000   0.000000
      2       0.000000   0.000000   0.000000   0.000000   0.000000   0.000000
      3       0.000000   0.000000   0.000000   0.000000   0.000000   0.000000
      4       0.000000   0.000000   0.000000   0.000000   0.000000   0.000000
      5       0.000000   0.000000   0.000000   0.000000   0.000000   0.000000
      6       0.000000   0.000000   0.000000   0.000000   0.000000   0.000000
      7       0.000000   0.000000   0.000000   0.000000   0.000000   0.000000
      8       0.000000   0.000000   0.000000   0.000000   0.000000   0.000000
      9       0.000000   0.000000   0.000000   0.000000   0.000000   0.000000
     10       0.000000   0.000000   0.000000   0.000000   0.000000   0.000000
     11       0.000000   0.000000   0.000000   0.000000   0.000000   0.000000
     12       0.000000   0.000000   0.000000   0.000000   0.000000   0.000000
     13       0.000000   0.000000   0.000000   0.000000   0.000000   0.000000
     14       0.000000   0.000000   0.000000   0.000000   0.000000   0.000000
     15       0.000000   0.000000   0.000000   0.000000   0.000000   0.000000
     16       0.000000   0.000000   0.000000   0.000000   0.000000   0.000000
     17       0.000000   0.000000   0.000000   0.000000   0.000000   0.000000
                  6          7          8          9         10         11    
      0       0.000010  -0.001467  -0.032497  -0.000030  -0.009197  -0.068576
      1       0.000003  -0.032498   0.001467  -0.000005   0.068574  -0.009197
      2       0.128905   0.000000  -0.000001  -0.307973   0.000000   0.000008
      3      -0.035726   0.004385   0.097141  -0.031994   0.004749   0.035422
      4      -0.000001   0.110305  -0.004966  -0.000009  -0.053402   0.007173
      5      -0.114311   0.028588   0.634217  -0.503393   0.062620   0.466733
      6       0.017858   0.010605   0.106707   0.015928  -0.001281   0.049940
      7      -0.030928   0.100655   0.001188  -0.027674  -0.038853   0.013153
      8      -0.114321   0.534962  -0.341888  -0.503380  -0.435511  -0.179144
      9      -0.000093  -0.027109  -0.600657  -0.000006   0.107684   0.802926
     10      -0.000018  -0.600647   0.027109  -0.000006  -0.802932   0.107686
     11      -0.969696   0.000013   0.000058  -0.342428   0.000008  -0.000070
     12       0.017862  -0.000951   0.107226   0.015931   0.014396   0.047836
     13       0.030921   0.100117  -0.010262   0.027652  -0.040931  -0.002464
     14      -0.114321  -0.563562  -0.292365  -0.503375   0.372888  -0.287603
     15      -0.000000   0.000868   0.019243   0.000014  -0.000454  -0.003383
     16      -0.000000   0.019243  -0.000868   0.000003   0.003384  -0.000454
     17      -0.006350  -0.000000  -0.000000   0.157010  -0.000000  -0.000000
                 12         13         14         15         16         17    
      0      -0.000016  -0.084653  -0.000061   0.000003   0.098020   0.000496
      1      -0.000003   0.000061  -0.084653  -0.000001   0.000496  -0.098020
      2      -0.143517   0.000011   0.000002  -0.026018  -0.000007   0.000002
      3       0.122189  -0.103755  -0.000030  -0.567660  -0.795579  -0.004062
      4       0.000005  -0.000530   0.789812   0.000031   0.000112  -0.013336
      5       0.501935  -0.164884  -0.000127   0.104163   0.164365   0.000839
      6      -0.061003   0.566187   0.387298   0.283788  -0.187124  -0.351242
      7       0.105805   0.386817   0.119880  -0.491558   0.347308   0.595194
      8       0.501954   0.082467  -0.142771   0.104083  -0.081420  -0.142689
      9      -0.000031  -0.014366  -0.000010  -0.000005   0.007743   0.000039
     10      -0.000012   0.000010  -0.014349  -0.000000   0.000039  -0.007749
     11      -0.422454   0.000031   0.000000  -0.015396  -0.000003   0.000000
     12      -0.061014   0.566669  -0.386522   0.283838  -0.190736   0.349372
     13      -0.105778  -0.387032   0.119404   0.491535  -0.353351   0.591587
     14       0.501960   0.082290   0.142876   0.104062  -0.082858   0.141825
     15       0.000002  -0.000172  -0.000000   0.000000  -0.000065  -0.000000
     16       0.000000   0.000000  -0.000172   0.000000  -0.000000   0.000065
     17       0.017818  -0.000001   0.000000   0.000373   0.000000  -0.000000


-----------
IR SPECTRUM
-----------

 Mode    freq (cm**-1)   T**2         TX         TY         TZ
-------------------------------------------------------------------
   7:       345.29    1.485935  ( -0.055011  -1.217747   0.000058)
   8:       345.30    1.488811  ( -1.218930   0.054962   0.000115)
   9:       526.48    5.734224  ( -0.000059  -0.000054  -2.394624)
  10:       942.41   12.852431  (  0.476479  -3.553224   0.000053)
  11:       942.41   12.849169  (  3.552756   0.476541  -0.000449)
  12:      1224.56    1.982929  ( -0.000637  -0.000042  -1.408165)
  13:      1449.01    5.400662  (  2.323930  -0.001684   0.002913)
  14:      1449.02    5.419034  (  0.001684   2.327881  -0.000078)
  15:      3134.01    0.008172  (  0.003074   0.000003   0.090348)
  16:      3304.69    0.242185  (  0.492106   0.002470   0.003321)
  17:      3304.71    0.238388  (  0.002487  -0.488244   0.000028)

The first frequency considered to be a vibration is 7
The total number of vibrations considered is 11


--------------------------
THERMOCHEMISTRY AT 298.15K
--------------------------

Temperature         ... 298.15 K
Pressure            ... 1.00 atm
Total Mass          ... 51.50 AMU

Throughout the following assumptions are being made:
  (1) The electronic state is orbitally nondegenerate
      but the spin degeneracy is treated
  (2) There are no thermally accessible electronically excited states
  (3) Hindered rotations indicated by low frequency modes are not
      treated as such but are treated as vibrations and this may
      cause some error
  (4) All equations used are the standard statistical mechanics
      equations for an ideal gas
  (5) All vibrations are strictly harmonic

freq.     345.29  E(vib)   ...       0.23 
freq.     345.30  E(vib)   ...       0.23 
freq.     526.48  E(vib)   ...       0.13 
freq.     942.41  E(vib)   ...       0.03 
freq.     942.41  E(vib)   ...       0.03 
freq.    1224.56  E(vib)   ...       0.01 
freq.    1449.01  E(vib)   ...       0.00 
freq.    1449.02  E(vib)   ...       0.00 
freq.    3134.01  E(vib)   ...       0.00 
freq.    3304.69  E(vib)   ...       0.00 
freq.    3304.71  E(vib)   ...       0.00 

------------
INNER ENERGY
------------

The inner energy is: U= E(el) + E(ZPE) + E(vib) + E(rot) + E(trans)
    E(el)   - is the total energy from the electronic structure calculation
              = E(kin-el) + E(nuc-el) + E(el-el) + E(nuc-nuc)
    E(ZPE)  - the the zero temperature vibrational energy from the frequency calculation
    E(vib)  - the the finite temperature correction to E(ZPE) due to population
              of excited vibrational states
    E(rot)  - is the rotational thermal energy
    E(trans)- is the translational thermal energy

Summary of contributions to the inner energy U:
Electronic energy                ...   -500.01543233 Eh
Zero point energy                ...      0.03865568 Eh      24.26 kcal/mol
Thermal vibrational correction   ...      0.00105762 Eh       0.66 kcal/mol
Thermal rotational correction    ...      0.00141627 Eh       0.89 kcal/mol
Thermal translational correction ...      0.00141627 Eh       0.89 kcal/mol
-----------------------------------------------------------------------
Total thermal energy                   -499.97288649 Eh


Summary of corrections to the electronic energy:
(perhaps to be used in another calculation)
Total thermal correction                  0.00389016 Eh       2.44 kcal/mol
Non-thermal (ZPE) correction              0.03865568 Eh      24.26 kcal/mol
-----------------------------------------------------------------------
Total correction                          0.04254584 Eh      26.70 kcal/mol


--------
ENTHALPY
--------

The enthalpy is H = U + kB*T
                kB is Boltzmann's constant
Total free energy                 ...   -499.97288649 Eh 
Thermal Enthalpy correction       ...      0.00094421 Eh       0.59 kcal/mol
-----------------------------------------------------------------------
Total Enthalpy                    ...   -499.97194228 Eh


Note: Only C1 symmetry has been detected, increase convergence thresholds 
      if your molecule has a higher symmetry. Symmetry factor of 1.0 is   
      used for the rotational entropy correction. 
 

Note: Rotational entropy computed according to Herzberg 
Infrared and Raman Spectra, Chapter V,1, Van Nostrand Reinhold, 1945 
Point Group:  C1, Symmetry Number:   1  
Rotational constants in cm-1:     4.938558     0.189941     0.189941 

Vibrational entropy computed according to the QRRHO of S. Grimme
Chem.Eur.J. 2012 18 9955


-------
ENTROPY
-------

The entropy contributions are T*S = T*(S(el)+S(vib)+S(rot)+S(trans))
     S(el)   - electronic entropy
     S(vib)  - vibrational entropy
     S(rot)  - rotational entropy
     S(trans)- translational entropy
The entropies will be listed as mutliplied by the temperature to get
units of energy

Electronic entropy                ...      0.00065446 Eh      0.41 kcal/mol
Vibrational entropy               ...      0.00155834 Eh      0.98 kcal/mol
Rotational entropy                ...      0.01032517 Eh      6.48 kcal/mol
Translational entropy             ...      0.01793131 Eh     11.25 kcal/mol
-----------------------------------------------------------------------
Final entropy term                ...      0.03046928 Eh     19.12 kcal/mol

In case the symmetry of your molecule has not been determined correctly
or in case you have a reason to use a different symmetry number we print 
out the resulting rotational entropy values for sn=1,12 :
 --------------------------------------------------------
|  sn= 1 | S(rot)=       0.01032517 Eh      6.48 kcal/mol|
|  sn= 2 | S(rot)=       0.00967071 Eh      6.07 kcal/mol|
|  sn= 3 | S(rot)=       0.00928788 Eh      5.83 kcal/mol|
|  sn= 4 | S(rot)=       0.00901626 Eh      5.66 kcal/mol|
|  sn= 5 | S(rot)=       0.00880557 Eh      5.53 kcal/mol|
|  sn= 6 | S(rot)=       0.00863342 Eh      5.42 kcal/mol|
|  sn= 7 | S(rot)=       0.00848788 Eh      5.33 kcal/mol|
|  sn= 8 | S(rot)=       0.00836180 Eh      5.25 kcal/mol|
|  sn= 9 | S(rot)=       0.00825059 Eh      5.18 kcal/mol|
|  sn=10 | S(rot)=       0.00815111 Eh      5.11 kcal/mol|
|  sn=11 | S(rot)=       0.00806112 Eh      5.06 kcal/mol|
|  sn=12 | S(rot)=       0.00797897 Eh      5.01 kcal/mol|
 --------------------------------------------------------


-------------------
GIBBS FREE ENERGY
-------------------

The Gibbs free energy is G = H - T*S

Total enthalpy                    ...   -499.97194228 Eh 
Total entropy correction          ...     -0.03046928 Eh    -19.12 kcal/mol
-----------------------------------------------------------------------
Final Gibbs free energy         ...   -500.00241156 Eh

For completeness - the Gibbs free energy minus the electronic energy
G-E(el)                           ...      0.01302077 Eh      8.17 kcal/mol




------------------------------------------------------------------------------- 
                    Intrinsic Reaction Coordinate Calculation                  
------------------------------------------------------------------------------- 

System:
Nr. of atoms                        .... 6
Algorithm: SD (steepest descent step) plus correction
Settings:
Max. no of cycles        MaxIter    .... 1000
Direction                           .... Forward and backward
Initial displacement Hessian type   .... Read
Hessian Filename                    .... H3CHCl‡.hess
Following Hessian mode              .... 0
Initial displacement type           .... Energy
  Initial displacement energy change.... 0.250 mEh
Coordinate system following type    .... Cartesian
Length of steepest descent step     .... 0.150 bohr
Do parabolic fit 
  if SD step is uphill              .... YES
Do Correction to SD step            .... YES
Scaling for length of correction
  compared to SD step               .... 0.333
Do parabolic fit to SD correction   .... YES
Only interpolate for parabolic fit  .... YES
Do update to length of
  SD step and correction            .... YES
Convergence Tolerances:
  Max. Gradient            TolMAXG  ....  2.0000e-03 Eh/bohr
  RMS Gradient             TolRMSG  ....  5.0000e-04 Eh/bohr
Storing full IRC trajectory in      .... H3CHCl‡_IRC_Full_trj.xyz
Storing forward trajectory in       .... H3CHCl‡_IRC_F_trj.xyz
Storing backward trajectory in      .... H3CHCl‡_IRC_B_trj.xyz


 ...good, the file H3CHCl‡.hess exists
Reading the hessian file           ...... done
Determining length of initial displacement:
  Requested energy change (quadratic behavior): 0.250 mEh
  Resulting scaling factor for initial displacement along normalized TS mode: 0.0842

         *************************************************************
         *                          FORWARD IRC                      *
         *************************************************************

Iteration    E(Eh)      dE(kcal/mol)  max(|G|)   RMS(G) 
Convergence thresholds                0.002000  0.000500            
    0      -500.015623   -0.119909    0.007300  0.001992
    1      -500.016966   -0.962571    0.008155  0.002766
    2      -500.018549   -1.955997    0.007552  0.002530
    3      -500.019971   -2.847995    0.005118  0.002110
    4      -500.021112   -3.564089    0.005936  0.001860
    5      -500.021403   -3.746718    0.005516  0.002243
    6      -500.021504   -3.809854    0.004064  0.001628
    7      -500.021719   -3.944971    0.003539  0.001416
    8      -500.021936   -4.081386    0.003697  0.001338
    9      -500.022138   -4.207852    0.003212  0.001250
   10      -500.022328   -4.327149    0.003362  0.001174
   11      -500.022505   -4.437869    0.002981  0.001100
   12      -500.022670   -4.541864    0.002803  0.001024
   13      -500.022825   -4.639136    0.002774  0.000969
   14      -500.022968   -4.728700    0.002558  0.000902
   15      -500.023102   -4.812762    0.002448  0.000844
   16      -500.023226   -4.890416    0.002300  0.000792
   17      -500.023339   -4.961459    0.002329  0.000751
   18      -500.023442   -5.026303    0.002393  0.000756
   19      -500.023483   -5.051825    0.001618  0.000746
   20      -500.023526   -5.079152    0.001556  0.000622
   21      -500.023575   -5.109563    0.001503  0.000597
   22      -500.023621   -5.138731    0.001411  0.000575
   23      -500.023665   -5.166307    0.001406  0.000551
   24      -500.023708   -5.193119    0.001295  0.000526
   25      -500.023748   -5.217930    0.001411  0.000524
   26      -500.023786   -5.241856    0.001372  0.000489

                      ***********************HURRAY********************
                      ***            THE IRC HAS CONVERGED          ***
                      *************************************************


         *************************************************************
         *                          BACKWARD IRC                     *
         *************************************************************

Iteration    E(Eh)      dE(kcal/mol)  max(|G|)   RMS(G) 
Convergence thresholds                0.002000  0.000500            
    0      -500.015726   -0.184522    0.007668  0.002361
    1      -500.018794   -2.109526    0.019431  0.007070
    2      -500.021537   -3.830470    0.014509  0.004748
    3      -500.023808   -5.256020    0.013605  0.003585
    4      -500.025809   -6.511635    0.011396  0.003081
    5      -500.027508   -7.577692    0.009999  0.002633
    6      -500.028954   -8.484953    0.008347  0.002307
    7      -500.030111   -9.210769    0.007152  0.002304
    8      -500.030352   -9.362015    0.006829  0.001933
    9      -500.030836   -9.665720    0.006154  0.001606
   10      -500.031309   -9.962951    0.005553  0.001457
   11      -500.031730   -10.226614    0.004978  0.001333
   12      -500.032095   -10.456199    0.004456  0.001296
