
                                 *****************
                                 * O   R   C   A *
                                 *****************

           --- An Ab Initio, DFT and Semiempirical electronic structure package ---

                  #######################################################
                  #                        -***-                        #
                  #          Department of theory and spectroscopy      #
                  #               Directorship: Frank Neese             #
                  #        Max Planck Institute fuer Kohlenforschung    #
                  #                Kaiser Wilhelm Platz 1               #
                  #                 D-45470 Muelheim/Ruhr               #
                  #                      Germany                        #
                  #                                                     #
                  #                  All rights reserved                #
                  #                        -***-                        #
                  #######################################################


                         Program Version 4.2.1 -  RELEASE  -


 With contributions from (in alphabetic order):
   Daniel Aravena         : Magnetic Suceptibility
   Michael Atanasov       : Ab Initio Ligand Field Theory (pilot matlab implementation)
   Alexander A. Auer      : GIAO ZORA, VPT2
   Ute Becker             : Parallelization
   Giovanni Bistoni       : ED, misc. LED, open-shell LED, HFLD
   Martin Brehm           : Molecular dynamics
   Dmytro Bykov           : SCF Hessian
   Vijay G. Chilkuri      : MRCI spin determinant printing, contributions to CSF-ICE
   Dipayan Datta          : RHF DLPNO-CCSD density
   Achintya Kumar Dutta   : EOM-CC, STEOM-CC
   Dmitry Ganyushin       : Spin-Orbit,Spin-Spin,Magnetic field MRCI
   Miquel Garcia          : C-PCM Hessian, Gaussian charge scheme
   Yang Guo               : DLPNO-NEVPT2, CIM, IAO-localization
   Andreas Hansen         : Spin unrestricted coupled pair/coupled cluster methods
   Benjamin Helmich-Paris : CASSCF linear response (MC-RPA)
   Lee Huntington         : MR-EOM, pCC
   Robert Izsak           : Overlap fitted RIJCOSX, COSX-SCS-MP3, EOM
   Christian Kollmar      : KDIIS, OOCD, Brueckner-CCSD(T), CCSD density
   Simone Kossmann        : Meta GGA functionals, TD-DFT gradient, OOMP2, MP2 Hessian
   Martin Krupicka        : AUTO-CI
   Lucas Lang             : DCDCAS
   Dagmar Lenk            : GEPOL surface, SMD
   Dimitrios Liakos       : Extrapolation schemes; Compound Job, initial MDCI parallelization
   Dimitrios Manganas     : Further ROCIS development; embedding schemes
   Dimitrios Pantazis     : SARC Basis sets
   Taras Petrenko         : DFT Hessian,TD-DFT gradient, ASA, ECA, R-Raman, ABS, FL, XAS/XES, NRVS
   Peter Pinski           : DLPNO-MP2, DLPNO-MP2 Gradient
   Christoph Reimann      : Effective Core Potentials
   Marius Retegan         : Local ZFS, SOC
   Christoph Riplinger    : Optimizer, TS searches, QM/MM, DLPNO-CCSD(T), (RO)-DLPNO pert. Triples
   Tobias Risthaus        : Range-separated hybrids, TD-DFT gradient, RPA, STAB
   Michael Roemelt        : Original ROCIS implementation
   Masaaki Saitow         : Open-shell DLPNO-CCSD energy and density
   Barbara Sandhoefer     : DKH picture change effects
   Avijit Sen             : IP-ROCIS
   Kantharuban Sivalingam : CASSCF convergence, NEVPT2, FIC-MRCI
   Bernardo de Souza      : ESD, SOC TD-DFT
   Georgi Stoychev        : AutoAux, RI-MP2 NMR
   Willem Van den Heuvel  : Paramagnetic NMR
   Boris Wezisla          : Elementary symmetry handling
   Frank Wennmohs         : Technical directorship


 We gratefully acknowledge several colleagues who have allowed us to
 interface, adapt or use parts of their codes:
   Stefan Grimme, W. Hujo, H. Kruse,             : VdW corrections, initial TS optimization,
                  C. Bannwarth                     DFT functionals, gCP, sTDA/sTD-DF
   Ed Valeev, F. Pavosevic, A. Kumar             : LibInt (2-el integral package), F12 methods
   Garnet Chan, S. Sharma, J. Yang, R. Olivares  : DMRG
   Ulf Ekstrom                                   : XCFun DFT Library
   Mihaly Kallay                                 : mrcc  (arbitrary order and MRCC methods)
   Andreas Klamt, Michael Diedenhofen            : otool_cosmo (COSMO solvation model)
   Jiri Pittner, Ondrej Demel                    : Mk-CCSD
   Frank Weinhold                                : gennbo (NPA and NBO analysis)
   Christopher J. Cramer and Donald G. Truhlar   : smd solvation model
   Lars Goerigk                                  : TD-DFT with DH, B97 family of functionals
   V. Asgeirsson, H. Jonsson                     : NEB implementation
   FAccTs GmbH                                   : IRC, NEB, NEB-TS, Multilevel, MM, QM/MM, CI optimization
   S Lehtola, MJT Oliveira, MAL Marques          : LibXC Library


 Your calculation uses the libint2 library for the computation of 2-el integrals
 For citations please refer to: http://libint.valeyev.net

 Your ORCA version has been built with support for libXC version: 4.2.3
 For citations please refer to: https://tddft.org/programs/libxc/

 This ORCA versions uses:
   CBLAS   interface :  Fast vector & matrix operations
   LAPACKE interface :  Fast linear algebra routines
   SCALAPACK package :  Parallel linear algebra routines


----- Orbital basis set information -----
Your calculation utilizes the basis: 6-311+G(d,p)
   H, Li - Ne  : R. Krishnan, J. S. Binkley, R. Seeger and J. A. Pople, J. Chem. Phys. 72, 650 (1980).
   Na - Ar     : A. D. McLean and G. S. Chandler J. Chem. Phys. 72, 5639, (1980).
   K  - Ca     : J.-P. Blaudeau, M. P. McGrath, L. A. Curtiss and L. Radom, J. Chem. Phys. 107, 5016 (1997).
   Ga - Kr     : L. A. Curtiss, M. P. McGrath, J.-P. Blandeau, N. E. Davis, R. C. Binning and L. Radom, J. Chem. Phys. 103, 6104 (1995).
   Pol./Diff.
   H, Li - Cl  : T. Clark, J. Chandrasekhar and P. v. R. Schleyer, J. Comp. Chem. 4, 294 (1983).
   H - Ne      : M. J. Frisch, J. A. Pople and J. S. Binkley, J. Chem. Phys. 80, 3265 (1984).

================================================================================
                                        WARNINGS
                       Please study these warnings very carefully!
================================================================================


WARNING: Geometry Optimization
  ===> : Switching off AutoStart
         For restart on a previous wavefunction, please use MOREAD

WARNING: Post HF methods need fully converged wavefunctions
  ===> : Setting SCFConvForced true
         You can overwrite this default with %scf ConvForced false 


INFO   : the flag for use of LIBINT has been found!

================================================================================
                                       INPUT FILE
================================================================================
NAME = HCl.inp
|  1> ! UHF MP2 6-311+G(d,p) Opt Freq NoFrozenCore TightOpt TightSCF Grid4 FinalGrid5 PrintBasis PrintMOs NBO
|  2> %maxcore 3000
|  3> 
|  4> *xyz 0 1
|  5> Cl       0.000000000      0.000000000      0.034379000
|  6> H        0.000000000      0.000000000     -1.236571000
|  7> *
|  8> 
|  9> %pal
| 10>  nprocs 6
| 11> end
| 12> 
| 13>                          ****END OF INPUT****
================================================================================

                       *****************************
                       * Geometry Optimization Run *
                       *****************************

Geometry optimization settings:
Update method            Update   .... BFGS
Choice of coordinates    CoordSys .... Z-matrix Internals
Initial Hessian          InHess   .... Almoef's Model

Convergence Tolerances:
Energy Change            TolE     ....  1.0000e-06 Eh
Max. Gradient            TolMAXG  ....  1.0000e-04 Eh/bohr
RMS Gradient             TolRMSG  ....  3.0000e-05 Eh/bohr
Max. Displacement        TolMAXD  ....  1.0000e-03 bohr
RMS Displacement         TolRMSD  ....  6.0000e-04 bohr
Strict Convergence                ....  False
------------------------------------------------------------------------------
                        ORCA OPTIMIZATION COORDINATE SETUP
------------------------------------------------------------------------------

The optimization will be done in new redundant internal coordinates
Making redundant internal coordinates   ...  (new redundants) done
Evaluating the initial hessian          ...  (Almloef) done
Evaluating the coordinates              ...  done
Calculating the B-matrix                .... done
Calculating the G-matrix                .... done
Diagonalizing the G-matrix              .... done
The first mode is                       ....    0
The number of degrees of freedom        ....    1

    -----------------------------------------------------------------
                    Redundant Internal Coordinates


    -----------------------------------------------------------------
         Definition                    Initial Value    Approx d2E/dq
    -----------------------------------------------------------------
      1. B(H   1,Cl  0)                  1.2710         0.415647   
    -----------------------------------------------------------------

Number of atoms                         .... 2
Number of degrees of freedom            .... 1

         *************************************************************
         *                GEOMETRY OPTIMIZATION CYCLE   1            *
         *************************************************************
---------------------------------
CARTESIAN COORDINATES (ANGSTROEM)
---------------------------------
  Cl     0.000000    0.000000    0.034379
  H      0.000000    0.000000   -1.236571

----------------------------
CARTESIAN COORDINATES (A.U.)
----------------------------
  NO LB      ZA    FRAG     MASS         X           Y           Z
   0 Cl   17.0000    0    35.453    0.000000    0.000000    0.064967
   1 H     1.0000    0     1.008    0.000000    0.000000   -2.336781

--------------------------------
INTERNAL COORDINATES (ANGSTROEM)
--------------------------------
 Cl     0   0   0     0.000000000000     0.00000000     0.00000000
 H      1   0   0     1.270950000000     0.00000000     0.00000000

---------------------------
INTERNAL COORDINATES (A.U.)
---------------------------
 Cl     0   0   0     0.000000000000     0.00000000     0.00000000
 H      1   0   0     2.401747429907     0.00000000     0.00000000

---------------------
BASIS SET INFORMATION
---------------------
There are 2 groups of distinct atoms

 Group   1 Type Cl  : 14s11p1d contracted to 7s6p1d pattern {6311111/521111/1}
 Group   2 Type H   : 5s1p contracted to 3s1p pattern {311/1}

Atom   0Cl   basis set group =>   1
Atom   1H    basis set group =>   2

-------------------------
BASIS SET IN INPUT FORMAT
-------------------------

 # Basis set for element : H 
 NewGTO H 
 S 3 
   1      33.8650000000      0.0254938145
   2       5.0947900000      0.1903731086
   3       1.1587900000      0.8521614860
 S 1 
   1       0.3258400000      1.0000000000
 S 1 
   1       0.1027410000      1.0000000000
 P 1 
   1       0.7500000000      1.0000000000
  end;

 # Basis set for element : Cl
 NewGTO Cl
 S 6 
   1  105819.0000000000      0.0007380002
   2   15872.0000000000      0.0057180019
   3    3619.6500000000      0.0294950099
   4    1030.8000000000      0.1172860392
   5     339.9080000000      0.3629491212
   6     124.5380000000      0.5841491951
 S 3 
   1     124.5380000000      0.1341769734
   2      49.5135000000      0.6242498762
   3      20.8056000000      0.2917559421
 S 1 
   1       6.5834600000      1.0000000000
 S 1 
   1       2.5646800000      1.0000000000
 S 1 
   1       0.5597630000      1.0000000000
 S 1 
   1       0.1832730000      1.0000000000
 P 5 
   1     589.7760000000      0.0023909997
   2     139.8490000000      0.0185039976
   3      45.1413000000      0.0813769893
   4      16.8733000000      0.2215519708
   5       6.7411000000      0.7725688983
 P 2 
   1       6.7411000000     -1.5722438126
   2       2.7715200000      0.9923888817
 P 1 
   1       1.0238700000      1.0000000000
 P 1 
   1       0.3813680000      1.0000000000
 P 1 
   1       0.1094370000      1.0000000000
 S 1 
   1       0.0483000000      1.0000000000
 P 1 
   1       0.0483000000      1.0000000000
 D 1 
   1       0.7500000000      1.0000000000
  end;



           ************************************************************
           *        Program running with 6 parallel MPI-processes     *
           *              working on a common directory               *
           ************************************************************
------------------------------------------------------------------------------
                           ORCA GTO INTEGRAL CALCULATION
------------------------------------------------------------------------------

                         BASIS SET STATISTICS AND STARTUP INFO

 # of primitive gaussian shells          ...   32
 # of primitive gaussian functions       ...   60
 # of contracted shells                  ...   18
 # of contracted basis functions         ...   36
 Highest angular momentum                ...    2
 Maximum contraction depth               ...    6
 Integral package used                   ... LIBINT
 Integral threshhold            Thresh   ...  2.500e-11
 Primitive cut-off              TCut     ...  2.500e-12


------------------------------ INTEGRAL EVALUATION ----------------------------


 * One electron integrals 
 Pre-screening matrix                    ... done
 Shell pair data                         ... done (   0.000 sec)



           ************************************************************
           *        Program running with 6 parallel MPI-processes     *
           *              working on a common directory               *
           ************************************************************
-------------------------------------------------------------------------------
                                 ORCA SCF
-------------------------------------------------------------------------------

------------
SCF SETTINGS
------------
Hamiltonian:
 Ab initio Hamiltonian  Method          .... Hartree-Fock(GTOs)


General Settings:
 Integral files         IntName         .... HCl
 Hartree-Fock type      HFTyp           .... UHF
 Total Charge           Charge          ....    0
 Multiplicity           Mult            ....    1
 Number of Electrons    NEL             ....   18
 Basis Dimension        Dim             ....   36
 Nuclear Repulsion      ENuc            ....      7.0781797404 Eh

Convergence Acceleration:
 DIIS                   CNVDIIS         .... on
   Start iteration      DIISMaxIt       ....    12
   Startup error        DIISStart       ....  0.200000
   # of expansion vecs  DIISMaxEq       ....     5
   Bias factor          DIISBfac        ....   1.050
   Max. coefficient     DIISMaxC        ....  10.000
 Newton-Raphson         CNVNR           .... off
 SOSCF                  CNVSOSCF        .... off
 Level Shifting         CNVShift        .... on
   Level shift para.    LevelShift      ....    0.2500
   Turn off err/grad.   ShiftErr        ....    0.0010
 Zerner damping         CNVZerner       .... off
 Static damping         CNVDamp         .... on
   Fraction old density DampFac         ....    0.7000
   Max. Damping (<1)    DampMax         ....    0.9800
   Min. Damping (>=0)   DampMin         ....    0.0000
   Turn off err/grad.   DampErr         ....    0.1000
 Fernandez-Rico         CNVRico         .... off

SCF Procedure:
 Maximum # iterations   MaxIter         ....   125
 SCF integral mode      SCFMode         .... Direct
   Integral package                     .... LIBINT
 Reset frequency        DirectResetFreq ....    20
 Integral Threshold     Thresh          ....  2.500e-11 Eh
 Primitive CutOff       TCut            ....  2.500e-12 Eh

Convergence Tolerance:
 Convergence Check Mode ConvCheckMode   .... Total+1el-Energy
 Convergence forced     ConvForced      .... 1
 Energy Change          TolE            ....  1.000e-08 Eh
 1-El. energy change                    ....  1.000e-05 Eh
 DIIS Error             TolErr          ....  5.000e-07


Diagonalization of the overlap matrix:
Smallest eigenvalue                        ... 2.099e-02
Time for diagonalization                   ...    0.001 sec
Threshold for overlap eigenvalues          ... 1.000e-08
Number of eigenvalues below threshold      ... 0
Time for construction of square roots      ...    0.001 sec
Total time needed                          ...    0.001 sec

-------------------
DFT GRID GENERATION
-------------------

General Integration Accuracy     IntAcc      ...  4.670
Radial Grid Type                 RadialGrid  ... Gauss-Chebyshev
Angular Grid (max. acc.)         AngularGrid ... Lebedev-302
Angular grid pruning method      GridPruning ... 3 (G Style)
Weight generation scheme         WeightScheme... Becke
Basis function cutoff            BFCut       ...    1.0000e-11
Integration weight cutoff        WCut        ...    1.0000e-14
Grids for H and He will be reduced by one unit

# of grid points (after initial pruning)     ...  10132 (   0.0 sec)
# of grid points (after weights+screening)   ...  10103 (   0.0 sec)
nearest neighbour list constructed           ...    0.0 sec
Grid point re-assignment to atoms done       ...    0.0 sec
Grid point division into batches done        ...    0.0 sec
Reduced shell lists constructed in    0.0 sec

Total number of grid points                  ...    10103
Total number of batches                      ...      159
Average number of points per batch           ...       63
Average number of grid points per atom       ...     5052
Average number of shells per batch           ...     8.61 (47.82%)
Average number of basis functions per batch  ...    17.82 (49.50%)
Average number of large shells per batch     ...     6.54 (75.93%)
Average number of large basis fcns per batch ...    13.68 (76.75%)
Maximum spatial batch extension              ...  25.31, 23.02, 15.18 au
Average spatial batch extension              ...   1.88,  1.81,  1.34 au

Time for grid setup =    0.056 sec

------------------------------
INITIAL GUESS: MODEL POTENTIAL
------------------------------
Loading Hartree-Fock densities                     ... done
Calculating cut-offs                               ... done
Setting up the integral package                    ... done
Initializing the effective Hamiltonian             ... done
Starting the Coulomb interaction                   ... done (   0.0 sec)
Reading the grid                                   ... done
Mapping shells                                     ... done
Starting the XC term evaluation                    ... done (   0.0 sec)
Transforming the Hamiltonian                       ... done (   0.0 sec)
Diagonalizing the Hamiltonian                      ... done (   0.0 sec)
Back transforming the eigenvectors                 ... done (   0.0 sec)
Now organizing SCF variables                       ... done
                      ------------------
                      INITIAL GUESS DONE (   0.1 sec)
                      ------------------
--------------
SCF ITERATIONS
--------------
ITER       Energy         Delta-E        Max-DP      RMS-DP      [F,P]     Damp
               ***  Starting incremental Fock matrix formation  ***
  0   -460.0673527919   0.000000000000 0.01481920  0.00093582  0.6472727 0.7000
  1   -460.0758984097  -0.008545617754 0.01121173  0.00071988  0.4557169 0.7000
  2   -460.0817805626  -0.005882152944 0.00719326  0.00048887  0.3207701 0.7000
  3   -460.0858270525  -0.004046489877 0.00447055  0.00032811  0.2257184 0.7000
                               ***Turning on DIIS***
  4   -460.0886465800  -0.002819527489 0.00276840  0.00022404  0.1587756 0.7000
  5   -460.1346585420  -0.046011962072 0.00171949  0.00015966  0.1116520 0.7000
  6   -460.1239687882   0.010689753837 0.00447403  0.00040181  0.0782488 0.0000
  7   -460.0954997110   0.028469077205 0.00045214  0.00003537  0.0016259 0.0000
  8   -460.0958893181  -0.000389607123 0.00033753  0.00002861  0.0006955 0.0000
  9   -460.0952821820   0.000607136091 0.00006595  0.00000520  0.0000903 0.0000
 10   -460.0952940927  -0.000011910659 0.00001222  0.00000079  0.0000140 0.0000
 11   -460.0953505659  -0.000056473232 0.00000311  0.00000025  0.0000056 0.0000
                            ***DIIS convergence achieved***

               *****************************************************
               *                     SUCCESS                       *
               *           SCF CONVERGED AFTER  12 CYCLES          *
               *****************************************************


----------------
TOTAL SCF ENERGY
----------------

Total Energy       :         -460.09532686 Eh          -12519.83034 eV

Components:
Nuclear Repulsion  :            7.07817974 Eh             192.60706 eV
Electronic Energy  :         -467.17350660 Eh          -12712.43740 eV
One Electron Energy:         -649.84362106 Eh          -17683.14392 eV
Two Electron Energy:          182.67011446 Eh            4970.70652 eV

Virial components:
Potential Energy   :         -920.21856854 Eh          -25040.42028 eV
Kinetic Energy     :          460.12324168 Eh           12520.58994 eV
Virial Ratio       :            1.99993933


---------------
SCF CONVERGENCE
---------------

  Last Energy change         ...    2.3704e-05  Tolerance :   1.0000e-08
  Last MAX-Density change    ...    2.9408e-07  Tolerance :   1.0000e-07
  Last RMS-Density change    ...    2.6463e-08  Tolerance :   5.0000e-09
  Last DIIS Error            ...    6.0844e-07  Tolerance :   5.0000e-07

             **** THE GBW FILE WAS UPDATED (HCl.gbw) ****
             **** DENSITY FILE WAS UPDATED (HCl.scfp) ****
             **** ENERGY FILE WAS UPDATED (HCl.en.tmp) ****
----------------------
UHF SPIN CONTAMINATION
----------------------

Expectation value of <S**2>     :     0.000000
Ideal value S*(S+1) for S=0.0   :     0.000000
Deviation                       :     0.000000

             **** THE GBW FILE WAS UPDATED (HCl.gbw) ****
             **** DENSITY FILE WAS UPDATED (HCl.scfp) ****
----------------
ORBITAL ENERGIES
----------------
                 SPIN UP ORBITALS
  NO   OCC          E(Eh)            E(eV) 
   0   1.0000    -104.848253     -2853.0660 
   1   1.0000     -10.575246      -287.7671 
   2   1.0000      -8.043807      -218.8831 
   3   1.0000      -8.040518      -218.7936 
   4   1.0000      -8.040518      -218.7936 
   5   1.0000      -1.120260       -30.4838 
   6   1.0000      -0.628355       -17.0984 
   7   1.0000      -0.477370       -12.9899 
   8   1.0000      -0.477370       -12.9899 
   9   0.0000       0.092741         2.5236 
  10   0.0000       0.121247         3.2993 
  11   0.0000       0.125309         3.4098 
  12   0.0000       0.125309         3.4098 
  13   0.0000       0.171266         4.6604 
  14   0.0000       0.471852        12.8398 
  15   0.0000       0.591385        16.0924 
  16   0.0000       0.592482        16.1223 
  17   0.0000       0.592482        16.1223 
  18   0.0000       0.989473        26.9249 
  19   0.0000       0.993428        27.0326 
  20   0.0000       0.993428        27.0326 
  21   0.0000       1.138040        30.9676 
  22   0.0000       1.138040        30.9676 
  23   0.0000       1.324245        36.0345 
  24   0.0000       1.754383        47.7392 
  25   0.0000       1.754383        47.7392 
  26   0.0000       2.417017        65.7704 
  27   0.0000       2.600723        70.7693 
  28   0.0000       2.600723        70.7693 
  29   0.0000       2.678119        72.8753 
  30   0.0000       2.847586        77.4868 
  31   0.0000      10.276359       279.6340 
  32   0.0000      26.623289       724.4565 
  33   0.0000      26.623289       724.4565 
  34   0.0000      26.761204       728.2094 
  35   0.0000     219.103962      5962.1219 

                 SPIN DOWN ORBITALS
  NO   OCC          E(Eh)            E(eV) 
   0   1.0000    -104.848253     -2853.0660 
   1   1.0000     -10.575246      -287.7671 
   2   1.0000      -8.043807      -218.8831 
   3   1.0000      -8.040518      -218.7936 
   4   1.0000      -8.040518      -218.7936 
   5   1.0000      -1.120260       -30.4838 
   6   1.0000      -0.628355       -17.0984 
   7   1.0000      -0.477370       -12.9899 
   8   1.0000      -0.477370       -12.9899 
   9   0.0000       0.092741         2.5236 
  10   0.0000       0.121247         3.2993 
  11   0.0000       0.125309         3.4098 
  12   0.0000       0.125309         3.4098 
  13   0.0000       0.171266         4.6604 
  14   0.0000       0.471852        12.8398 
  15   0.0000       0.591385        16.0924 
  16   0.0000       0.592482        16.1223 
  17   0.0000       0.592482        16.1223 
  18   0.0000       0.989473        26.9249 
  19   0.0000       0.993428        27.0326 
  20   0.0000       0.993428        27.0326 
  21   0.0000       1.138040        30.9676 
  22   0.0000       1.138040        30.9676 
  23   0.0000       1.324245        36.0345 
  24   0.0000       1.754383        47.7392 
  25   0.0000       1.754383        47.7392 
  26   0.0000       2.417017        65.7704 
  27   0.0000       2.600723        70.7693 
  28   0.0000       2.600723        70.7693 
  29   0.0000       2.678119        72.8753 
  30   0.0000       2.847586        77.4868 
  31   0.0000      10.276359       279.6340 
  32   0.0000      26.623289       724.4565 
  33   0.0000      26.623289       724.4565 
  34   0.0000      26.761204       728.2094 
  35   0.0000     219.103962      5962.1219 
------------------
MOLECULAR ORBITALS
------------------
                      0         1         2         3         4         5   
                 -104.84825 -10.57525  -8.04381  -8.04052  -8.04052  -1.12026
                   1.00000   1.00000   1.00000   1.00000   1.00000   1.00000
                  --------  --------  --------  --------  --------  --------
  0Cl  1s        -0.411732 -0.121938 -0.000663 -0.000000  0.000000 -0.034670
  0Cl  2s        -0.654663 -0.331491 -0.001843 -0.000000  0.000000 -0.100322
  0Cl  3s        -0.012084  0.511870  0.003476  0.000000 -0.000000  0.198240
  0Cl  4s         0.000906  0.605552  0.002712  0.000000 -0.000000  0.395931
  0Cl  5s        -0.000207  0.042689 -0.000751 -0.000000  0.000000 -0.599767
  0Cl  6s         0.000112 -0.010139  0.000027  0.000000 -0.000000 -0.506869
  0Cl  1pz        0.000164 -0.005558  1.230044  0.000000 -0.000000 -0.044249
  0Cl  1px       -0.000000 -0.000000 -0.000000  1.161970 -0.407314 -0.000000
  0Cl  1py        0.000000  0.000000 -0.000000 -0.407314 -1.161970  0.000000
  0Cl  2pz        0.000106 -0.001452  0.327062  0.000000 -0.000000 -0.011486
  0Cl  2px       -0.000000 -0.000000 -0.000000  0.308839 -0.108260  0.000000
  0Cl  2py        0.000000  0.000000 -0.000000 -0.108260 -0.308839  0.000000
  0Cl  3pz       -0.000107 -0.000717  0.051783  0.000000 -0.000000  0.029724
  0Cl  3px        0.000000  0.000000 -0.000000  0.046573 -0.016326 -0.000000
  0Cl  3py       -0.000000 -0.000000 -0.000000 -0.016326 -0.046573 -0.000000
  0Cl  4pz        0.000087 -0.001238 -0.003263 -0.000000  0.000000  0.044560
  0Cl  4px       -0.000000 -0.000000  0.000000 -0.002310  0.000810  0.000000
  0Cl  4py        0.000000  0.000000 -0.000000  0.000810  0.002310  0.000000
  0Cl  5pz       -0.000044  0.000749  0.001775  0.000000 -0.000000  0.013595
  0Cl  5px        0.000000  0.000000 -0.000000  0.001172 -0.000411  0.000000
  0Cl  5py       -0.000000 -0.000000  0.000000 -0.000411 -0.001172 -0.000000
  0Cl  7s        -0.000007  0.001568 -0.000340 -0.000000 -0.000000 -0.005950
  0Cl  6pz        0.000006  0.000330 -0.000548 -0.000000  0.000000  0.005312
  0Cl  6px       -0.000000 -0.000000  0.000000 -0.000486  0.000170 -0.000000
  0Cl  6py        0.000000  0.000000 -0.000000  0.000170  0.000486  0.000000
  0Cl  1dz2      -0.000018  0.000889 -0.000516 -0.000000  0.000000 -0.017823
  0Cl  1dxz      -0.000000 -0.000000  0.000000 -0.000293  0.000103 -0.000000
  0Cl  1dyz       0.000000  0.000000 -0.000000  0.000103  0.000293  0.000000
  0Cl  1dx2y2    -0.000000 -0.000000 -0.000000 -0.000000 -0.000000 -0.000000
  0Cl  1dxy      -0.000000 -0.000000  0.000000  0.000000  0.000000  0.000000
  1H   1s         0.000004  0.000172 -0.000442 -0.000000  0.000000 -0.088700
  1H   2s         0.000029 -0.001156 -0.000166  0.000000 -0.000000 -0.120548
  1H   3s        -0.000038  0.001832  0.000578  0.000000  0.000000  0.018793
  1H   1pz        0.000024 -0.001265 -0.000014  0.000000 -0.000000 -0.030151
  1H   1px        0.000000  0.000000 -0.000000  0.000019 -0.000007  0.000000
  1H   1py        0.000000  0.000000 -0.000000 -0.000007 -0.000019  0.000000
                      6         7         8         9        10        11   
                  -0.62835  -0.47737  -0.47737   0.09274   0.12125   0.12531
                   1.00000   1.00000   1.00000   0.00000   0.00000   0.00000
                  --------  --------  --------  --------  --------  --------
  0Cl  1s         0.010611 -0.000000 -0.000000  0.008251  0.006411 -0.000000
  0Cl  2s         0.030987 -0.000000 -0.000000  0.024765  0.019163 -0.000000
  0Cl  3s        -0.063707  0.000000  0.000000 -0.056417 -0.043048  0.000000
  0Cl  4s        -0.121422  0.000000  0.000000 -0.077155 -0.063275  0.000000
  0Cl  5s         0.184170 -0.000000 -0.000000  0.045309  0.053398 -0.000000
  0Cl  6s         0.289281 -0.000000 -0.000000  0.747660  0.545228 -0.000000
  0Cl  1pz       -0.278736  0.000000 -0.000000  0.079868 -0.048510  0.000000
  0Cl  1px        0.000000  0.262485 -0.209757 -0.000000  0.000000 -0.063791
  0Cl  1py       -0.000000 -0.209757 -0.262485  0.000000  0.000000  0.063134
  0Cl  2pz       -0.068221  0.000000 -0.000000  0.019843 -0.014962  0.000000
  0Cl  2px        0.000000  0.062870 -0.050241 -0.000000  0.000000 -0.017864
  0Cl  2py       -0.000000 -0.050241 -0.062870  0.000000  0.000000  0.017680
  0Cl  3pz        0.200618 -0.000000  0.000000 -0.063512  0.066700 -0.000000
  0Cl  3px       -0.000000 -0.190737  0.152422  0.000000 -0.000000  0.070864
  0Cl  3py        0.000000  0.152422  0.190737  0.000000 -0.000000 -0.070134
  0Cl  4pz        0.426211 -0.000000  0.000000 -0.132727 -0.048805  0.000000
  0Cl  4px       -0.000000 -0.459893  0.367510  0.000000  0.000000  0.019916
  0Cl  4py        0.000000  0.367510  0.459893  0.000000  0.000000 -0.019710
  0Cl  5pz        0.159433  0.000000  0.000000 -0.406871  0.663193 -0.000000
  0Cl  5px       -0.000000 -0.284763  0.227560  0.000000 -0.000000  0.595619
  0Cl  5py        0.000000  0.227560  0.284763 -0.000000 -0.000000 -0.589479
  0Cl  7s         0.026219 -0.000000  0.000000 -1.314644 -0.779895  0.000000
  0Cl  6pz       -0.017878  0.000000 -0.000000  0.919234 -1.293016  0.000000
  0Cl  6px        0.000000  0.025151 -0.020099 -0.000000  0.000000 -1.098035
  0Cl  6py        0.000000 -0.020099 -0.025151  0.000000  0.000000  1.086715
  0Cl  1dz2      -0.055851  0.000000  0.000000  0.014510 -0.009100 -0.000000
  0Cl  1dxz       0.000000  0.010385 -0.008299 -0.000000  0.000000 -0.002299
  0Cl  1dyz       0.000000 -0.008299 -0.010385 -0.000000  0.000000  0.002276
  0Cl  1dx2y2    -0.000000 -0.000000  0.000000  0.000000  0.000000  0.000000
  0Cl  1dxy      -0.000000  0.000000  0.000000 -0.000000  0.000000 -0.000000
  1H   1s        -0.154511  0.000000  0.000000 -0.002406 -0.029220 -0.000000
  1H   2s        -0.306920  0.000000  0.000000 -0.147992 -0.026435 -0.000000
  1H   3s        -0.074567  0.000000  0.000000  0.265924 -0.062323 -0.000000
  1H   1pz       -0.035120  0.000000  0.000000  0.009568 -0.020735  0.000000
  1H   1px       -0.000000 -0.019039  0.015214 -0.000000 -0.000000 -0.002388
  1H   1py       -0.000000  0.015214  0.019039  0.000000  0.000000  0.002364
                     12        13        14        15        16        17   
                   0.12531   0.17127   0.47185   0.59138   0.59248   0.59248
                   0.00000   0.00000   0.00000   0.00000   0.00000   0.00000
                  --------  --------  --------  --------  --------  --------
  0Cl  1s         0.000000 -0.004952  0.001974 -0.001012 -0.000000  0.000000
  0Cl  2s         0.000000 -0.014888  0.005925 -0.002555 -0.000000  0.000000
  0Cl  3s        -0.000000  0.034150 -0.013600  0.001839  0.000000 -0.000000
  0Cl  4s        -0.000000  0.045094 -0.018688  0.024348  0.000000 -0.000000
  0Cl  5s         0.000000 -0.008385 -0.039088 -0.062807 -0.000000  0.000000
  0Cl  6s         0.000000 -0.621279  0.073980  0.257100  0.000000 -0.000000
  0Cl  1pz       -0.000000 -0.137262 -0.005684 -0.228268 -0.000000  0.000000
  0Cl  1px       -0.063134  0.000000  0.000000  0.000000 -0.164413 -0.112021
  0Cl  1py       -0.063791  0.000000  0.000000 -0.000000  0.112021 -0.164413
  0Cl  2pz       -0.000000 -0.033146  0.000448 -0.039093 -0.000000  0.000000
  0Cl  2px       -0.017680  0.000000  0.000000  0.000000 -0.026101 -0.017784
  0Cl  2py       -0.017864  0.000000  0.000000 -0.000000  0.017784 -0.026101
  0Cl  3pz        0.000000  0.106026  0.002435  0.059193  0.000000 -0.000000
  0Cl  3px        0.070134 -0.000000 -0.000000 -0.000000  0.037452  0.025518
  0Cl  3py        0.070864 -0.000000  0.000000  0.000000 -0.025518  0.037452
  0Cl  4pz        0.000000  0.238029  0.066111  1.240720  0.000000 -0.000000
  0Cl  4px        0.019710 -0.000000 -0.000000 -0.000000  0.946642  0.644982
  0Cl  4py        0.019916 -0.000000 -0.000000  0.000000 -0.644982  0.946642
  0Cl  5pz        0.000000  1.139999 -0.996658 -2.229996 -0.000000  0.000000
  0Cl  5px        0.589479 -0.000000  0.000000  0.000000 -1.817895 -1.238598
  0Cl  5py        0.595619 -0.000000  0.000000 -0.000000  1.238598 -1.817895
  0Cl  7s        -0.000000 -1.724151 -1.331555  1.016404  0.000000 -0.000000
  0Cl  6pz       -0.000000  0.595867  1.423019  0.448095  0.000000 -0.000000
  0Cl  6px       -1.086715  0.000000 -0.000000 -0.000000  0.976614  0.665403
  0Cl  6py       -1.098035  0.000000 -0.000000  0.000000 -0.665403  0.976614
  0Cl  1dz2       0.000000  0.101439 -0.159343  0.050647  0.000000 -0.000000
  0Cl  1dxz      -0.002276  0.000000  0.000000  0.000000 -0.008911 -0.006072
  0Cl  1dyz      -0.002299 -0.000000 -0.000000 -0.000000  0.006072 -0.008911
  0Cl  1dx2y2    -0.000000  0.000000 -0.000000 -0.000000  0.000000  0.000000
  0Cl  1dxy       0.000000 -0.000000  0.000000 -0.000000  0.000000  0.000000
  1H   1s         0.000000  0.127697 -0.083253  0.084021  0.000000 -0.000000
  1H   2s        -0.000000  0.170937 -1.578400  0.762079  0.000000 -0.000000
  1H   3s         0.000000  2.740007  2.771803 -2.150103 -0.000000  0.000000
  1H   1pz       -0.000000 -0.002922 -0.061169 -0.001224 -0.000000 -0.000000
  1H   1px       -0.002364 -0.000000 -0.000000  0.000000  0.003114  0.002122
  1H   1py       -0.002388 -0.000000 -0.000000  0.000000 -0.002122  0.003114
                     18        19        20        21        22        23   
                   0.98947   0.99343   0.99343   1.13804   1.13804   1.32424
                   0.00000   0.00000   0.00000   0.00000   0.00000   0.00000
                  --------  --------  --------  --------  --------  --------
  0Cl  1s         0.032926  0.000000 -0.000000 -0.000000  0.000000 -0.011015
  0Cl  2s         0.090336  0.000000 -0.000000 -0.000000  0.000000 -0.030071
  0Cl  3s        -0.135372 -0.000000  0.000000  0.000000  0.000000  0.043531
  0Cl  4s        -0.647456 -0.000000  0.000000  0.000000 -0.000000  0.229750
  0Cl  5s         2.342837  0.000000 -0.000000 -0.000000  0.000000 -0.839465
  0Cl  6s        -2.720779 -0.000000  0.000000  0.000000 -0.000000  0.900487
  0Cl  1pz        0.031257  0.000000 -0.000000 -0.000000 -0.000000  0.039998
  0Cl  1px        0.000000 -0.000129  0.018454  0.000000  0.000000  0.000000
  0Cl  1py       -0.000000  0.018454  0.000129 -0.000000 -0.000000  0.000000
  0Cl  2pz        0.013585  0.000000 -0.000000 -0.000000  0.000000  0.015815
  0Cl  2px        0.000000 -0.000021  0.002992  0.000000 -0.000000  0.000000
  0Cl  2py        0.000000  0.002992  0.000021 -0.000000 -0.000000  0.000000
  0Cl  3pz       -0.103881 -0.000000  0.000000  0.000000  0.000000 -0.117581
  0Cl  3px       -0.000000  0.000056 -0.007949 -0.000000  0.000000 -0.000000
  0Cl  3py        0.000000 -0.007949 -0.000056  0.000000  0.000000  0.000000
  0Cl  4pz        0.269653  0.000000 -0.000000  0.000000 -0.000000  0.222434
  0Cl  4px       -0.000000  0.000433 -0.061650 -0.000000 -0.000000  0.000000
  0Cl  4py       -0.000000 -0.061650 -0.000433 -0.000000 -0.000000 -0.000000
  0Cl  5pz        0.025999 -0.000000 -0.000000 -0.000000 -0.000000 -0.631130
  0Cl  5px       -0.000000  0.000585 -0.083428  0.000000  0.000000 -0.000000
  0Cl  5py        0.000000 -0.083428 -0.000585  0.000000  0.000000 -0.000000
  0Cl  7s         0.512580  0.000000 -0.000000 -0.000000 -0.000000 -0.474800
  0Cl  6pz        0.236848  0.000000 -0.000000  0.000000  0.000000  0.427267
  0Cl  6px        0.000000 -0.000201  0.028678 -0.000000 -0.000000  0.000000
  0Cl  6py       -0.000000  0.028678  0.000201 -0.000000 -0.000000  0.000000
  0Cl  1dz2       0.141509  0.000000 -0.000000  0.000000  0.000000  0.836131
  0Cl  1dxz      -0.000000  0.005727 -0.816250  0.000000 -0.000000 -0.000000
  0Cl  1dyz       0.000000 -0.816250 -0.005727  0.000000  0.000000 -0.000000
  0Cl  1dx2y2    -0.000000  0.000000 -0.000000  0.049326  0.998783 -0.000000
  0Cl  1dxy      -0.000000  0.000000  0.000000  0.998783 -0.049326 -0.000000
  1H   1s        -0.041430 -0.000000  0.000000 -0.000000  0.000000  0.051464
  1H   2s         0.055619  0.000000 -0.000000 -0.000000 -0.000000 -1.063537
  1H   3s         0.661032  0.000000 -0.000000  0.000000  0.000000  0.783938
  1H   1pz        0.233202  0.000000 -0.000000  0.000000 -0.000000  0.317352
  1H   1px        0.000000 -0.002959  0.421757 -0.000000  0.000000  0.000000
  1H   1py       -0.000000  0.421757  0.002959 -0.000000 -0.000000 -0.000000
                     24        25        26        27        28        29   
                   1.75438   1.75438   2.41702   2.60072   2.60072   2.67812
                   0.00000   0.00000   0.00000   0.00000   0.00000   0.00000
                  --------  --------  --------  --------  --------  --------
  0Cl  1s        -0.000000 -0.000000 -0.003807  0.000000  0.000000 -0.009471
  0Cl  2s         0.000000 -0.000000 -0.012080  0.000000  0.000000 -0.028187
  0Cl  3s        -0.000000 -0.000000  0.033388 -0.000000 -0.000000  0.062817
  0Cl  4s         0.000000  0.000000  0.027078  0.000000 -0.000000  0.141057
  0Cl  5s        -0.000000 -0.000000  0.020806 -0.000000  0.000000 -0.222127
  0Cl  6s         0.000000  0.000000 -0.433323  0.000000  0.000000 -0.826605
  0Cl  1pz        0.000000  0.000000 -0.484954 -0.000000 -0.000000  0.482131
  0Cl  1px       -0.054742 -0.010569  0.000000 -0.688758 -0.374456 -0.000000
  0Cl  1py       -0.010569  0.054742 -0.000000 -0.374456  0.688758  0.000000
  0Cl  2pz        0.000000  0.000000 -0.151113 -0.000000 -0.000000  0.170854
  0Cl  2px       -0.015299 -0.002954  0.000000 -0.226870 -0.123342 -0.000000
  0Cl  2py       -0.002954  0.015299 -0.000000 -0.123342  0.226870  0.000000
  0Cl  3pz       -0.000000 -0.000000  1.065104  0.000000  0.000000 -1.482156
  0Cl  3px        0.085590  0.016525 -0.000000  1.737121  0.944418  0.000000
  0Cl  3py        0.016525 -0.085590  0.000000  0.944418 -1.737121 -0.000000
  0Cl  4pz        0.000000  0.000000 -0.722637 -0.000000 -0.000000  2.696618
  0Cl  4px       -0.004994 -0.000964  0.000000 -1.813786 -0.986098 -0.000000
  0Cl  4py       -0.000964  0.004994 -0.000000 -0.986098  1.813786  0.000000
  0Cl  5pz       -0.000000 -0.000000  0.536962  0.000000  0.000000 -0.854728
  0Cl  5px        0.275279  0.053147 -0.000000  0.980772  0.533215  0.000000
  0Cl  5py        0.053147 -0.275279  0.000000  0.533215 -0.980772 -0.000000
  0Cl  7s         0.000000 -0.000000 -0.514749 -0.000000 -0.000000  0.396786
  0Cl  6pz        0.000000  0.000000  0.148150 -0.000000  0.000000  0.197023
  0Cl  6px       -0.108000 -0.020851  0.000000 -0.429342 -0.233420 -0.000000
  0Cl  6py       -0.020851  0.108000 -0.000000 -0.233420  0.429342  0.000000
  0Cl  1dz2       0.000000  0.000000 -0.407467  0.000000  0.000000 -0.918123
  0Cl  1dxz      -0.618052 -0.119324 -0.000000  0.037476  0.020375  0.000000
  0Cl  1dyz      -0.119324  0.618052  0.000000  0.020375 -0.037476 -0.000000
  0Cl  1dx2y2     0.000000  0.000000  0.000000 -0.000000 -0.000000  0.000000
  0Cl  1dxy       0.000000 -0.000000  0.000000 -0.000000  0.000000  0.000000
  1H   1s         0.000000 -0.000000  0.944842 -0.000000  0.000000 -0.064502
  1H   2s        -0.000000  0.000000 -1.110605  0.000000 -0.000000  1.607768
  1H   3s        -0.000000 -0.000000  1.435611 -0.000000  0.000000 -0.661764
  1H   1pz       -0.000000 -0.000000  0.650575 -0.000000 -0.000000  1.359055
  1H   1px       -0.951936 -0.183786 -0.000000  0.097201  0.052845  0.000000
  1H   1py       -0.183786  0.951936  0.000000  0.052845 -0.097201 -0.000000
                     30        31        32        33        34        35   
                   2.84759  10.27636  26.62329  26.62329  26.76120 219.10396
                   0.00000   0.00000   0.00000   0.00000   0.00000   0.00000
                  --------  --------  --------  --------  --------  --------
  0Cl  1s        -0.004564  0.115791  0.000000 -0.000000 -0.000479 -1.542156
  0Cl  2s        -0.012502  0.482222 -0.000000 -0.000000 -0.001324  1.915130
  0Cl  3s         0.018255 -2.654736  0.000000  0.000000  0.009449 -1.439414
  0Cl  4s         0.109040  3.113941 -0.000000 -0.000000 -0.013607  0.967096
  0Cl  5s        -0.245288 -1.716684  0.000000  0.000000 -0.000811 -0.390288
  0Cl  6s        -0.389887  0.833998 -0.000000  0.000000  0.010660  0.190309
  0Cl  1pz       -0.406140  0.001867  0.000000 -0.000000 -3.424963  0.003254
  0Cl  1px        0.000000 -0.000000 -0.003411 -3.404258  0.000000  0.000000
  0Cl  1py        0.000000  0.000000  3.404258 -0.003411  0.000000  0.000000
  0Cl  2pz       -0.130895 -0.002558  0.000000 -0.000000 -3.452854  0.002584
  0Cl  2px        0.000000 -0.000000 -0.003444 -3.437242  0.000000  0.000000
  0Cl  2py        0.000000  0.000000  3.437242 -0.003444  0.000000  0.000000
  0Cl  3pz        0.954631 -0.050553 -0.000000  0.000000  2.452536 -0.011584
  0Cl  3px       -0.000000 -0.000000  0.002412  2.407128 -0.000000 -0.000000
  0Cl  3py       -0.000000 -0.000000 -2.407128  0.002412 -0.000000 -0.000000
  0Cl  4pz       -0.349619  0.210883  0.000000 -0.000000 -1.321316  0.041396
  0Cl  4px        0.000000  0.000000 -0.001240 -1.237955  0.000000  0.000000
  0Cl  4py        0.000000 -0.000000  1.237955 -0.001240  0.000000  0.000000
  0Cl  5pz        0.681944 -0.109868 -0.000000  0.000000  0.616031 -0.024827
  0Cl  5px       -0.000000 -0.000000  0.000567  0.565605 -0.000000 -0.000000
  0Cl  5py       -0.000000  0.000000 -0.565605  0.000567 -0.000000 -0.000000
  0Cl  7s         0.490329 -0.116957  0.000000 -0.000000 -0.125545 -0.027385
  0Cl  6pz       -0.577695 -0.024559  0.000000 -0.000000 -0.191378 -0.005545
  0Cl  6px        0.000000  0.000000 -0.000251 -0.250379  0.000000  0.000000
  0Cl  6py        0.000000 -0.000000  0.250379 -0.000251  0.000000  0.000000
  0Cl  1dz2      -0.345589 -0.086768 -0.000000  0.000000  0.032871 -0.015817
  0Cl  1dxz       0.000000 -0.000000  0.000006  0.006448 -0.000000 -0.000000
  0Cl  1dyz      -0.000000 -0.000000 -0.006448  0.000006 -0.000000  0.000000
  0Cl  1dx2y2     0.000000 -0.000000  0.000000  0.000000  0.000000 -0.000000
  0Cl  1dxy      -0.000000  0.000000 -0.000000  0.000000 -0.000000  0.000000
  1H   1s        -1.354576 -0.021843  0.000000 -0.000000 -0.061595 -0.004896
  1H   2s         2.388291  0.183858  0.000000 -0.000000 -0.103649  0.035031
  1H   3s        -1.264465 -0.207532 -0.000000  0.000000  0.235692 -0.046418
  1H   1pz        0.673741  0.187735  0.000000 -0.000000 -0.016035  0.035647
  1H   1px       -0.000000  0.000000  0.000026  0.025585 -0.000000  0.000000
  1H   1py       -0.000000 -0.000000 -0.025585  0.000026 -0.000000  0.000000

                      0         1         2         3         4         5   
                 -104.84825 -10.57525  -8.04381  -8.04052  -8.04052  -1.12026
                   1.00000   1.00000   1.00000   1.00000   1.00000   1.00000
                  --------  --------  --------  --------  --------  --------
  0Cl  1s        -0.411732 -0.121938 -0.000663 -0.000000  0.000000 -0.034670
  0Cl  2s        -0.654663 -0.331491 -0.001843 -0.000000  0.000000 -0.100322
  0Cl  3s        -0.012084  0.511870  0.003476  0.000000 -0.000000  0.198240
  0Cl  4s         0.000906  0.605552  0.002712  0.000000 -0.000000  0.395931
  0Cl  5s        -0.000207  0.042689 -0.000751 -0.000000  0.000000 -0.599767
  0Cl  6s         0.000112 -0.010139  0.000027  0.000000 -0.000000 -0.506869
  0Cl  1pz        0.000164 -0.005558  1.230044  0.000000 -0.000000 -0.044249
  0Cl  1px       -0.000000 -0.000000 -0.000000  1.161970 -0.407314 -0.000000
  0Cl  1py        0.000000  0.000000 -0.000000 -0.407314 -1.161970  0.000000
  0Cl  2pz        0.000106 -0.001452  0.327062  0.000000 -0.000000 -0.011486
  0Cl  2px       -0.000000 -0.000000 -0.000000  0.308839 -0.108260  0.000000
  0Cl  2py        0.000000  0.000000 -0.000000 -0.108260 -0.308839  0.000000
  0Cl  3pz       -0.000107 -0.000717  0.051783  0.000000 -0.000000  0.029724
  0Cl  3px        0.000000  0.000000 -0.000000  0.046573 -0.016326 -0.000000
  0Cl  3py       -0.000000 -0.000000 -0.000000 -0.016326 -0.046573 -0.000000
  0Cl  4pz        0.000087 -0.001238 -0.003263 -0.000000  0.000000  0.044560
  0Cl  4px       -0.000000 -0.000000  0.000000 -0.002310  0.000810  0.000000
  0Cl  4py        0.000000  0.000000 -0.000000  0.000810  0.002310  0.000000
  0Cl  5pz       -0.000044  0.000749  0.001775  0.000000 -0.000000  0.013595
  0Cl  5px        0.000000  0.000000 -0.000000  0.001172 -0.000411  0.000000
  0Cl  5py       -0.000000 -0.000000  0.000000 -0.000411 -0.001172 -0.000000
  0Cl  7s        -0.000007  0.001568 -0.000340 -0.000000 -0.000000 -0.005950
  0Cl  6pz        0.000006  0.000330 -0.000548 -0.000000  0.000000  0.005312
  0Cl  6px       -0.000000 -0.000000  0.000000 -0.000486  0.000170 -0.000000
  0Cl  6py        0.000000  0.000000 -0.000000  0.000170  0.000486  0.000000
  0Cl  1dz2      -0.000018  0.000889 -0.000516 -0.000000  0.000000 -0.017823
  0Cl  1dxz      -0.000000 -0.000000  0.000000 -0.000293  0.000103 -0.000000
  0Cl  1dyz       0.000000  0.000000 -0.000000  0.000103  0.000293  0.000000
  0Cl  1dx2y2    -0.000000 -0.000000 -0.000000 -0.000000 -0.000000 -0.000000
  0Cl  1dxy      -0.000000 -0.000000  0.000000  0.000000  0.000000  0.000000
  1H   1s         0.000004  0.000172 -0.000442 -0.000000  0.000000 -0.088700
  1H   2s         0.000029 -0.001156 -0.000166  0.000000 -0.000000 -0.120548
  1H   3s        -0.000038  0.001832  0.000578  0.000000  0.000000  0.018793
  1H   1pz        0.000024 -0.001265 -0.000014  0.000000 -0.000000 -0.030151
  1H   1px        0.000000  0.000000 -0.000000  0.000019 -0.000007  0.000000
  1H   1py        0.000000  0.000000 -0.000000 -0.000007 -0.000019  0.000000
                      6         7         8         9        10        11   
                  -0.62835  -0.47737  -0.47737   0.09274   0.12125   0.12531
                   1.00000   1.00000   1.00000   0.00000   0.00000   0.00000
                  --------  --------  --------  --------  --------  --------
  0Cl  1s         0.010611 -0.000000 -0.000000  0.008251  0.006411 -0.000000
  0Cl  2s         0.030987 -0.000000 -0.000000  0.024765  0.019163 -0.000000
  0Cl  3s        -0.063707  0.000000  0.000000 -0.056417 -0.043048  0.000000
  0Cl  4s        -0.121422  0.000000  0.000000 -0.077155 -0.063275  0.000000
  0Cl  5s         0.184170 -0.000000 -0.000000  0.045309  0.053398 -0.000000
  0Cl  6s         0.289281 -0.000000 -0.000000  0.747660  0.545228 -0.000000
  0Cl  1pz       -0.278736  0.000000 -0.000000  0.079868 -0.048510  0.000000
  0Cl  1px        0.000000  0.262485 -0.209757 -0.000000  0.000000 -0.063791
  0Cl  1py       -0.000000 -0.209757 -0.262485  0.000000  0.000000  0.063134
  0Cl  2pz       -0.068221  0.000000 -0.000000  0.019843 -0.014962  0.000000
  0Cl  2px        0.000000  0.062870 -0.050241 -0.000000  0.000000 -0.017864
  0Cl  2py       -0.000000 -0.050241 -0.062870  0.000000  0.000000  0.017680
  0Cl  3pz        0.200618 -0.000000  0.000000 -0.063512  0.066700 -0.000000
  0Cl  3px       -0.000000 -0.190737  0.152422  0.000000 -0.000000  0.070864
  0Cl  3py        0.000000  0.152422  0.190737  0.000000 -0.000000 -0.070134
  0Cl  4pz        0.426211 -0.000000  0.000000 -0.132727 -0.048805  0.000000
  0Cl  4px       -0.000000 -0.459893  0.367510  0.000000  0.000000  0.019916
  0Cl  4py        0.000000  0.367510  0.459893  0.000000  0.000000 -0.019710
  0Cl  5pz        0.159433  0.000000  0.000000 -0.406871  0.663193 -0.000000
  0Cl  5px       -0.000000 -0.284763  0.227560  0.000000 -0.000000  0.595619
  0Cl  5py        0.000000  0.227560  0.284763 -0.000000 -0.000000 -0.589479
  0Cl  7s         0.026219 -0.000000  0.000000 -1.314644 -0.779895  0.000000
  0Cl  6pz       -0.017878  0.000000 -0.000000  0.919234 -1.293016  0.000000
  0Cl  6px        0.000000  0.025151 -0.020099 -0.000000  0.000000 -1.098035
  0Cl  6py        0.000000 -0.020099 -0.025151  0.000000  0.000000  1.086715
  0Cl  1dz2      -0.055851  0.000000  0.000000  0.014510 -0.009100 -0.000000
  0Cl  1dxz       0.000000  0.010385 -0.008299 -0.000000  0.000000 -0.002299
  0Cl  1dyz       0.000000 -0.008299 -0.010385 -0.000000  0.000000  0.002276
  0Cl  1dx2y2    -0.000000 -0.000000  0.000000  0.000000  0.000000  0.000000
  0Cl  1dxy      -0.000000  0.000000  0.000000 -0.000000  0.000000 -0.000000
  1H   1s        -0.154511  0.000000  0.000000 -0.002406 -0.029220 -0.000000
  1H   2s        -0.306920  0.000000  0.000000 -0.147992 -0.026435 -0.000000
  1H   3s        -0.074567  0.000000  0.000000  0.265924 -0.062323 -0.000000
  1H   1pz       -0.035120  0.000000  0.000000  0.009568 -0.020735  0.000000
  1H   1px       -0.000000 -0.019039  0.015214 -0.000000 -0.000000 -0.002388
  1H   1py       -0.000000  0.015214  0.019039  0.000000  0.000000  0.002364
                     12        13        14        15        16        17   
                   0.12531   0.17127   0.47185   0.59138   0.59248   0.59248
                   0.00000   0.00000   0.00000   0.00000   0.00000   0.00000
                  --------  --------  --------  --------  --------  --------
  0Cl  1s         0.000000 -0.004952  0.001974 -0.001012 -0.000000  0.000000
  0Cl  2s         0.000000 -0.014888  0.005925 -0.002555 -0.000000  0.000000
  0Cl  3s        -0.000000  0.034150 -0.013600  0.001839  0.000000 -0.000000
  0Cl  4s        -0.000000  0.045094 -0.018688  0.024348  0.000000 -0.000000
  0Cl  5s         0.000000 -0.008385 -0.039088 -0.062807 -0.000000  0.000000
  0Cl  6s         0.000000 -0.621279  0.073980  0.257100  0.000000 -0.000000
  0Cl  1pz       -0.000000 -0.137262 -0.005684 -0.228268 -0.000000  0.000000
  0Cl  1px       -0.063134  0.000000  0.000000  0.000000 -0.164413 -0.112021
  0Cl  1py       -0.063791  0.000000  0.000000 -0.000000  0.112021 -0.164413
  0Cl  2pz       -0.000000 -0.033146  0.000448 -0.039093 -0.000000  0.000000
  0Cl  2px       -0.017680  0.000000  0.000000  0.000000 -0.026101 -0.017784
  0Cl  2py       -0.017864  0.000000  0.000000 -0.000000  0.017784 -0.026101
  0Cl  3pz        0.000000  0.106026  0.002435  0.059193  0.000000 -0.000000
  0Cl  3px        0.070134 -0.000000 -0.000000 -0.000000  0.037452  0.025518
  0Cl  3py        0.070864 -0.000000  0.000000  0.000000 -0.025518  0.037452
  0Cl  4pz        0.000000  0.238029  0.066111  1.240720  0.000000 -0.000000
  0Cl  4px        0.019710 -0.000000 -0.000000 -0.000000  0.946642  0.644982
  0Cl  4py        0.019916 -0.000000 -0.000000  0.000000 -0.644982  0.946642
  0Cl  5pz        0.000000  1.139999 -0.996658 -2.229996 -0.000000  0.000000
  0Cl  5px        0.589479 -0.000000  0.000000  0.000000 -1.817895 -1.238598
  0Cl  5py        0.595619 -0.000000  0.000000 -0.000000  1.238598 -1.817895
  0Cl  7s        -0.000000 -1.724151 -1.331555  1.016404  0.000000 -0.000000
  0Cl  6pz       -0.000000  0.595867  1.423019  0.448095  0.000000 -0.000000
  0Cl  6px       -1.086715  0.000000 -0.000000 -0.000000  0.976614  0.665403
  0Cl  6py       -1.098035  0.000000 -0.000000  0.000000 -0.665403  0.976614
  0Cl  1dz2       0.000000  0.101439 -0.159343  0.050647  0.000000 -0.000000
  0Cl  1dxz      -0.002276  0.000000  0.000000  0.000000 -0.008911 -0.006072
  0Cl  1dyz      -0.002299 -0.000000 -0.000000 -0.000000  0.006072 -0.008911
  0Cl  1dx2y2    -0.000000  0.000000 -0.000000 -0.000000  0.000000  0.000000
  0Cl  1dxy       0.000000 -0.000000  0.000000 -0.000000  0.000000  0.000000
  1H   1s         0.000000  0.127697 -0.083253  0.084021  0.000000 -0.000000
  1H   2s        -0.000000  0.170937 -1.578400  0.762079  0.000000 -0.000000
  1H   3s         0.000000  2.740007  2.771803 -2.150103 -0.000000  0.000000
  1H   1pz       -0.000000 -0.002922 -0.061169 -0.001224 -0.000000 -0.000000
  1H   1px       -0.002364 -0.000000 -0.000000  0.000000  0.003114  0.002122
  1H   1py       -0.002388 -0.000000 -0.000000  0.000000 -0.002122  0.003114
                     18        19        20        21        22        23   
                   0.98947   0.99343   0.99343   1.13804   1.13804   1.32424
                   0.00000   0.00000   0.00000   0.00000   0.00000   0.00000
                  --------  --------  --------  --------  --------  --------
  0Cl  1s         0.032926  0.000000 -0.000000 -0.000000  0.000000 -0.011015
  0Cl  2s         0.090336  0.000000 -0.000000 -0.000000  0.000000 -0.030071
  0Cl  3s        -0.135372 -0.000000  0.000000  0.000000  0.000000  0.043531
  0Cl  4s        -0.647456 -0.000000  0.000000  0.000000 -0.000000  0.229750
  0Cl  5s         2.342837  0.000000 -0.000000 -0.000000  0.000000 -0.839465
  0Cl  6s        -2.720779 -0.000000  0.000000  0.000000 -0.000000  0.900487
  0Cl  1pz        0.031257  0.000000 -0.000000 -0.000000 -0.000000  0.039998
  0Cl  1px        0.000000 -0.000129  0.018454  0.000000  0.000000  0.000000
  0Cl  1py       -0.000000  0.018454  0.000129 -0.000000 -0.000000  0.000000
  0Cl  2pz        0.013585  0.000000 -0.000000 -0.000000  0.000000  0.015815
  0Cl  2px        0.000000 -0.000021  0.002992  0.000000 -0.000000  0.000000
  0Cl  2py        0.000000  0.002992  0.000021 -0.000000 -0.000000  0.000000
  0Cl  3pz       -0.103881 -0.000000  0.000000  0.000000  0.000000 -0.117581
  0Cl  3px       -0.000000  0.000056 -0.007949 -0.000000  0.000000 -0.000000
  0Cl  3py        0.000000 -0.007949 -0.000056  0.000000  0.000000  0.000000
  0Cl  4pz        0.269653  0.000000 -0.000000  0.000000 -0.000000  0.222434
  0Cl  4px       -0.000000  0.000433 -0.061650 -0.000000 -0.000000  0.000000
  0Cl  4py       -0.000000 -0.061650 -0.000433 -0.000000 -0.000000 -0.000000
  0Cl  5pz        0.025999 -0.000000 -0.000000 -0.000000 -0.000000 -0.631130
  0Cl  5px       -0.000000  0.000585 -0.083428  0.000000  0.000000 -0.000000
  0Cl  5py        0.000000 -0.083428 -0.000585  0.000000  0.000000 -0.000000
  0Cl  7s         0.512580  0.000000 -0.000000 -0.000000 -0.000000 -0.474800
  0Cl  6pz        0.236848  0.000000 -0.000000  0.000000  0.000000  0.427267
  0Cl  6px        0.000000 -0.000201  0.028678 -0.000000 -0.000000  0.000000
  0Cl  6py       -0.000000  0.028678  0.000201 -0.000000 -0.000000  0.000000
  0Cl  1dz2       0.141509  0.000000 -0.000000  0.000000  0.000000  0.836131
  0Cl  1dxz      -0.000000  0.005727 -0.816250  0.000000 -0.000000 -0.000000
  0Cl  1dyz       0.000000 -0.816250 -0.005727  0.000000  0.000000 -0.000000
  0Cl  1dx2y2    -0.000000  0.000000 -0.000000  0.049326  0.998783 -0.000000
  0Cl  1dxy      -0.000000  0.000000  0.000000  0.998783 -0.049326 -0.000000
  1H   1s        -0.041430 -0.000000  0.000000 -0.000000  0.000000  0.051464
  1H   2s         0.055619  0.000000 -0.000000 -0.000000 -0.000000 -1.063537
  1H   3s         0.661032  0.000000 -0.000000  0.000000  0.000000  0.783938
  1H   1pz        0.233202  0.000000 -0.000000  0.000000 -0.000000  0.317352
  1H   1px        0.000000 -0.002959  0.421757 -0.000000  0.000000  0.000000
  1H   1py       -0.000000  0.421757  0.002959 -0.000000 -0.000000 -0.000000
                     24        25        26        27        28        29   
                   1.75438   1.75438   2.41702   2.60072   2.60072   2.67812
                   0.00000   0.00000   0.00000   0.00000   0.00000   0.00000
                  --------  --------  --------  --------  --------  --------
  0Cl  1s        -0.000000 -0.000000 -0.003807  0.000000  0.000000 -0.009471
  0Cl  2s         0.000000 -0.000000 -0.012080  0.000000  0.000000 -0.028187
  0Cl  3s        -0.000000 -0.000000  0.033388 -0.000000 -0.000000  0.062817
  0Cl  4s         0.000000  0.000000  0.027078  0.000000 -0.000000  0.141057
  0Cl  5s        -0.000000 -0.000000  0.020806 -0.000000  0.000000 -0.222127
  0Cl  6s         0.000000  0.000000 -0.433323  0.000000  0.000000 -0.826605
  0Cl  1pz        0.000000  0.000000 -0.484954 -0.000000 -0.000000  0.482131
  0Cl  1px       -0.054742 -0.010569  0.000000 -0.688758 -0.374456 -0.000000
  0Cl  1py       -0.010569  0.054742 -0.000000 -0.374456  0.688758  0.000000
  0Cl  2pz        0.000000  0.000000 -0.151113 -0.000000 -0.000000  0.170854
  0Cl  2px       -0.015299 -0.002954  0.000000 -0.226870 -0.123342 -0.000000
  0Cl  2py       -0.002954  0.015299 -0.000000 -0.123342  0.226870  0.000000
  0Cl  3pz       -0.000000 -0.000000  1.065104  0.000000  0.000000 -1.482156
  0Cl  3px        0.085590  0.016525 -0.000000  1.737121  0.944418  0.000000
  0Cl  3py        0.016525 -0.085590  0.000000  0.944418 -1.737121 -0.000000
  0Cl  4pz        0.000000  0.000000 -0.722637 -0.000000 -0.000000  2.696618
  0Cl  4px       -0.004994 -0.000964  0.000000 -1.813786 -0.986098 -0.000000
  0Cl  4py       -0.000964  0.004994 -0.000000 -0.986098  1.813786  0.000000
  0Cl  5pz       -0.000000 -0.000000  0.536962  0.000000  0.000000 -0.854728
  0Cl  5px        0.275279  0.053147 -0.000000  0.980772  0.533215  0.000000
  0Cl  5py        0.053147 -0.275279  0.000000  0.533215 -0.980772 -0.000000
  0Cl  7s         0.000000 -0.000000 -0.514749 -0.000000 -0.000000  0.396786
  0Cl  6pz        0.000000  0.000000  0.148150 -0.000000  0.000000  0.197023
  0Cl  6px       -0.108000 -0.020851  0.000000 -0.429342 -0.233420 -0.000000
  0Cl  6py       -0.020851  0.108000 -0.000000 -0.233420  0.429342  0.000000
  0Cl  1dz2       0.000000  0.000000 -0.407467  0.000000  0.000000 -0.918123
  0Cl  1dxz      -0.618052 -0.119324 -0.000000  0.037476  0.020375  0.000000
  0Cl  1dyz      -0.119324  0.618052  0.000000  0.020375 -0.037476 -0.000000
  0Cl  1dx2y2     0.000000  0.000000  0.000000 -0.000000 -0.000000  0.000000
  0Cl  1dxy       0.000000 -0.000000  0.000000 -0.000000  0.000000  0.000000
  1H   1s         0.000000 -0.000000  0.944842 -0.000000  0.000000 -0.064502
  1H   2s        -0.000000  0.000000 -1.110605  0.000000 -0.000000  1.607768
  1H   3s        -0.000000 -0.000000  1.435611 -0.000000  0.000000 -0.661764
  1H   1pz       -0.000000 -0.000000  0.650575 -0.000000 -0.000000  1.359055
  1H   1px       -0.951936 -0.183786 -0.000000  0.097201  0.052845  0.000000
  1H   1py       -0.183786  0.951936  0.000000  0.052845 -0.097201 -0.000000
                     30        31        32        33        34        35   
                   2.84759  10.27636  26.62329  26.62329  26.76120 219.10396
                   0.00000   0.00000   0.00000   0.00000   0.00000   0.00000
                  --------  --------  --------  --------  --------  --------
  0Cl  1s        -0.004564  0.115791  0.000000 -0.000000 -0.000479 -1.542156
  0Cl  2s        -0.012502  0.482222 -0.000000 -0.000000 -0.001324  1.915130
  0Cl  3s         0.018255 -2.654736  0.000000  0.000000  0.009449 -1.439414
  0Cl  4s         0.109040  3.113941 -0.000000 -0.000000 -0.013607  0.967096
  0Cl  5s        -0.245288 -1.716684  0.000000  0.000000 -0.000811 -0.390288
  0Cl  6s        -0.389887  0.833998 -0.000000  0.000000  0.010660  0.190309
  0Cl  1pz       -0.406140  0.001867  0.000000 -0.000000 -3.424963  0.003254
  0Cl  1px        0.000000 -0.000000 -0.003411 -3.404258  0.000000  0.000000
  0Cl  1py        0.000000  0.000000  3.404258 -0.003411  0.000000  0.000000
  0Cl  2pz       -0.130895 -0.002558  0.000000 -0.000000 -3.452854  0.002584
  0Cl  2px        0.000000 -0.000000 -0.003444 -3.437242  0.000000  0.000000
  0Cl  2py        0.000000  0.000000  3.437242 -0.003444  0.000000  0.000000
  0Cl  3pz        0.954631 -0.050553 -0.000000  0.000000  2.452536 -0.011584
  0Cl  3px       -0.000000 -0.000000  0.002412  2.407128 -0.000000 -0.000000
  0Cl  3py       -0.000000 -0.000000 -2.407128  0.002412 -0.000000 -0.000000
  0Cl  4pz       -0.349619  0.210883  0.000000 -0.000000 -1.321316  0.041396
  0Cl  4px        0.000000  0.000000 -0.001240 -1.237955  0.000000  0.000000
  0Cl  4py        0.000000 -0.000000  1.237955 -0.001240  0.000000  0.000000
  0Cl  5pz        0.681944 -0.109868 -0.000000  0.000000  0.616031 -0.024827
  0Cl  5px       -0.000000 -0.000000  0.000567  0.565605 -0.000000 -0.000000
  0Cl  5py       -0.000000  0.000000 -0.565605  0.000567 -0.000000 -0.000000
  0Cl  7s         0.490329 -0.116957  0.000000 -0.000000 -0.125545 -0.027385
  0Cl  6pz       -0.577695 -0.024559  0.000000 -0.000000 -0.191378 -0.005545
  0Cl  6px        0.000000  0.000000 -0.000251 -0.250379  0.000000  0.000000
  0Cl  6py        0.000000 -0.000000  0.250379 -0.000251  0.000000  0.000000
  0Cl  1dz2      -0.345589 -0.086768 -0.000000  0.000000  0.032871 -0.015817
  0Cl  1dxz       0.000000 -0.000000  0.000006  0.006448 -0.000000 -0.000000
  0Cl  1dyz      -0.000000 -0.000000 -0.006448  0.000006 -0.000000  0.000000
  0Cl  1dx2y2     0.000000 -0.000000  0.000000  0.000000  0.000000 -0.000000
  0Cl  1dxy      -0.000000  0.000000 -0.000000  0.000000 -0.000000  0.000000
  1H   1s        -1.354576 -0.021843  0.000000 -0.000000 -0.061595 -0.004896
  1H   2s         2.388291  0.183858  0.000000 -0.000000 -0.103649  0.035031
  1H   3s        -1.264465 -0.207532 -0.000000  0.000000  0.235692 -0.046418
  1H   1pz        0.673741  0.187735  0.000000 -0.000000 -0.016035  0.035647
  1H   1px       -0.000000  0.000000  0.000026  0.025585 -0.000000  0.000000
  1H   1py       -0.000000 -0.000000 -0.025585  0.000026 -0.000000  0.000000



                    ********************************
                    * MULLIKEN POPULATION ANALYSIS *
                    ********************************

--------------------------------------------
MULLIKEN ATOMIC CHARGES AND SPIN POPULATIONS
--------------------------------------------
   0 Cl:   -0.162270    0.000000
   1 H :    0.162270    0.000000
Sum of atomic charges         :    0.0000000
Sum of atomic spin populations:    0.0000000

-----------------------------------------------------
MULLIKEN REDUCED ORBITAL CHARGES AND SPIN POPULATIONS
-----------------------------------------------------
CHARGE
  0 Cls       :     5.941092  s :     5.941092
      pz      :     3.222093  p :    11.198074
      px      :     3.987991
      py      :     3.987991
      dz2     :     0.022087  d :     0.023105
      dxz     :     0.000509
      dyz     :     0.000509
      dx2y2   :     0.000000
      dxy     :     0.000000
  1 H s       :     0.784772  s :     0.784772
      pz      :     0.029956  p :     0.052958
      px      :     0.011501
      py      :     0.011501

SPIN
  0 Cls       :     0.000000  s :     0.000000
      pz      :     0.000000  p :     0.000000
      px      :     0.000000
      py      :     0.000000
      dz2     :     0.000000  d :     0.000000
      dxz     :     0.000000
      dyz     :     0.000000
      dx2y2   :     0.000000
      dxy     :     0.000000
  1 H s       :     0.000000  s :     0.000000
      pz      :     0.000000  p :     0.000000
      px      :     0.000000
      py      :     0.000000


                     *******************************
                     * LOEWDIN POPULATION ANALYSIS *
                     *******************************

-------------------------------------------
LOEWDIN ATOMIC CHARGES AND SPIN POPULATIONS
-------------------------------------------
   0 Cl:   -0.005201    0.000000
   1 H :    0.005201    0.000000

----------------------------------------------------
LOEWDIN REDUCED ORBITAL CHARGES AND SPIN POPULATIONS
----------------------------------------------------
CHARGE
  0 Cls       :     5.757712  s :     5.757712
      pz      :     3.276566  p :    11.223941
      px      :     3.973688
      py      :     3.973688
      dz2     :     0.023022  d :     0.023547
      dxz     :     0.000263
      dyz     :     0.000263
      dx2y2   :     0.000000
      dxy     :     0.000000
  1 H s       :     0.867122  s :     0.867122
      pz      :     0.075578  p :     0.127677
      px      :     0.026050
      py      :     0.026050

SPIN
  0 Cls       :     0.000000  s :     0.000000
      pz      :     0.000000  p :     0.000000
      px      :     0.000000
      py      :     0.000000
      dz2     :     0.000000  d :     0.000000
      dxz     :     0.000000
      dyz     :     0.000000
      dx2y2   :     0.000000
      dxy     :     0.000000
  1 H s       :     0.000000  s :     0.000000
      pz      :     0.000000  p :     0.000000
      px      :     0.000000
      py      :     0.000000


                      *****************************
                      * MAYER POPULATION ANALYSIS *
                      *****************************

  NA   - Mulliken gross atomic population
  ZA   - Total nuclear charge
  QA   - Mulliken gross atomic charge
  VA   - Mayer's total valence
  BVA  - Mayer's bonded valence
  FA   - Mayer's free valence

  ATOM       NA         ZA         QA         VA         BVA        FA
  0 Cl    17.1623    17.0000    -0.1623     0.9722     0.9722     0.0000
  1 H      0.8377     1.0000     0.1623     0.9722     0.9722    -0.0000

  Mayer bond orders larger than 0.100000
B(  0-Cl,  1-H ) :   0.9722 

Now starting NBO....

 *********************************** NBO 7.0 ***********************************
             N A T U R A L   A T O M I C   O R B I T A L   A N D
          N A T U R A L   B O N D   O R B I T A L   A N A L Y S I S
 *********************** Giovanni  F. Caramori (I101916) ***********************
  (c) Copyright 1996-2020 Board of Regents of the University of Wisconsin System
      on behalf of the Theoretical Chemistry Institute.  All rights reserved.

          Cite this program [NBO 7.0.8 (11-Feb-2020)] as:

          NBO 7.0.  E. D. Glendening, J. K. Badenhoop, A. E. Reed,
          J. E. Carpenter, J. A. Bohmann, C. M. Morales, P. Karafiloglou,
          C. R. Landis, and F. Weinhold, Theoretical Chemistry Institute,
          University of Wisconsin, Madison, WI (2018)

       /NPA    / : Natural Population Analysis
       /NBO    / : Natural Bond Orbital Analysis
       /AONBO  / : Checkpoint the AO to NBO transformation
       /ARCHIVE/ : Write the archive file to lfn47

 Job title: ORCA Job: HCl


 NATURAL POPULATIONS:  Natural atomic orbital occupancies

  NAO Atom No lang   Type(AO)    Occupancy     Spin
 -----------------------------------------------------
   1   Cl  1  s      Cor( 1s)     2.00000     0.00000
   2   Cl  1  s      Cor( 2s)     2.00000     0.00000
   3   Cl  1  s      Val( 3s)     1.89254     0.00000
   4   Cl  1  s      Ryd( 4s)     0.00091     0.00000
   5   Cl  1  s      Ryd( 6s)     0.00000     0.00000
   6   Cl  1  s      Ryd( 5s)     0.00000     0.00000
   7   Cl  1  s      Ryd( 7s)     0.00000     0.00000
   8   Cl  1  px     Cor( 2p)     2.00000     0.00000
   9   Cl  1  px     Val( 3p)     1.99797     0.00000
  10   Cl  1  px     Ryd( 4p)     0.00045     0.00000
  11   Cl  1  px     Ryd( 5p)     0.00000     0.00000
  12   Cl  1  px     Ryd( 6p)     0.00000     0.00000
  13   Cl  1  px     Ryd( 7p)     0.00000     0.00000
  14   Cl  1  py     Cor( 2p)     2.00000     0.00000
  15   Cl  1  py     Val( 3p)     1.99797     0.00000
  16   Cl  1  py     Ryd( 4p)     0.00045     0.00000
  17   Cl  1  py     Ryd( 5p)     0.00000     0.00000
  18   Cl  1  py     Ryd( 6p)     0.00000     0.00000
  19   Cl  1  py     Ryd( 7p)     0.00000     0.00000
  20   Cl  1  pz     Cor( 2p)     2.00000     0.00000
  21   Cl  1  pz     Val( 3p)     1.34757     0.00000
  22   Cl  1  pz     Ryd( 4p)     0.00270     0.00000
  23   Cl  1  pz     Ryd( 5p)     0.00002     0.00000
  24   Cl  1  pz     Ryd( 6p)     0.00000     0.00000
  25   Cl  1  pz     Ryd( 7p)     0.00000     0.00000
  26   Cl  1  dxy    Ryd( 3d)     0.00000     0.00000
  27   Cl  1  dxz    Ryd( 3d)     0.00049     0.00000
  28   Cl  1  dyz    Ryd( 3d)     0.00049     0.00000
  29   Cl  1  dx2y2  Ryd( 3d)     0.00000     0.00000
  30   Cl  1  dz2    Ryd( 3d)     0.00858     0.00000

  31    H  2  s      Val( 1s)     0.74168     0.00000
  32    H  2  s      Ryd( 3s)     0.00030     0.00000
  33    H  2  s      Ryd( 2s)     0.00000     0.00000
  34    H  2  px     Ryd( 2p)     0.00109     0.00000
  35    H  2  py     Ryd( 2p)     0.00109     0.00000
  36    H  2  pz     Ryd( 2p)     0.00570     0.00000


 Summary of Natural Population Analysis:

                                     Natural Population                 Natural
             Natural    ---------------------------------------------    Spin
  Atom No    Charge        Core      Valence    Rydberg      Total      Density
 -------------------------------------------------------------------------------
   Cl  1   -0.25013      9.99999     7.23605    0.01410    17.25013     0.00000
    H  2    0.25013      0.00000     0.74168    0.00819     0.74987     0.00000
 ===============================================================================
 * Total *  0.00000      9.99999     7.97772    0.02228    18.00000     0.00000

                                 Natural Population
 ---------------------------------------------------------
   Core                       9.99999 ( 99.9999% of   10)
   Valence                    7.97772 ( 99.7215% of    8)
   Natural Minimal Basis     17.97772 ( 99.8762% of   18)
   Natural Rydberg Basis      0.02228 (  0.1238% of   18)
 ---------------------------------------------------------

    Atom No         Natural Electron Configuration
 ----------------------------------------------------------------------------
     Cl  1      [core]3s( 1.89)3p( 5.34)3d( 0.01)
      H  2            1s( 0.74)2p( 0.01)


 ***************************************************
 *******         Alpha spin orbitals         *******
 ***************************************************


 NATURAL POPULATIONS:  Natural atomic orbital occupancies

  NAO Atom No lang   Type(AO)    Occupancy      Energy
 -------------------------------------------------------
   1   Cl  1  s      Cor( 1s)     1.00000    -104.84407
   2   Cl  1  s      Cor( 2s)     1.00000     -10.57933
   3   Cl  1  s      Val( 3s)     0.94627      -1.00037
   4   Cl  1  s      Ryd( 4s)     0.00046       1.05350
   5   Cl  1  s      Ryd( 6s)     0.00000       8.17089
   6   Cl  1  s      Ryd( 5s)     0.00000       4.27583
   7   Cl  1  s      Ryd( 7s)     0.00000     217.04601
   8   Cl  1  px     Cor( 2p)     1.00000      -8.04051
   9   Cl  1  px     Val( 3p)     0.99899      -0.47584
  10   Cl  1  px     Ryd( 4p)     0.00022       0.79910
  11   Cl  1  px     Ryd( 5p)     0.00000       1.23708
  12   Cl  1  px     Ryd( 6p)     0.00000       2.64856
  13   Cl  1  px     Ryd( 7p)     0.00000      25.25724
  14   Cl  1  py     Cor( 2p)     1.00000      -8.04051
  15   Cl  1  py     Val( 3p)     0.99899      -0.47584
  16   Cl  1  py     Ryd( 4p)     0.00022       0.79910
  17   Cl  1  py     Ryd( 5p)     0.00000       1.23708
  18   Cl  1  py     Ryd( 6p)     0.00000       2.64856
  19   Cl  1  py     Ryd( 7p)     0.00000      25.25724
  20   Cl  1  pz     Cor( 2p)     1.00000      -8.04384
  21   Cl  1  pz     Val( 3p)     0.67378      -0.32829
  22   Cl  1  pz     Ryd( 4p)     0.00135       0.84090
  23   Cl  1  pz     Ryd( 5p)     0.00001       1.01612
  24   Cl  1  pz     Ryd( 6p)     0.00000       2.59705
  25   Cl  1  pz     Ryd( 7p)     0.00000      25.51991
  26   Cl  1  dxy    Ryd( 3d)     0.00000       1.13804
  27   Cl  1  dxz    Ryd( 3d)     0.00024       1.20993
  28   Cl  1  dyz    Ryd( 3d)     0.00024       1.20993
  29   Cl  1  dx2y2  Ryd( 3d)     0.00000       1.13804
  30   Cl  1  dz2    Ryd( 3d)     0.00429       1.62097

  31    H  2  s      Val( 1s)     0.37084      -0.05906
  32    H  2  s      Ryd( 3s)     0.00015       2.29588
  33    H  2  s      Ryd( 2s)     0.00000       0.82823
  34    H  2  px     Ryd( 2p)     0.00055       1.53617
  35    H  2  py     Ryd( 2p)     0.00055       1.53617
  36    H  2  pz     Ryd( 2p)     0.00285       2.22022


 Summary of Natural Population Analysis:

                                     Natural Population
             Natural    ---------------------------------------------
  Atom No    Charge        Core      Valence    Rydberg      Total
 --------------------------------------------------------------------
   Cl  1   -0.12507      5.00000     3.61802    0.00705     8.62507
    H  2    0.12507      0.00000     0.37084    0.00409     0.37493
 ====================================================================
 * Total *  0.00000      5.00000     3.98886    0.01114     9.00000

                                 Natural Population
 ---------------------------------------------------------
   Core                       5.00000 ( 99.9999% of    5)
   Valence                    3.98886 ( 99.7215% of    4)
   Natural Minimal Basis      8.98886 ( 99.8762% of    9)
   Natural Rydberg Basis      0.01114 (  0.1238% of    9)
 ---------------------------------------------------------

    Atom No         Natural Electron Configuration
 ----------------------------------------------------------------------------
     Cl  1      [core]3s( 0.95)3p( 2.67)
      H  2            1s( 0.37)


 NATURAL BOND ORBITAL ANALYSIS, alpha spin orbitals:

                            Occupancies       Lewis Structure    Low   High
         Max    Occ     -------------------  -----------------   occ   occ
  Cycle  Ctr   Thresh    Lewis   non-Lewis     CR  BD  nC  LP    (L)   (NL)
 ============================================================================
    1     2     0.95     8.99874   0.00126      5   1   0   3     0      0
 ----------------------------------------------------------------------------

 Structure accepted: No low occupancy Lewis orbitals

 -------------------------------------------------------
   Core                      5.00000 (100.000% of   5)
   Valence Lewis             3.99875 ( 99.969% of   4)
  ==================      =============================
   Total Lewis               8.99874 ( 99.986% of   9)
  -----------------------------------------------------
   Valence non-Lewis         0.00000 (  0.000% of   9)
   Rydberg non-Lewis         0.00126 (  0.014% of   9)
  ==================      =============================
   Total non-Lewis           0.00126 (  0.014% of   9)
 -------------------------------------------------------


     (Occupancy)   Bond orbital / Coefficients / Hybrids
 ------------------ Lewis ------------------------------------------------------
   1. (1.00000) CR ( 1)Cl  1            s(100.00%)
                                         1.0000  0.0000  0.0000  0.0000  0.0000
                                         0.0000  0.0000  0.0000  0.0000  0.0000
                                         0.0000  0.0000  0.0000  0.0000  0.0000
                                         0.0000  0.0000  0.0000  0.0000  0.0000
                                         0.0000  0.0000  0.0000  0.0000  0.0000
                                         0.0000  0.0000  0.0000  0.0000  0.0000
   2. (1.00000) CR ( 2)Cl  1            s(100.00%)
                                         0.0000  1.0000  0.0000  0.0000  0.0000
                                         0.0000  0.0000  0.0000  0.0000  0.0000
                                         0.0000  0.0000  0.0000  0.0000  0.0000
                                         0.0000  0.0000  0.0000  0.0000  0.0000
                                         0.0000  0.0000  0.0000  0.0000  0.0000
                                         0.0000  0.0000  0.0000  0.0000  0.0000
   3. (1.00000) CR ( 3)Cl  1            s(  0.00%)p 1.00(100.00%)
                                         0.0000  0.0000  0.0000  0.0000  0.0000
                                         0.0000  0.0000  1.0000  0.0000  0.0000
                                         0.0000  0.0000  0.0000  0.0000  0.0000
                                         0.0000  0.0000  0.0000  0.0000  0.0000
                                         0.0000  0.0000  0.0000  0.0000  0.0000
                                         0.0000  0.0000  0.0000  0.0000  0.0000
   4. (1.00000) CR ( 4)Cl  1            s(  0.00%)p 1.00(100.00%)
                                         0.0000  0.0000  0.0000  0.0000  0.0000
                                         0.0000  0.0000  0.0000  0.0000  0.0000
                                         0.0000  0.0000  0.0000  1.0000  0.0000
                                         0.0000  0.0000  0.0000  0.0000  0.0000
                                         0.0000  0.0000  0.0000  0.0000  0.0000
                                         0.0000  0.0000  0.0000  0.0000  0.0000
   5. (1.00000) CR ( 5)Cl  1            s(  0.00%)p 1.00(100.00%)
                                         0.0000  0.0000  0.0000  0.0000  0.0000
                                         0.0000  0.0000  0.0000  0.0000  0.0000
                                         0.0000  0.0000  0.0000  0.0000  0.0000
                                         0.0000  0.0000  0.0000  0.0000  1.0000
                                         0.0000  0.0000  0.0000  0.0000  0.0000
                                         0.0000  0.0000  0.0000  0.0000  0.0000
   6. (0.99984) LP ( 1)Cl  1            s( 85.72%)p 0.17( 14.26%)d 0.00(  0.02%)
                                         0.0000  0.0000  0.9258 -0.0066  0.0000
                                         0.0000  0.0000  0.0000  0.0000  0.0000
                                         0.0000  0.0000  0.0000  0.0000  0.0000
                                         0.0000  0.0000  0.0000  0.0000  0.0000
                                         0.3774  0.0125  0.0028  0.0000  0.0000
                                         0.0000  0.0000  0.0000  0.0000 -0.0146
   7. (0.99945) LP ( 2)Cl  1            s(  0.00%)p 1.00( 99.98%)d 0.00(  0.02%)
                                         0.0000  0.0000  0.0000  0.0000  0.0000
                                         0.0000  0.0000  0.0000  0.9998 -0.0150
                                        -0.0001  0.0000  0.0000  0.0000  0.0000
                                         0.0000  0.0000  0.0000  0.0000  0.0000
                                         0.0000  0.0000  0.0000  0.0000  0.0000
                                         0.0000 -0.0156  0.0000  0.0000  0.0000
   8. (0.99945) LP ( 3)Cl  1            s(  0.00%)p 1.00( 99.98%)d 0.00(  0.02%)
                                         0.0000  0.0000  0.0000  0.0000  0.0000
                                         0.0000  0.0000  0.0000  0.0000  0.0000
[...]
                                         0.0000  0.0000  0.0000  0.0000  0.0022
                                         0.0137  0.9994  0.0102  0.0301  0.0000
                                         0.0000  0.0000  0.0000  0.0000  0.0000
                                         0.0000  0.0000 -0.0066  0.0000  0.0000
  22. (0.00030) RY (12)Cl  1            s( 79.00%)p 0.26( 20.90%)d 0.00(  0.10%)
                                         0.0000  0.0000 -0.0010 -0.0031  0.8888
                                        -0.0070  0.0022  0.0000  0.0000  0.0000
                                         0.0000  0.0000  0.0000  0.0000  0.0000
                                         0.0000  0.0000  0.0000  0.0000  0.0000
                                         0.0055 -0.0078 -0.4570  0.0036 -0.0056
                                         0.0000  0.0000  0.0000  0.0000  0.0323
  23. (0.00021) RY (13)Cl  1            s( 21.22%)p 3.71( 78.72%)d 0.00(  0.06%)
                                         0.0000  0.0000  0.0012 -0.0612  0.4526
                                         0.0600  0.0033  0.0000  0.0000  0.0000
                                         0.0000  0.0000  0.0000  0.0000  0.0000
                                         0.0000  0.0000  0.0000  0.0000  0.0000
                                        -0.0107  0.1183  0.8792 -0.0032  0.0110
                                         0.0000  0.0000  0.0000  0.0000  0.0244
  24. (0.00003) RY (14)Cl  1            s( 98.91%)p 0.01(  1.03%)d 0.00(  0.07%)
  25. (0.00002) RY (15)Cl  1            s( 99.47%)p 0.01(  0.53%)d 0.00(  0.00%)
  26. (0.00001) RY (16)Cl  1            s(  0.00%)p 1.00(100.00%)d 0.00(  0.00%)
  27. (0.00001) RY (17)Cl  1            s(  0.00%)p 1.00(100.00%)d 0.00(  0.00%)
  28. (0.00001) RY (18)Cl  1            s(  0.57%)p99.99( 99.43%)d 0.00(  0.00%)
  29. (0.00001) RY (19)Cl  1            s(  0.58%)p99.99( 99.34%)d 0.15(  0.09%)
  30. (-.00001) RY (20)Cl  1            s(  0.00%)p 1.00(100.00%)d 0.00(  0.00%)
  31. (-.00001) RY (21)Cl  1            s(  0.00%)p 1.00(100.00%)d 0.00(  0.00%)
  32. (0.00164) RY ( 1) H  2            s(  0.00%)p 1.00(100.00%)
                                         0.0000  0.0000  0.0000  1.0000  0.0000
                                         0.0000
  33. (0.00164) RY ( 2) H  2            s(  0.00%)p 1.00(100.00%)
                                         0.0000  0.0000  0.0000  0.0000  1.0000
                                         0.0000
  34. (0.00105) RY ( 3) H  2            s( 61.28%)p 0.63( 38.72%)
                                         0.0454  0.7796 -0.0552  0.0000  0.0000
                                        -0.6222
  35. (0.00032) RY ( 4) H  2            s( 46.47%)p 1.15( 53.53%)
                                        -0.0535  0.6085  0.3026  0.0000  0.0000
                                         0.7316
  36. (0.00010) RY ( 5) H  2            s( 92.78%)p 0.08(  7.22%)


 NHO DIRECTIONALITY AND BOND BENDING (deviation from line of nuclear centers at
                                      the position of maximum hybrid amplitude)

         [Thresholds for printing:  angular deviation  >  1.0 degree]
                                    p- or d-character  > 25.0%
                                    orbital occupancy  >  0.10e

                        Line of Centers        Hybrid 1             Hybrid 2
                        ---------------  -------------------  ------------------
           NBO            Theta   Phi    Theta   Phi    Dev   Theta   Phi    Dev
 ===============================================================================
   7. LP ( 2)Cl  1          --     --     93.1  180.0   --      --     --    --
   8. LP ( 3)Cl  1          --     --     93.1   90.0   --      --     --    --


 NATURAL BOND ORBITALS (Summary):

           NBO                 Occupancy
 ========================================
 Molecular unit  1  (HCl)
 ------ Lewis ---------------------------
    1. CR ( 1)Cl  1             0.99998
    2. CR ( 2)Cl  1             0.99972
    3. CR ( 3)Cl  1             0.99967
    4. CR ( 4)Cl  1             0.99967
    5. CR ( 5)Cl  1             0.99963
    6. LP ( 1)Cl  1             0.99108
    7. LP ( 2)Cl  1             0.98568
    8. LP ( 3)Cl  1             0.98568
    9. BD ( 1)Cl  1- H  2       0.98616
 ------ non-Lewis -----------------------
   10. BD*( 1)Cl  1- H  2       0.00972
   11. RY ( 1)Cl  1             0.00506
   12. RY ( 2)Cl  1             0.00506
   13. RY ( 3)Cl  1             0.00500
   14. RY ( 4)Cl  1             0.00500
   15. RY ( 5)Cl  1             0.00439
   16. RY ( 6)Cl  1             0.00439
   17. RY ( 7)Cl  1             0.00408
   18. RY ( 8)Cl  1             0.00312
   19. RY ( 9)Cl  1             0.00100
   20. RY (10)Cl  1             0.00030
   21. RY (11)Cl  1             0.00030
   22. RY (12)Cl  1             0.00030
   23. RY (13)Cl  1             0.00021
   24. RY (14)Cl  1             0.00003
   25. RY (15)Cl  1             0.00002
   26. RY (16)Cl  1             0.00001
   27. RY (17)Cl  1             0.00001
   28. RY (18)Cl  1             0.00001
   29. RY (19)Cl  1             0.00001
   30. RY (20)Cl  1            -0.00001
   31. RY (21)Cl  1            -0.00001
   32. RY ( 1) H  2             0.00164
   33. RY ( 2) H  2             0.00164
   34. RY ( 3) H  2             0.00105
   35. RY ( 4) H  2             0.00032
   36. RY ( 5) H  2             0.00010
          -------------------------------
                 Total Lewis    8.94728  ( 99.4142%)
           Valence non-Lewis    0.00972  (  0.1080%)
           Rydberg non-Lewis    0.04301  (  0.4779%)
          -------------------------------
               Total unit  1    9.00000  (100.0000%)
              Charge unit  1    0.00000

 $CHOOSE
  ALPHA
   LONE 1 3 END
   BOND S 1 2 END
  END
  BETA
   LONE 1 3 END
   BOND S 1 2 END
  END
 $END

 NBO analysis completed in 0.08 CPU seconds (0 wall seconds)
 Maximum scratch memory used by NBO was 401718 words (3.06 MB)
Stopping NBO...Storing NBOs: HCl.pmp2re.nbo

                                *** returned from   NBO  program ***


----------------------------------
MP2 DERIVATIVE INTEGRAL GENERATION
----------------------------------


Input Wavefunction Amplitudes       ... HCl.mp2tbb.tmp
Input Correlated Electron Density   ... HCl.pmp2re
Input Energy Weighted Density       ... HCl.wmp2.tmp
Input SCF Electron Density          ... HCl.scfp

One-Electron Terms    ...
                        ... One-Electron Terms done
Prescreening matrices              ... done

Batch handling in the gradient evaluation:
Memory available                      ... 3000.0 MB
Memory per occupied orbital in Q2     ...    0.2 MB
Memory per occupied orbital in Q3     ...    0.0 MB
Total memory requirement per |i>      ...    0.2 MB
Max. Number of orbitals possible      ...  16229
Number of orbitals treated per batch  ...     18
Number of batches to be done          ...      1
Batch   0: i=    0 ...    17

---------------------------------------
MP2 TOTAL ENERGY:     -460.294206979 Eh
---------------------------------------

-----------------------------------
NORM OF THE MP2 GRADIENT:  0.000000
-----------------------------------

-------------------------   --------------------
FINAL SINGLE POINT ENERGY      -460.294206979136
-------------------------   --------------------

                                *** OPTIMIZATION RUN DONE ***

                            ***************************************
                            *     ORCA property calculations      *
                            ***************************************

                                    ---------------------
                                    Active property flags
                                    ---------------------
   (+) Dipole Moment


------------------------------------------------------------------------------
                       ORCA ELECTRIC PROPERTIES CALCULATION
------------------------------------------------------------------------------

Dipole Moment Calculation                       ... on
Quadrupole Moment Calculation                   ... off
Polarizability Calculation                      ... off
GBWName                                         ... HCl.gbw
Electron density file                           ... HCl.scfp
The origin for moment calculation is the CENTER OF MASS  = ( 0.000000,  0.000000  0.000655)

-------------
DIPOLE MOMENT
-------------
                                X             Y             Z
Electronic contribution:      0.00000       0.00000       0.64070
Nuclear contribution   :      0.00000       0.00000      -1.20879
                        -----------------------------------------
Total Dipole Moment    :      0.00000       0.00000      -0.56809
                        -----------------------------------------
Magnitude (a.u.)       :      0.56809
Magnitude (Debye)      :      1.44397



--------------------
Rotational spectrum 
--------------------
 
Rotational constants in cm-1:     0.000000    10.608618    10.608618 
Rotational constants in MHz :     0.000000 318038.352439 318038.352439 

 Dipole components along the rotational axes: 
x,y,z [a.u.] :    -0.568091     0.000000     0.000000 
x,y,z [Debye]:    -1.443972     0.000000     0.000000 

 

                         *** MP2 UNRELAXED DENSITY ***

------------------------------------------------------------------------------
                       ORCA ELECTRIC PROPERTIES CALCULATION
------------------------------------------------------------------------------

Dipole Moment Calculation                       ... on
Quadrupole Moment Calculation                   ... off
Polarizability Calculation                      ... off
GBWName                                         ... HCl.gbw
Electron density file                           ... HCl.pmp2ur
The origin for moment calculation is the CENTER OF MASS  = ( 0.000000,  0.000000  0.000655)

-------------
DIPOLE MOMENT
-------------
                                X             Y             Z
Electronic contribution:      0.00000       0.00000       0.64746
Nuclear contribution   :      0.00000       0.00000      -1.20879
                        -----------------------------------------
Total Dipole Moment    :      0.00000       0.00000      -0.56133
                        -----------------------------------------
Magnitude (a.u.)       :      0.56133
Magnitude (Debye)      :      1.42679



--------------------
Rotational spectrum 
--------------------
 
Rotational constants in cm-1:     0.000000    10.608618    10.608618 
Rotational constants in MHz :     0.000000 318038.352439 318038.352439 

 Dipole components along the rotational axes: 
x,y,z [a.u.] :    -0.561332     0.000000     0.000000 
x,y,z [Debye]:    -1.426793     0.000000     0.000000 

 

                           *** MP2 RELAXED DENSITY ***

------------------------------------------------------------------------------
                       ORCA ELECTRIC PROPERTIES CALCULATION
------------------------------------------------------------------------------

Dipole Moment Calculation                       ... on
Quadrupole Moment Calculation                   ... off
Polarizability Calculation                      ... off
GBWName                                         ... HCl.gbw
Electron density file                           ... HCl.pmp2re
The origin for moment calculation is the CENTER OF MASS  = ( 0.000000,  0.000000  0.000655)

-------------
DIPOLE MOMENT
-------------
                                X             Y             Z
Electronic contribution:      0.00000       0.00000       0.66756
Nuclear contribution   :      0.00000       0.00000      -1.20879
                        -----------------------------------------
Total Dipole Moment    :      0.00000       0.00000      -0.54123
                        -----------------------------------------
Magnitude (a.u.)       :      0.54123
Magnitude (Debye)      :      1.37570



--------------------
Rotational spectrum 
--------------------
 
Rotational constants in cm-1:     0.000000    10.608618    10.608618 
Rotational constants in MHz :     0.000000 318038.352439 318038.352439 

 Dipole components along the rotational axes: 
x,y,z [a.u.] :    -0.541231     0.000000     0.000000 
x,y,z [Debye]:    -1.375699     0.000000     0.000000 

 
------------------------------------------------------------------------------
                         ORCA MP2 H E S S I A N CALCULATION
------------------------------------------------------------------------------

Calculating analytic MP2 second derivatives ... (>HCl.last_mp2) done
Warning: T+R mode no 5 is zero 

-----------------------
VIBRATIONAL FREQUENCIES
-----------------------

Scaling factor for frequencies =  1.000000000  (already applied!)

   0:         0.00 cm**-1
   1:         0.00 cm**-1
   2:         0.00 cm**-1
   3:         0.00 cm**-1
   4:         0.00 cm**-1
   5:      3083.60 cm**-1


------------
NORMAL MODES
------------

These modes are the Cartesian displacements weighted by the diagonal matrix
M(i,i)=1/sqrt(m[i]) where m[i] is the mass of the displaced atom
Thus, these vectors are normalized but *not* orthogonal

                  0          1          2          3          4          5    
      0       0.000000   0.000000   0.000000   0.000000   0.000000   0.000000
      1       0.000000   0.000000   0.000000   0.000000   0.000000   0.000000
      2       0.000000   0.000000   0.000000   0.000000   0.000000   0.028421
      3       0.000000   0.000000   0.000000   0.000000   0.000000   0.000000
      4       0.000000   0.000000   0.000000   0.000000   0.000000   0.000000
      5       0.000000   0.000000   0.000000   0.000000   0.000000  -0.999596


-----------
IR SPECTRUM
-----------

 Mode    freq (cm**-1)   T**2         TX         TY         TZ
-------------------------------------------------------------------
   5:      3083.60   34.974165  ( -0.000000  -0.000000  -5.913896)

The first frequency considered to be a vibration is 5
The total number of vibrations considered is 1


--------------------------
THERMOCHEMISTRY AT 298.15K
--------------------------

Temperature         ... 298.15 K
Pressure            ... 1.00 atm
Total Mass          ... 36.46 AMU
The molecule is recognized as being linear

Throughout the following assumptions are being made:
  (1) The electronic state is orbitally nondegenerate
  (2) There are no thermally accessible electronically excited states
  (3) Hindered rotations indicated by low frequency modes are not
      treated as such but are treated as vibrations and this may
      cause some error
  (4) All equations used are the standard statistical mechanics
      equations for an ideal gas
  (5) All vibrations are strictly harmonic

freq.    3083.60  E(vib)   ...       0.00 

------------
INNER ENERGY
------------

The inner energy is: U= E(el) + E(ZPE) + E(vib) + E(rot) + E(trans)
    E(el)   - is the total energy from the electronic structure calculation
              = E(kin-el) + E(nuc-el) + E(el-el) + E(nuc-nuc)
    E(ZPE)  - the the zero temperature vibrational energy from the frequency calculation
    E(vib)  - the the finite temperature correction to E(ZPE) due to population
              of excited vibrational states
    E(rot)  - is the rotational thermal energy
    E(trans)- is the translational thermal energy

Summary of contributions to the inner energy U:
Electronic energy                ...   -460.29420698 Eh
Zero point energy                ...      0.00702497 Eh       4.41 kcal/mol
Thermal vibrational correction   ...      0.00000000 Eh       0.00 kcal/mol
Thermal rotational correction    ...      0.00094418 Eh       0.59 kcal/mol
Thermal translational correction ...      0.00141627 Eh       0.89 kcal/mol
-----------------------------------------------------------------------
Total thermal energy                   -460.28482155 Eh


Summary of corrections to the electronic energy:
(perhaps to be used in another calculation)
Total thermal correction                  0.00236046 Eh       1.48 kcal/mol
Non-thermal (ZPE) correction              0.00702497 Eh       4.41 kcal/mol
-----------------------------------------------------------------------
Total correction                          0.00938542 Eh       5.89 kcal/mol


--------
ENTHALPY
--------

The enthalpy is H = U + kB*T
                kB is Boltzmann's constant
Total free energy                 ...   -460.28482155 Eh 
Thermal Enthalpy correction       ...      0.00094421 Eh       0.59 kcal/mol
-----------------------------------------------------------------------
Total Enthalpy                    ...   -460.28387735 Eh


Note: Rotational entropy computed according to Herzberg 
Infrared and Raman Spectra, Chapter V,1, Van Nostrand Reinhold, 1945 
Point Group:  Cinfv, Symmetry Number:   1  
Rotational constants in cm-1:     0.000000    10.608618    10.608618 

Vibrational entropy computed according to the QRRHO of S. Grimme
Chem.Eur.J. 2012 18 9955


-------
ENTROPY
-------

The entropy contributions are T*S = T*(S(el)+S(vib)+S(rot)+S(trans))
     S(el)   - electronic entropy
     S(vib)  - vibrational entropy
     S(rot)  - rotational entropy
     S(trans)- translational entropy
The entropies will be listed as mutliplied by the temperature to get
units of energy

Electronic entropy                ...      0.00000000 Eh      0.00 kcal/mol
Vibrational entropy               ...      0.00000000 Eh      0.00 kcal/mol
Rotational entropy                ...      0.00375042 Eh      2.35 kcal/mol
Translational entropy             ...      0.01744233 Eh     10.95 kcal/mol
-----------------------------------------------------------------------
Final entropy term                ...      0.02119275 Eh     13.30 kcal/mol

In case the symmetry of your molecule has not been determined correctly
or in case you have a reason to use a different symmetry number we print 
out the resulting rotational entropy values for sn=1,12 :
 --------------------------------------------------------
|  sn= 1 | S(rot)=             -inf Eh      -inf kcal/mol|
|  sn= 2 | S(rot)=             -inf Eh      -inf kcal/mol|
|  sn= 3 | S(rot)=             -inf Eh      -inf kcal/mol|
|  sn= 4 | S(rot)=             -inf Eh      -inf kcal/mol|
|  sn= 5 | S(rot)=             -inf Eh      -inf kcal/mol|
|  sn= 6 | S(rot)=             -inf Eh      -inf kcal/mol|
|  sn= 7 | S(rot)=             -inf Eh      -inf kcal/mol|
|  sn= 8 | S(rot)=             -inf Eh      -inf kcal/mol|
|  sn= 9 | S(rot)=             -inf Eh      -inf kcal/mol|
|  sn=10 | S(rot)=             -inf Eh      -inf kcal/mol|
|  sn=11 | S(rot)=             -inf Eh      -inf kcal/mol|
|  sn=12 | S(rot)=             -inf Eh      -inf kcal/mol|
 --------------------------------------------------------


-------------------
GIBBS FREE ENERGY
-------------------

The Gibbs free energy is G = H - T*S

Total enthalpy                    ...   -460.28387735 Eh 
Total entropy correction          ...     -0.02119275 Eh    -13.30 kcal/mol
-----------------------------------------------------------------------
Final Gibbs free energy         ...   -460.30507010 Eh

For completeness - the Gibbs free energy minus the electronic energy
G-E(el)                           ...     -0.01086312 Eh     -6.82 kcal/mol


Timings for individual modules:

Sum of individual times         ...       22.393 sec (=   0.373 min)
GTO integral calculation        ...        2.758 sec (=   0.046 min)  12.3 %
SCF iterations                  ...        6.770 sec (=   0.113 min)  30.2 %
MP2 module                      ...        6.975 sec (=   0.116 min)  31.1 %
Geometry relaxation             ...        0.080 sec (=   0.001 min)   0.4 %
Analytical frequency calculation...        5.810 sec (=   0.097 min)  25.9 %
                             ****ORCA TERMINATED NORMALLY****
TOTAL RUN TIME: 0 days 0 hours 0 minutes 23 seconds 115 msec
