(SLURM) JOB ID:         11

                                 *****************
                                 * O   R   C   A *
                                 *****************

           --- An Ab Initio, DFT and Semiempirical electronic structure package ---

                  #######################################################
                  #                        -***-                        #
                  #          Department of theory and spectroscopy      #
                  #               Directorship: Frank Neese             #
                  #        Max Planck Institute fuer Kohlenforschung    #
                  #                Kaiser Wilhelm Platz 1               #
                  #                 D-45470 Muelheim/Ruhr               #
                  #                      Germany                        #
                  #                                                     #
                  #                  All rights reserved                #
                  #                        -***-                        #
                  #######################################################


                         Program Version 4.2.1 -  RELEASE  -


 With contributions from (in alphabetic order):
   Daniel Aravena         : Magnetic Suceptibility
   Michael Atanasov       : Ab Initio Ligand Field Theory (pilot matlab implementation)
   Alexander A. Auer      : GIAO ZORA, VPT2
   Ute Becker             : Parallelization
   Giovanni Bistoni       : ED, misc. LED, open-shell LED, HFLD
   Martin Brehm           : Molecular dynamics
   Dmytro Bykov           : SCF Hessian
   Vijay G. Chilkuri      : MRCI spin determinant printing, contributions to CSF-ICE
   Dipayan Datta          : RHF DLPNO-CCSD density
   Achintya Kumar Dutta   : EOM-CC, STEOM-CC
   Dmitry Ganyushin       : Spin-Orbit,Spin-Spin,Magnetic field MRCI
   Miquel Garcia          : C-PCM Hessian, Gaussian charge scheme
   Yang Guo               : DLPNO-NEVPT2, CIM, IAO-localization
   Andreas Hansen         : Spin unrestricted coupled pair/coupled cluster methods
   Benjamin Helmich-Paris : CASSCF linear response (MC-RPA)
   Lee Huntington         : MR-EOM, pCC
   Robert Izsak           : Overlap fitted RIJCOSX, COSX-SCS-MP3, EOM
   Christian Kollmar      : KDIIS, OOCD, Brueckner-CCSD(T), CCSD density
   Simone Kossmann        : Meta GGA functionals, TD-DFT gradient, OOMP2, MP2 Hessian
   Martin Krupicka        : AUTO-CI
   Lucas Lang             : DCDCAS
   Dagmar Lenk            : GEPOL surface, SMD
   Dimitrios Liakos       : Extrapolation schemes; Compound Job, initial MDCI parallelization
   Dimitrios Manganas     : Further ROCIS development; embedding schemes
   Dimitrios Pantazis     : SARC Basis sets
   Taras Petrenko         : DFT Hessian,TD-DFT gradient, ASA, ECA, R-Raman, ABS, FL, XAS/XES, NRVS
   Peter Pinski           : DLPNO-MP2, DLPNO-MP2 Gradient
   Christoph Reimann      : Effective Core Potentials
   Marius Retegan         : Local ZFS, SOC
   Christoph Riplinger    : Optimizer, TS searches, QM/MM, DLPNO-CCSD(T), (RO)-DLPNO pert. Triples
   Tobias Risthaus        : Range-separated hybrids, TD-DFT gradient, RPA, STAB
   Michael Roemelt        : Original ROCIS implementation
   Masaaki Saitow         : Open-shell DLPNO-CCSD energy and density
   Barbara Sandhoefer     : DKH picture change effects
   Avijit Sen             : IP-ROCIS
   Kantharuban Sivalingam : CASSCF convergence, NEVPT2, FIC-MRCI
   Bernardo de Souza      : ESD, SOC TD-DFT
   Georgi Stoychev        : AutoAux, RI-MP2 NMR
   Willem Van den Heuvel  : Paramagnetic NMR
   Boris Wezisla          : Elementary symmetry handling
   Frank Wennmohs         : Technical directorship


 We gratefully acknowledge several colleagues who have allowed us to
 interface, adapt or use parts of their codes:
   Stefan Grimme, W. Hujo, H. Kruse,             : VdW corrections, initial TS optimization,
                  C. Bannwarth                     DFT functionals, gCP, sTDA/sTD-DF
   Ed Valeev, F. Pavosevic, A. Kumar             : LibInt (2-el integral package), F12 methods
   Garnet Chan, S. Sharma, J. Yang, R. Olivares  : DMRG
   Ulf Ekstrom                                   : XCFun DFT Library
   Mihaly Kallay                                 : mrcc  (arbitrary order and MRCC methods)
   Andreas Klamt, Michael Diedenhofen            : otool_cosmo (COSMO solvation model)
   Jiri Pittner, Ondrej Demel                    : Mk-CCSD
   Frank Weinhold                                : gennbo (NPA and NBO analysis)
   Christopher J. Cramer and Donald G. Truhlar   : smd solvation model
   Lars Goerigk                                  : TD-DFT with DH, B97 family of functionals
   V. Asgeirsson, H. Jonsson                     : NEB implementation
   FAccTs GmbH                                   : IRC, NEB, NEB-TS, Multilevel, MM, QM/MM, CI optimization
   S Lehtola, MJT Oliveira, MAL Marques          : LibXC Library


 Your calculation uses the libint2 library for the computation of 2-el integrals
 For citations please refer to: http://libint.valeyev.net

 Your ORCA version has been built with support for libXC version: 4.2.3
 For citations please refer to: https://tddft.org/programs/libxc/

 This ORCA versions uses:
   CBLAS   interface :  Fast vector & matrix operations
   LAPACKE interface :  Fast linear algebra routines
   SCALAPACK package :  Parallel linear algebra routines




***************************************
The coordinates will be read from file: init.xyz
***************************************


Your calculation utilizes the SMD solvation module
Please cite in your paper:
A.V. Marenich, C.J. Cramer, D.G. Truhlar J. Phys. Chem. B, 113, (2009), 6378 

Your calculation utilizes the semiempirical GFN2-xTB method
Please cite in your paper:
C. Bannwarth, Ehlert S., S. Grimme,  J. Chem. Theory Comput., 15, (2019), 1652.
   

----- Orbital basis set information -----
Your calculation utilizes the basis: def2-SVP
   F. Weigend and R. Ahlrichs, Phys. Chem. Chem. Phys. 7, 3297 (2005).

================================================================================
                                        WARNINGS
                       Please study these warnings very carefully!
================================================================================

WARNING: Gradients needed for Numerical Frequencies
  ===> : Setting RunTyp to EnGrad

WARNING: The environment variable RSH_COMMAND is not set!
  ===> : All Displacements for the Numerical Hessian calculation
         will be started on localhost

WARNING: Found dipole moment calculation with XTB calculation
  ===> : Switching off dipole moment calculation


INFO   : the flag for use of LIBINT has been found!

================================================================================
                                       INPUT FILE
================================================================================
NAME = /tmp/slurm-scratch/freq.11/freq.inp
|  1> ! XTB2 NumFreq
|  2> %maxcore 1450
|  3> 
|  4> * xyzfile 0 1 init.xyz
|  5> 
|  6> %cpcm
|  7>  smd true
|  8>  smdsolvent "ch2cl2"
|  9> end
| 10> %pal nprocs 8 end
| 11> 
| 12>                          ****END OF INPUT****
================================================================================

                     *******************************
                     * Energy+Gradient Calculation *
                     *******************************

      -----------------------------------------------------------      
     |                   =====================                   |     
     |                           x T B                           |     
     |                   =====================                   |     
     |                         S. Grimme                         |     
     |          Mulliken Center for Theoretical Chemistry        |     
     |                    University of Bonn                     |     
      -----------------------------------------------------------      

   * xtb version 6.3.0 (preview) compiled by 'ehlert@majestix' on 2020-01-15

   This program is distributed in the hope that it will be useful,
   but WITHOUT ANY WARRANTY; without even the implied warranty of
   MERCHANTABILITY or FITNESS FOR A PARTICULAR PURPOSE.
   
   FOR NON-COMMERCIAL, ACADEMIA USE ONLY.
   
   Cite this work as:
   * S. Grimme, C. Bannwarth, P. Shushkov, J. Chem. Theory Comput., 2017,
     13, 1989-2009. DOI: 10.1021/acs.jctc.7b00118
   * C. Bannwarth, S. Ehlert and S. Grimme., J. Chem. Theory Comput., 2019,
     15, 1652-1671. DOI: 10.1021/acs.jctc.8b01176
   * P. Pracht, E. Caldeweyher, S. Ehlert, S. Grimme, ChemRxiv, 2019, preprint.
     DOI: 10.26434/chemrxiv.8326202.v1
   * S. Grimme, S. Spicher unpublished
   
   for DFT-D4:
   * E. Caldeweyher, C. Bannwarth and S. Grimme, J. Chem. Phys., 2017,
     147, 034112. DOI: 10.1063/1.4993215
   * E. Caldeweyher, S. Ehlert, A. Hansen, H. Neugebauer, S. Spicher,
     C. Bannwarth and S. Grimme, J. Chem. Phys., 2019, 150, 154122.
     DOI: 10.1063/1.5090222
   
   for sTDA-xTB:
   * S. Grimme and C. Bannwarth, J. Chem. Phys., 2016, 145, 054103.
     DOI: 10.1063/1.4959605
   
   in the mass-spec context:
   * V. Asgeirsson, C. Bauer and S. Grimme, Chem. Sci., 2017, 8, 4879.
     DOI: 10.1039/c7sc00601b
   
   for metadynamics refer to:
   * S. Grimme, J. Chem. Theory Comput., 2019, 155, 2847-2862
     DOI: 10.1021/acs.jctc.9b00143
   
   with help from (in alphabetical order)
   C. Bannwarth, F. Bohle, G. Brandenburg, E. Caldeweyher, M. Checinski,
   S. Dohm, S. Ehlert, S. Ehrlich, F. März, H. Neugebauer, J. Pisarek,
   P. Pracht, P. Shushkov, and S. Spicher.
   
 * started run on 2020/08/06 at 22:33:14.081     

           -------------------------------------------------
          |                Calculation Setup                |
           -------------------------------------------------

          program call               : /opt/orca/otool_xtb /tmp/slurm-scratch/freq.11/freq_XTB.xyz --grad -c 0 -u 0 -P 8 --namespace /tmp/slurm-scratch/freq.11/freq --gbsa CH2Cl2
          hostname                   : headnode-pbs
          calculation namespace      : /tmp/slurm-scratch/freq.11/freq
          coordinate file            : /tmp/slurm-scratch/freq.11/freq_XTB.xyz
          omp threads                :                     8
          number of atoms            :                    27
          number of electrons        :                    64
          charge                     :                     0
          spin                       :                   0.0
          first test random number   :      0.98207383485337


########################################################################
# WARNING! Please study the warnings concerning your input carefully
#  - Process number higher than OMP_NUM_THREADS, I hope you know what you are doing.
########################################################################

           ------------------------------------------------- 
          |                 G F N 2 - x T B                 |
          | Geometry, Frequencies, Noncovalent interactions |
          |            JCTC 2019 parametrisation            |
           ------------------------------------------------- 
             k(s)              :                1.8500
             k(p)              :                2.2300
             k(d)              :                2.2300
             k(f)              :                2.0000
             kEN (H0ij)        :               -2.0000
             D4 a1             :                0.5200
             D4 a2             :                5.0000
             D4 s6             :                1.0000
             D4 s8             :                2.7000
             D4 s9             :                5.0000
             alphaj            :                2.0000

  Z AO/shell   Hii/eV     exponent
  1     Wed Apr 25 08:07:45 CEST 2018   EN: 2.200 GM2: 0.406  GM3: 0.0800  RAES: 1.40
     1s    -10.707211    1.230000
  6     Wed Apr 25 08:07:45 CEST 2018   EN: 2.550 GM2: 0.538  GM3: 0.1500  RAES: 3.00
     2s    -13.970922    2.096432
     2p    -10.063292    1.800000
  7     Wed Apr 25 08:07:45 CEST 2018   EN: 3.040 GM2: 0.461  GM3:-0.0640  RAES: 1.90
     2s    -16.686243    2.339881
     2p    -12.523956    2.014332

 Solvent             : CH2Cl2
 Using internal parameter file: .param_gbsa2_CH2Cl2
 Gsolv ref. state (COSMO-RS): gsolv [1 M gas/solution]
 temperature (mdtemp)       :    298.150000000000     
 dielectric constant        :    8.93000000000000     
 rho                        :    1.33000000000000     
 mass                       :    84.9300000000000     
 surface tension            :    15.5689454083859     
 probe radius               :   0.719875900000000     
 Gshift (Eh)                :   4.440829173451759E-003
 c1                         :    1.49173776000000     
 soset                      :   0.000000000000000E+000
 HB correction              :  F
           ------------------------------------------------- 
          |        Self-Consistent Charge Iterations        |
           ------------------------------------------------- 

          ...................................................
          :                      SETUP                      :
          :.................................................:
          :  # basis functions                  63          :
          :  # atomic orbitals                  63          :
          :  # shells                           39          :
          :  # electrons                        64          :
          :  max. iterations                   250          :
          :  Hamiltonian                  GFN2-xTB          :
          :  GBSA solvation                   true          :
          :  PC potential                    false          :
          :  electronic temp.          300.0000000     K    :
          :  accuracy                    1.0000000          :
          :  -> integral cutoff          0.2500000E+02      :
          :  -> integral neglect         0.1000000E-07      :
          :  -> SCF convergence          0.1000000E-05 Eh   :
          :  -> wf. convergence          0.1000000E-03 e    :
          :  Broyden damping             0.4000000          :
          ...................................................
  Checking positiv definite overlap ...  done.
 

 iter      E             dE          RMSdq      gap      omega  full diag
   1    -34.6238221 -0.346238E+02  0.376E+00    3.29       0.0  T
   2    -34.6582935 -0.344714E-01  0.224E+00    3.17       1.0  T
   3    -34.6555204  0.277314E-02  0.753E-01    2.86       1.0  T
   4    -34.6598814 -0.436104E-02  0.339E-01    2.96       1.0  T
   5    -34.6617926 -0.191122E-02  0.653E-02    2.89       1.0  T
   6    -34.6618043 -0.116328E-04  0.332E-02    2.90       1.0  T
   7    -34.6618110 -0.677093E-05  0.140E-02    2.90       1.4  T
   8    -34.6618119 -0.895112E-06  0.341E-03    2.90       5.6  T
   9    -34.6618120 -0.103664E-06  0.137E-03    2.90      14.0  T
  10    -34.6618120 -0.354796E-08  0.832E-04    2.90      23.1  T
  11    -34.6618120 -0.421409E-08  0.212E-04    2.90      91.0  T

   *** convergence criteria satisfied after 11 iterations ***

         #    Occupation            Energy/Eh            Energy/eV
      -------------------------------------------------------------
         1        2.0000           -0.6498062             -17.6821
       ...           ...                  ...                  ...
        26        2.0000           -0.4376369             -11.9087
        27        2.0000           -0.4282302             -11.6527
        28        2.0000           -0.4250401             -11.5659
        29        2.0000           -0.4225973             -11.4995
        30        2.0000           -0.4087160             -11.1217
        31        2.0000           -0.3984857             -10.8433
        32        2.0000           -0.3765041             -10.2452 (HOMO)
        33                         -0.2699250              -7.3450 (LUMO)
        34                         -0.2283933              -6.2149
        35                         -0.1887993              -5.1375
        36                         -0.0879046              -2.3920
        37                          0.0340176               0.9257
       ...                                ...                  ...
        63                          0.6475164              17.6198
      -------------------------------------------------------------
                  HL-Gap            0.1065791 Eh            2.9002 eV
             Fermi-level           -0.3232145 Eh           -8.7951 eV

 SCC (total)                   0 d,  0 h,  0 min,  0.021 sec
 SCC setup                      ...        0 min,  0.001 sec (  4.135%)
 Dispersion                     ...        0 min,  0.000 sec (  1.119%)
 integral evaluation            ...        0 min,  0.003 sec ( 16.359%)
 zeroth order Hamiltonian       ...        0 min,  0.000 sec (  0.044%)
 iterations                     ...        0 min,  0.011 sec ( 53.091%)
 molecular gradient             ...        0 min,  0.005 sec ( 23.584%)
 printout                       ...        0 min,  0.000 sec (  1.489%)

         :::::::::::::::::::::::::::::::::::::::::::::::::::::
         ::                     SUMMARY                     ::
         :::::::::::::::::::::::::::::::::::::::::::::::::::::
         :: total energy             -34.111874936323 Eh    ::
         :: total w/o Gsasa/hb       -34.096514246055 Eh    ::
         :: gradient norm              0.024118302250 Eh/a0 ::
         :: HOMO-LUMO gap              2.900163799562 eV    ::
         ::.................................................::
         :: SCC energy               -34.677172720434 Eh    ::
         :: -> isotropic ES            0.011430812179 Eh    ::
         :: -> anisotropic ES          0.005743730030 Eh    ::
         :: -> anisotropic XC          0.028323957638 Eh    ::
         :: -> dispersion             -0.020205862790 Eh    ::
         :: -> Gsolv                  -0.016870362062 Eh    ::
         ::    -> Gborn               -0.001509671795 Eh    ::
         ::    -> Gsasa               -0.019801519441 Eh    ::
         ::    -> Ghb                  0.000000000000 Eh    ::
         ::    -> Gshift               0.004440829173 Eh    ::
         :: repulsion energy           0.565447819477 Eh    ::
         :: add. restraining           0.000000000000 Eh    ::
         :::::::::::::::::::::::::::::::::::::::::::::::::::::

           -------------------------------------------------
          |                Property Printout                |
           -------------------------------------------------

    * Orbital Energies and Occupations

         #    Occupation            Energy/Eh            Energy/eV
      -------------------------------------------------------------
         1        2.0000           -0.6498062             -17.6821
       ...           ...                  ...                  ...
        20        2.0000           -0.4798677             -13.0579
        21        2.0000           -0.4747718             -12.9192
        22        2.0000           -0.4722034             -12.8493
        23        2.0000           -0.4604042             -12.5282
        24        2.0000           -0.4453152             -12.1176
        25        2.0000           -0.4383842             -11.9290
        26        2.0000           -0.4376369             -11.9087
        27        2.0000           -0.4282302             -11.6527
        28        2.0000           -0.4250401             -11.5659
        29        2.0000           -0.4225973             -11.4995
        30        2.0000           -0.4087160             -11.1217
        31        2.0000           -0.3984857             -10.8433
        32        2.0000           -0.3765041             -10.2452 (HOMO)
        33                         -0.2699250              -7.3450 (LUMO)
        34                         -0.2283933              -6.2149
        35                         -0.1887993              -5.1375
        36                         -0.0879046              -2.3920
        37                          0.0340176               0.9257
        38                          0.0977870               2.6609
        39                          0.1026800               2.7941
        40                          0.1158435               3.1523
        41                          0.1193970               3.2490
        42                          0.1328496               3.6150
        43                          0.1475507               4.0151
       ...                                ...                  ...
        63                          0.6475164              17.6198
      -------------------------------------------------------------
                  HL-Gap            0.1065791 Eh            2.9002 eV
             Fermi-level           -0.3232145 Eh           -8.7951 eV

     #   Z        covCN         q      C6AA      α(0)
     1   6 C      2.916    -0.026    28.647     8.777
     2   6 C      2.913    -0.029    28.733     8.790
     3   6 C      2.922    -0.031    28.765     8.795
     4   6 C      2.970     0.005    27.906     8.665
     5   6 C      2.918    -0.025    28.620     8.773
     6   6 C      2.914    -0.028    28.698     8.784
     7   1 H      0.925     0.042     2.428     2.437
     8   1 H      0.925     0.035     2.520     2.482
     9   1 H      0.926     0.053     2.282     2.362
    10   6 C      2.859     0.077    26.274     8.402
    11   1 H      0.924    -0.004     3.121     2.763
    12   7 N      1.825    -0.256    27.512     7.772
    13   6 C      3.768     0.023    20.225     6.409
    14   6 C      3.802    -0.056    21.583     6.614
    15   1 H      0.924     0.032     2.564     2.504
    16   1 H      0.924     0.044     2.390     2.418
    17   1 H      0.924     0.041     2.440     2.443
    18   1 H      0.923     0.005     2.969     2.695
    19   6 C      3.800    -0.052    21.511     6.604
    20   1 H      0.924     0.032     2.556     2.500
    21   1 H      0.924     0.030     2.590     2.517
    22   1 H      0.925     0.042     2.421     2.433
    23   1 H      0.925     0.040     2.454     2.450
    24   6 C      3.750    -0.102    22.504     6.766
    25   1 H      0.924     0.036     2.498     2.472
    26   1 H      0.924     0.037     2.487     2.466
    27   1 H      0.924     0.035     2.522     2.483

 Mol. C6AA /au·bohr⁶  :       7188.428416
 Mol. C8AA /au·bohr⁸  :     165612.381994
 Mol. α(0) /au        :        132.575453


Wiberg/Mayer (AO) data.
largest (>0.10) Wiberg bond orders for each atom
          total WBO             WBO to atom ...
     1  C   3.988        C    2 1.438    C    6 1.422    H    7 0.971    C    4 0.100
     2  C   3.991        C    3 1.449    C    1 1.438    H   23 0.971    C    5 0.107
     3  C   3.987        C    2 1.449    C    4 1.383    H    8 0.969    C    6 0.105
     4  C   3.989        C    3 1.383    C    5 1.367    C   10 1.080    C    1 0.100
     5  C   3.990        C    6 1.466    C    4 1.367    H    9 0.968    C    2 0.107
     6  C   3.991        C    5 1.466    C    1 1.422    H   22 0.970    C    3 0.105
     7  H   0.998        C    1 0.971
     8  H   0.999        C    3 0.969
     9  H   0.997        C    5 0.968
    10  C   3.970        N   12 1.848    C    4 1.080    H   11 0.939
    11  H   1.000        C   10 0.939
    12  N   3.064        C   10 1.848    C   13 1.024
    13  C   3.985        N   12 1.024    C   14 0.988    H   18 0.964    H   17 0.958
    14  C   3.991        C   19 1.006    C   13 0.988    H   15 0.978    H   16 0.976
    15  H   0.999        C   14 0.978
    16  H   0.998        C   14 0.976
    17  H   0.995        C   13 0.958
    18  H   1.000        C   13 0.964
    19  C   3.996        C   24 1.019    C   14 1.006    H   21 0.978    H   20 0.978
    20  H   0.999        C   19 0.978
    21  H   0.999        C   19 0.978
    22  H   0.998        C    6 0.970
    23  H   0.998        C    2 0.971
    24  C   3.995        C   19 1.019    H   27 0.988    H   25 0.988    H   26 0.987
    25  H   0.999        C   24 0.988
    26  H   0.998        C   24 0.987
    27  H   0.999        C   24 0.988

molecular dipole:
                 x           y           z       tot (Debye)
 q only:       -0.151      -0.255       0.099
   full:       -0.453       0.021       0.231       1.293
molecular quadrupole (traceless):
                xx          xy          yy          xz          yz          zz
 q only:        6.767       6.870      -4.108      -2.754       0.798      -2.659
  q+dip:       11.793      -3.987      -1.126     -10.765       6.166     -10.667
   full:       10.394      -3.803      -2.372      -8.709       5.200      -8.022

           -------------------------------------------------
          |                Property Printout                |
           -------------------------------------------------

    * Orbital Energies and Occupations

         #    Occupation            Energy/Eh            Energy/eV
      -------------------------------------------------------------
         1        2.0000           -0.6498062             -17.6821
       ...           ...                  ...                  ...
        20        2.0000           -0.4798677             -13.0579
        21        2.0000           -0.4747718             -12.9192
        22        2.0000           -0.4722034             -12.8493
        23        2.0000           -0.4604042             -12.5282
        24        2.0000           -0.4453152             -12.1176
        25        2.0000           -0.4383842             -11.9290
        26        2.0000           -0.4376369             -11.9087
        27        2.0000           -0.4282302             -11.6527
        28        2.0000           -0.4250401             -11.5659
        29        2.0000           -0.4225973             -11.4995
        30        2.0000           -0.4087160             -11.1217
        31        2.0000           -0.3984857             -10.8433
        32        2.0000           -0.3765041             -10.2452 (HOMO)
        33                         -0.2699250              -7.3450 (LUMO)
        34                         -0.2283933              -6.2149
        35                         -0.1887993              -5.1375
        36                         -0.0879046              -2.3920
        37                          0.0340176               0.9257
        38                          0.0977870               2.6609
        39                          0.1026800               2.7941
        40                          0.1158435               3.1523
        41                          0.1193970               3.2490
        42                          0.1328496               3.6150
        43                          0.1475507               4.0151
       ...                                ...                  ...
        63                          0.6475164              17.6198
      -------------------------------------------------------------
                  HL-Gap            0.1065791 Eh            2.9002 eV
             Fermi-level           -0.3232145 Eh           -8.7951 eV

     #   Z        covCN         q      C6AA      α(0)
     1   6 C      2.916    -0.026    28.647     8.777
     2   6 C      2.913    -0.029    28.733     8.790
     3   6 C      2.922    -0.031    28.765     8.795
     4   6 C      2.970     0.005    27.906     8.665
     5   6 C      2.918    -0.025    28.620     8.773
     6   6 C      2.914    -0.028    28.698     8.784
     7   1 H      0.925     0.042     2.428     2.437
     8   1 H      0.925     0.035     2.520     2.482
     9   1 H      0.926     0.053     2.282     2.362
    10   6 C      2.859     0.077    26.274     8.402
    11   1 H      0.924    -0.004     3.121     2.763
    12   7 N      1.825    -0.256    27.512     7.772
    13   6 C      3.768     0.023    20.225     6.409
    14   6 C      3.802    -0.056    21.583     6.614
    15   1 H      0.924     0.032     2.564     2.504
    16   1 H      0.924     0.044     2.390     2.418
    17   1 H      0.924     0.041     2.440     2.443
    18   1 H      0.923     0.005     2.969     2.695
    19   6 C      3.800    -0.052    21.511     6.604
    20   1 H      0.924     0.032     2.556     2.500
    21   1 H      0.924     0.030     2.590     2.517
    22   1 H      0.925     0.042     2.421     2.433
    23   1 H      0.925     0.040     2.454     2.450
    24   6 C      3.750    -0.102    22.504     6.766
    25   1 H      0.924     0.036     2.498     2.472
    26   1 H      0.924     0.037     2.487     2.466
    27   1 H      0.924     0.035     2.522     2.483

 Mol. C6AA /au·bohr⁶  :       7188.428416
 Mol. C8AA /au·bohr⁸  :     165612.381994
 Mol. α(0) /au        :        132.575453


Wiberg/Mayer (AO) data.
largest (>0.10) Wiberg bond orders for each atom
          total WBO             WBO to atom ...
     1  C   3.988        C    2 1.438    C    6 1.422    H    7 0.971    C    4 0.100
     2  C   3.991        C    3 1.449    C    1 1.438    H   23 0.971    C    5 0.107
     3  C   3.987        C    2 1.449    C    4 1.383    H    8 0.969    C    6 0.105
     4  C   3.989        C    3 1.383    C    5 1.367    C   10 1.080    C    1 0.100
     5  C   3.990        C    6 1.466    C    4 1.367    H    9 0.968    C    2 0.107
     6  C   3.991        C    5 1.466    C    1 1.422    H   22 0.970    C    3 0.105
     7  H   0.998        C    1 0.971
     8  H   0.999        C    3 0.969
     9  H   0.997        C    5 0.968
    10  C   3.970        N   12 1.848    C    4 1.080    H   11 0.939
    11  H   1.000        C   10 0.939
    12  N   3.064        C   10 1.848    C   13 1.024
    13  C   3.985        N   12 1.024    C   14 0.988    H   18 0.964    H   17 0.958
    14  C   3.991        C   19 1.006    C   13 0.988    H   15 0.978    H   16 0.976
    15  H   0.999        C   14 0.978
    16  H   0.998        C   14 0.976
    17  H   0.995        C   13 0.958
    18  H   1.000        C   13 0.964
    19  C   3.996        C   24 1.019    C   14 1.006    H   21 0.978    H   20 0.978
    20  H   0.999        C   19 0.978
    21  H   0.999        C   19 0.978
    22  H   0.998        C    6 0.970
    23  H   0.998        C    2 0.971
    24  C   3.995        C   19 1.019    H   27 0.988    H   25 0.988    H   26 0.987
    25  H   0.999        C   24 0.988
    26  H   0.998        C   24 0.987
    27  H   0.999        C   24 0.988

molecular dipole:
                 x           y           z       tot (Debye)
 q only:       -0.151      -0.255       0.099
   full:       -0.453       0.021       0.231       1.293
molecular quadrupole (traceless):
                xx          xy          yy          xz          yz          zz
 q only:        6.767       6.870      -4.108      -2.754       0.798      -2.659
  q+dip:       11.793      -3.987      -1.126     -10.765       6.166     -10.667
   full:       10.394      -3.803      -2.372      -8.709       5.200      -8.022


           -------------------------------------------------
          | TOTAL ENERGY              -34.111874936323 Eh   |
          | GRADIENT NORM               0.024118302250 Eh/α |
          | HOMO-LUMO GAP               2.900163799562 eV   |
           -------------------------------------------------

------------------------------------------------------------------------
 * finished run on 2020/08/06 at 22:33:14.176     
------------------------------------------------------------------------
 total:
 * wall-time:     0 d,  0 h,  0 min,  0.095 sec
 *  cpu-time:     0 d,  0 h,  0 min,  0.663 sec
 * ratio c/w:     6.950 speedup
 SCF:
 * wall-time:     0 d,  0 h,  0 min,  0.021 sec
 *  cpu-time:     0 d,  0 h,  0 min,  0.152 sec
 * ratio c/w:     7.177 speedup


-------------------------   --------------------
FINAL SINGLE POINT ENERGY       -34.111874936320
-------------------------   --------------------


----------------------------------------------------------------------------
                           ORCA NUMERICAL FREQUENCIES
                              (8-process run)
----------------------------------------------------------------------------

Number of atoms                ... 27
Central differences            ... used
Number of displacements        ... 162
Numerical increment            ... 5.000e-03 bohr
IR-spectrum generation         ... on
Raman-spectrum generation      ... off
Surface Crossing Hessian       ... off
List of participating nodes    ...  /tmp/slurm-scratch/freq.11/freq.hostnames

The output will be reduced. Please look at the following files:
SCF program output             ... >/tmp/slurm-scratch/freq.11/freq.lastscf
Integral program output        ... >/tmp/slurm-scratch/freq.11/freq.lastint
Gradient program output        ... >/tmp/slurm-scratch/freq.11/freq.lastgrad
Dipole moment program output   ... >/tmp/slurm-scratch/freq.11/freq.lastmom
AutoCI program output          ... >/tmp/slurm-scratch/freq.11/freq.lastautoci


         <<< Energy and Gradient at the input geometry >>>

        <<< Energy and Gradient at displaced geometries >>>
             <<<Displacing   1/coordinate 1 (+)>>>
             <<<Displacing   2/coordinate 2 (+)>>>
             <<<Displacing   2/coordinate 1 (+)>>>
             <<<Displacing   1/coordinate 2 (+)>>>
             <<<Displacing   1/coordinate 3 (+)>>>
             <<<Displacing   3/coordinate 2 (+)>>>
             <<<Displacing   1/coordinate 1 (-)>>>
             <<<Displacing   2/coordinate 2 (-)>>>
             <<<Displacing   2/coordinate 1 (-)>>>
             <<<Displacing   1/coordinate 3 (-)>>>
             <<<Displacing   1/coordinate 2 (-)>>>
             <<<Displacing   3/coordinate 2 (-)>>>
             <<<Displacing   3/coordinate 1 (+)>>>
             <<<Displacing   3/coordinate 1 (-)>>>
             <<<Displacing   2/coordinate 3 (+)>>>
             <<<Displacing   2/coordinate 3 (-)>>>
             <<<Displacing   3/coordinate 3 (+)>>>
             <<<Displacing   4/coordinate 1 (+)>>>
             <<<Displacing   3/coordinate 3 (-)>>>
             <<<Displacing   4/coordinate 1 (-)>>>
             <<<Displacing   4/coordinate 3 (+)>>>
             <<<Displacing   5/coordinate 2 (+)>>>
             <<<Displacing   5/coordinate 3 (+)>>>
             <<<Displacing   4/coordinate 3 (-)>>>
             <<<Displacing   5/coordinate 2 (-)>>>
             <<<Displacing   4/coordinate 2 (+)>>>
             <<<Displacing   5/coordinate 3 (-)>>>
             <<<Displacing   5/coordinate 1 (+)>>>
             <<<Displacing   4/coordinate 2 (-)>>>
             <<<Displacing   6/coordinate 1 (+)>>>
             <<<Displacing   5/coordinate 1 (-)>>>
             <<<Displacing   6/coordinate 1 (-)>>>
             <<<Displacing   6/coordinate 3 (+)>>>
             <<<Displacing   6/coordinate 2 (+)>>>
             <<<Displacing   6/coordinate 3 (-)>>>
             <<<Displacing   6/coordinate 2 (-)>>>
             <<<Displacing   7/coordinate 1 (+)>>>
             <<<Displacing   7/coordinate 2 (+)>>>
             <<<Displacing   7/coordinate 3 (+)>>>
             <<<Displacing   7/coordinate 1 (-)>>>
             <<<Displacing   8/coordinate 1 (+)>>>
             <<<Displacing   7/coordinate 2 (-)>>>
             <<<Displacing   7/coordinate 3 (-)>>>
             <<<Displacing   8/coordinate 1 (-)>>>
             <<<Displacing   8/coordinate 2 (+)>>>
             <<<Displacing   8/coordinate 3 (+)>>>
             <<<Displacing   8/coordinate 2 (-)>>>
             <<<Displacing   8/coordinate 3 (-)>>>
             <<<Displacing   9/coordinate 1 (+)>>>
             <<<Displacing   9/coordinate 2 (+)>>>
             <<<Displacing   9/coordinate 1 (-)>>>
             <<<Displacing   9/coordinate 2 (-)>>>
             <<<Displacing   9/coordinate 3 (+)>>>
             <<<Displacing  10/coordinate 2 (+)>>>
             <<<Displacing  10/coordinate 1 (+)>>>
             <<<Displacing   9/coordinate 3 (-)>>>
             <<<Displacing  10/coordinate 2 (-)>>>
             <<<Displacing  10/coordinate 3 (+)>>>
             <<<Displacing  10/coordinate 1 (-)>>>
             <<<Displacing  10/coordinate 3 (-)>>>
             <<<Displacing  11/coordinate 2 (+)>>>
             <<<Displacing  11/coordinate 2 (-)>>>
             <<<Displacing  11/coordinate 1 (+)>>>
             <<<Displacing  11/coordinate 1 (-)>>>
             <<<Displacing  11/coordinate 3 (+)>>>
             <<<Displacing  12/coordinate 1 (+)>>>
             <<<Displacing  11/coordinate 3 (-)>>>
             <<<Displacing  12/coordinate 1 (-)>>>
             <<<Displacing  12/coordinate 3 (+)>>>
             <<<Displacing  13/coordinate 1 (+)>>>
             <<<Displacing  12/coordinate 3 (-)>>>
             <<<Displacing  13/coordinate 2 (+)>>>
             <<<Displacing  13/coordinate 1 (-)>>>
             <<<Displacing  13/coordinate 2 (-)>>>
             <<<Displacing  13/coordinate 3 (+)>>>
             <<<Displacing  13/coordinate 3 (-)>>>
             <<<Displacing  12/coordinate 2 (+)>>>
             <<<Displacing  12/coordinate 2 (-)>>>
             <<<Displacing  14/coordinate 1 (+)>>>
             <<<Displacing  14/coordinate 1 (-)>>>
             <<<Displacing  14/coordinate 2 (+)>>>
             <<<Displacing  14/coordinate 3 (+)>>>
             <<<Displacing  14/coordinate 2 (-)>>>
             <<<Displacing  14/coordinate 3 (-)>>>
             <<<Displacing  15/coordinate 1 (+)>>>
             <<<Displacing  15/coordinate 1 (-)>>>
             <<<Displacing  15/coordinate 2 (+)>>>
             <<<Displacing  15/coordinate 3 (+)>>>
             <<<Displacing  15/coordinate 2 (-)>>>
             <<<Displacing  15/coordinate 3 (-)>>>
             <<<Displacing  16/coordinate 1 (+)>>>
             <<<Displacing  16/coordinate 1 (-)>>>
             <<<Displacing  16/coordinate 2 (+)>>>
             <<<Displacing  16/coordinate 2 (-)>>>
             <<<Displacing  16/coordinate 3 (+)>>>
             <<<Displacing  16/coordinate 3 (-)>>>
             <<<Displacing  17/coordinate 1 (+)>>>
             <<<Displacing  17/coordinate 2 (+)>>>
             <<<Displacing  17/coordinate 1 (-)>>>
             <<<Displacing  17/coordinate 2 (-)>>>
             <<<Displacing  18/coordinate 2 (+)>>>
             <<<Displacing  17/coordinate 3 (+)>>>
             <<<Displacing  18/coordinate 2 (-)>>>
             <<<Displacing  17/coordinate 3 (-)>>>
             <<<Displacing  18/coordinate 1 (+)>>>
             <<<Displacing  18/coordinate 3 (+)>>>
             <<<Displacing  18/coordinate 1 (-)>>>
             <<<Displacing  18/coordinate 3 (-)>>>
             <<<Displacing  19/coordinate 1 (+)>>>
             <<<Displacing  19/coordinate 1 (-)>>>
             <<<Displacing  19/coordinate 2 (+)>>>
             <<<Displacing  19/coordinate 2 (-)>>>
             <<<Displacing  20/coordinate 1 (+)>>>
             <<<Displacing  20/coordinate 1 (-)>>>
             <<<Displacing  19/coordinate 3 (+)>>>
             <<<Displacing  19/coordinate 3 (-)>>>
             <<<Displacing  20/coordinate 2 (+)>>>
             <<<Displacing  20/coordinate 2 (-)>>>
             <<<Displacing  21/coordinate 1 (+)>>>
             <<<Displacing  21/coordinate 1 (-)>>>
             <<<Displacing  21/coordinate 2 (+)>>>
             <<<Displacing  20/coordinate 3 (+)>>>
             <<<Displacing  21/coordinate 3 (+)>>>
             <<<Displacing  21/coordinate 2 (-)>>>
             <<<Displacing  20/coordinate 3 (-)>>>
             <<<Displacing  21/coordinate 3 (-)>>>
             <<<Displacing  22/coordinate 1 (+)>>>
             <<<Displacing  22/coordinate 1 (-)>>>
             <<<Displacing  22/coordinate 3 (+)>>>
             <<<Displacing  22/coordinate 2 (+)>>>
             <<<Displacing  22/coordinate 3 (-)>>>
             <<<Displacing  22/coordinate 2 (-)>>>
             <<<Displacing  23/coordinate 1 (+)>>>
             <<<Displacing  23/coordinate 2 (+)>>>
             <<<Displacing  23/coordinate 1 (-)>>>
             <<<Displacing  23/coordinate 2 (-)>>>
             <<<Displacing  23/coordinate 3 (+)>>>
             <<<Displacing  24/coordinate 1 (+)>>>
             <<<Displacing  24/coordinate 2 (+)>>>
             <<<Displacing  23/coordinate 3 (-)>>>
             <<<Displacing  24/coordinate 1 (-)>>>
             <<<Displacing  24/coordinate 2 (-)>>>
             <<<Displacing  24/coordinate 3 (+)>>>
             <<<Displacing  24/coordinate 3 (-)>>>
             <<<Displacing  25/coordinate 2 (+)>>>
             <<<Displacing  25/coordinate 1 (+)>>>
             <<<Displacing  25/coordinate 2 (-)>>>
             <<<Displacing  25/coordinate 1 (-)>>>
             <<<Displacing  25/coordinate 3 (+)>>>
             <<<Displacing  26/coordinate 1 (+)>>>
             <<<Displacing  25/coordinate 3 (-)>>>
             <<<Displacing  26/coordinate 1 (-)>>>
             <<<Displacing  27/coordinate 1 (+)>>>
             <<<Displacing  26/coordinate 2 (+)>>>
             <<<Displacing  26/coordinate 3 (+)>>>
             <<<Displacing  27/coordinate 1 (-)>>>
             <<<Displacing  26/coordinate 2 (-)>>>
             <<<Displacing  26/coordinate 3 (-)>>>
             <<<Displacing  27/coordinate 2 (+)>>>
             <<<Displacing  27/coordinate 2 (-)>>>
             <<<Displacing  27/coordinate 3 (+)>>>
             <<<Displacing  27/coordinate 3 (-)>>>

-----------------------
VIBRATIONAL FREQUENCIES
-----------------------

Scaling factor for frequencies =  1.000000000 (already applied!)

   0:         0.00 cm**-1
   1:         0.00 cm**-1
   2:         0.00 cm**-1
   3:         0.00 cm**-1
   4:         0.00 cm**-1
   5:         0.00 cm**-1
   6:        50.02 cm**-1
   7:        66.81 cm**-1
   8:        75.45 cm**-1
   9:       108.37 cm**-1
  10:       120.08 cm**-1
  11:       155.33 cm**-1
  12:       214.16 cm**-1
  13:       267.57 cm**-1
  14:       278.76 cm**-1
  15:       283.43 cm**-1
  16:       375.95 cm**-1
  17:       381.22 cm**-1
  18:       427.25 cm**-1
  19:       463.19 cm**-1
  20:       510.27 cm**-1
  21:       588.75 cm**-1
  22:       624.08 cm**-1
  23:       666.12 cm**-1
  24:       754.32 cm**-1
  25:       771.31 cm**-1
  26:       823.57 cm**-1
  27:       858.50 cm**-1
  28:       875.15 cm**-1
  29:       900.78 cm**-1
  30:       913.98 cm**-1
  31:       931.20 cm**-1
  32:       934.20 cm**-1
  33:       945.60 cm**-1
  34:       951.85 cm**-1
  35:       984.58 cm**-1
  36:      1020.06 cm**-1
  37:      1067.41 cm**-1
  38:      1071.47 cm**-1
  39:      1100.66 cm**-1
  40:      1112.13 cm**-1
  41:      1125.38 cm**-1
  42:      1143.60 cm**-1
  43:      1178.28 cm**-1
  44:      1185.58 cm**-1
  45:      1211.79 cm**-1
  46:      1219.33 cm**-1
  47:      1254.43 cm**-1
  48:      1268.16 cm**-1
  49:      1276.24 cm**-1
  50:      1277.41 cm**-1
  51:      1292.95 cm**-1
  52:      1324.57 cm**-1
  53:      1354.67 cm**-1
  54:      1369.13 cm**-1
  55:      1423.60 cm**-1
  56:      1429.86 cm**-1
  57:      1455.42 cm**-1
  58:      1468.53 cm**-1
  59:      1501.93 cm**-1
  60:      1505.17 cm**-1
  61:      1509.14 cm**-1
  62:      1513.01 cm**-1
  63:      1561.32 cm**-1
  64:      1568.22 cm**-1
  65:      1668.20 cm**-1
  66:      2849.94 cm**-1
  67:      2868.03 cm**-1
  68:      2939.32 cm**-1
  69:      2942.23 cm**-1
  70:      2954.50 cm**-1
  71:      2966.02 cm**-1
  72:      2974.56 cm**-1
  73:      2981.08 cm**-1
  74:      2986.79 cm**-1
  75:      2999.15 cm**-1
  76:      3048.66 cm**-1
  77:      3055.94 cm**-1
  78:      3061.48 cm**-1
  79:      3071.17 cm**-1
  80:      3082.83 cm**-1


------------
NORMAL MODES
------------

These modes are the cartesian displacements weighted by the diagonal matrix
M(i,i)=1/sqrt(m[i]) where m[i] is the mass of the displaced atom
Thus, these vectors are normalized but *not* orthogonal

                  0          1          2          3          4          5    
      0       0.000000   0.000000   0.000000   0.000000   0.000000   0.000000
      1       0.000000   0.000000   0.000000   0.000000   0.000000   0.000000
      2       0.000000   0.000000   0.000000   0.000000   0.000000   0.000000
      3       0.000000   0.000000   0.000000   0.000000   0.000000   0.000000
      4       0.000000   0.000000   0.000000   0.000000   0.000000   0.000000
      5       0.000000   0.000000   0.000000   0.000000   0.000000   0.000000
      6       0.000000   0.000000   0.000000   0.000000   0.000000   0.000000
      7       0.000000   0.000000   0.000000   0.000000   0.000000   0.000000
      8       0.000000   0.000000   0.000000   0.000000   0.000000   0.000000
      9       0.000000   0.000000   0.000000   0.000000   0.000000   0.000000
     10       0.000000   0.000000   0.000000   0.000000   0.000000   0.000000
     11       0.000000   0.000000   0.000000   0.000000   0.000000   0.000000
     12       0.000000   0.000000   0.000000   0.000000   0.000000   0.000000
     13       0.000000   0.000000   0.000000   0.000000   0.000000   0.000000
     14       0.000000   0.000000   0.000000   0.000000   0.000000   0.000000
     15       0.000000   0.000000   0.000000   0.000000   0.000000   0.000000
     16       0.000000   0.000000   0.000000   0.000000   0.000000   0.000000
     17       0.000000   0.000000   0.000000   0.000000   0.000000   0.000000
     18       0.000000   0.000000   0.000000   0.000000   0.000000   0.000000
     19       0.000000   0.000000   0.000000   0.000000   0.000000   0.000000
     20       0.000000   0.000000   0.000000   0.000000   0.000000   0.000000
     21       0.000000   0.000000   0.000000   0.000000   0.000000   0.000000
     22       0.000000   0.000000   0.000000   0.000000   0.000000   0.000000
     23       0.000000   0.000000   0.000000   0.000000   0.000000   0.000000
     24       0.000000   0.000000   0.000000   0.000000   0.000000   0.000000
     25       0.000000   0.000000   0.000000   0.000000   0.000000   0.000000
     26       0.000000   0.000000   0.000000   0.000000   0.000000   0.000000
     27       0.000000   0.000000   0.000000   0.000000   0.000000   0.000000
     28       0.000000   0.000000   0.000000   0.000000   0.000000   0.000000
     29       0.000000   0.000000   0.000000   0.000000   0.000000   0.000000
     30       0.000000   0.000000   0.000000   0.000000   0.000000   0.000000
     31       0.000000   0.000000   0.000000   0.000000   0.000000   0.000000
     32       0.000000   0.000000   0.000000   0.000000   0.000000   0.000000
     33       0.000000   0.000000   0.000000   0.000000   0.000000   0.000000
     34       0.000000   0.000000   0.000000   0.000000   0.000000   0.000000
     35       0.000000   0.000000   0.000000   0.000000   0.000000   0.000000
     36       0.000000   0.000000   0.000000   0.000000   0.000000   0.000000
     37       0.000000   0.000000   0.000000   0.000000   0.000000   0.000000
     38       0.000000   0.000000   0.000000   0.000000   0.000000   0.000000
     39       0.000000   0.000000   0.000000   0.000000   0.000000   0.000000
     40       0.000000   0.000000   0.000000   0.000000   0.000000   0.000000
     41       0.000000   0.000000   0.000000   0.000000   0.000000   0.000000
     42       0.000000   0.000000   0.000000   0.000000   0.000000   0.000000
     43       0.000000   0.000000   0.000000   0.000000   0.000000   0.000000
     44       0.000000   0.000000   0.000000   0.000000   0.000000   0.000000
     45       0.000000   0.000000   0.000000   0.000000   0.000000   0.000000
     46       0.000000   0.000000   0.000000   0.000000   0.000000   0.000000
     47       0.000000   0.000000   0.000000   0.000000   0.000000   0.000000
     48       0.000000   0.000000   0.000000   0.000000   0.000000   0.000000
     49       0.000000   0.000000   0.000000   0.000000   0.000000   0.000000
     50       0.000000   0.000000   0.000000   0.000000   0.000000   0.000000
     51       0.000000   0.000000   0.000000   0.000000   0.000000   0.000000
     52       0.000000   0.000000   0.000000   0.000000   0.000000   0.000000
     53       0.000000   0.000000   0.000000   0.000000   0.000000   0.000000
     54       0.000000   0.000000   0.000000   0.000000   0.000000   0.000000
     55       0.000000   0.000000   0.000000   0.000000   0.000000   0.000000
     56       0.000000   0.000000   0.000000   0.000000   0.000000   0.000000
     57       0.000000   0.000000   0.000000   0.000000   0.000000   0.000000
     58       0.000000   0.000000   0.000000   0.000000   0.000000   0.000000
     59       0.000000   0.000000   0.000000   0.000000   0.000000   0.000000
     60       0.000000   0.000000   0.000000   0.000000   0.000000   0.000000
     61       0.000000   0.000000   0.000000   0.000000   0.000000   0.000000
     62       0.000000   0.000000   0.000000   0.000000   0.000000   0.000000
     63       0.000000   0.000000   0.000000   0.000000   0.000000   0.000000
     64       0.000000   0.000000   0.000000   0.000000   0.000000   0.000000
     65       0.000000   0.000000   0.000000   0.000000   0.000000   0.000000
     66       0.000000   0.000000   0.000000   0.000000   0.000000   0.000000
     67       0.000000   0.000000   0.000000   0.000000   0.000000   0.000000
     68       0.000000   0.000000   0.000000   0.000000   0.000000   0.000000
     69       0.000000   0.000000   0.000000   0.000000   0.000000   0.000000
     70       0.000000   0.000000   0.000000   0.000000   0.000000   0.000000
     71       0.000000   0.000000   0.000000   0.000000   0.000000   0.000000
     72       0.000000   0.000000   0.000000   0.000000   0.000000   0.000000
     73       0.000000   0.000000   0.000000   0.000000   0.000000   0.000000
     74       0.000000   0.000000   0.000000   0.000000   0.000000   0.000000
     75       0.000000   0.000000   0.000000   0.000000   0.000000   0.000000
     76       0.000000   0.000000   0.000000   0.000000   0.000000   0.000000
     77       0.000000   0.000000   0.000000   0.000000   0.000000   0.000000
     78       0.000000   0.000000   0.000000   0.000000   0.000000   0.000000
     79       0.000000   0.000000   0.000000   0.000000   0.000000   0.000000
     80       0.000000   0.000000   0.000000   0.000000   0.000000   0.000000
                  6          7          8          9         10         11    
      0      -0.005539   0.118756  -0.053088   0.000571   0.039498   0.098359
      1      -0.023688  -0.018841   0.018027  -0.024326  -0.044349   0.018486
      2      -0.080520   0.106868   0.014633   0.109115   0.102172  -0.049298
      3      -0.060126   0.040632  -0.020403   0.008357   0.016868   0.012907
      4      -0.018444  -0.023139   0.042352   0.002910  -0.050057  -0.057803
      5      -0.180809  -0.010135   0.013199   0.060711   0.078364  -0.015183
      6      -0.071844  -0.030482   0.019350  -0.002546  -0.038635  -0.093666
      7      -0.017520   0.013653   0.024688   0.017537  -0.015648  -0.011766
      8      -0.130356  -0.075994   0.009862  -0.063482  -0.037123   0.038048
      9      -0.029187  -0.027213   0.025041  -0.017222  -0.066374  -0.106513
     10      -0.020646   0.055197  -0.015025   0.005351   0.023067   0.082491
     11       0.022153  -0.035532   0.003641  -0.126947  -0.115619   0.062872
     12       0.023441   0.049856  -0.009068  -0.030436  -0.053013  -0.014639
     13      -0.024510   0.061355  -0.038474  -0.018665   0.034067   0.156801
     14       0.115178   0.073998   0.002762  -0.093896  -0.119482   0.045397
     15       0.035107   0.123290  -0.047932  -0.022506   0.000607   0.090370
     16      -0.025911   0.023412  -0.022303  -0.032203   0.001513   0.121900
     17       0.064724   0.147071   0.010142   0.021434  -0.011464  -0.018671
     18       0.005284   0.175738  -0.082215   0.011645   0.085918   0.167543
     19      -0.025460  -0.048836   0.030426  -0.037571  -0.073089  -0.008012
     20      -0.116763   0.166240   0.019502   0.210489   0.203278  -0.098445
     21      -0.114772  -0.088557   0.045268   0.005139  -0.053831  -0.158217
     22      -0.013670   0.009588   0.043018   0.036677  -0.023458  -0.065572
     23      -0.208299  -0.160622   0.010380  -0.093869  -0.043840   0.054436
     24       0.055134   0.053076  -0.004762  -0.044454  -0.078223  -0.024644
     25      -0.027324   0.096164  -0.070921  -0.030359   0.064310   0.260303
     26       0.228462   0.107304  -0.001954  -0.152367  -0.192456   0.075689
     27      -0.045890  -0.077684   0.055066  -0.016450  -0.079405  -0.092107
     28      -0.018672   0.077759  -0.028461   0.008835   0.029813   0.075004
     29       0.081289  -0.061715   0.007984  -0.161499  -0.110215   0.019165
     30      -0.072564  -0.074513   0.084919  -0.074773  -0.129589  -0.069655
     31      -0.036817   0.047662  -0.035561   0.047594   0.050364   0.177108
     32       0.069802   0.001134   0.076161  -0.338543  -0.238630  -0.146141
     33      -0.037196  -0.102200   0.038289   0.046592  -0.019098  -0.028669
     34       0.005853   0.110238  -0.019204  -0.026982  -0.001539  -0.101059
     35       0.138219  -0.119869  -0.048789   0.041524   0.086625   0.090312
     36      -0.070828  -0.087963   0.029057   0.026303  -0.013227   0.136010
     37       0.012966   0.094069  -0.018888  -0.019475  -0.007611  -0.140968
     38       0.168473  -0.048132  -0.017338   0.046711   0.119532  -0.091898
     39       0.089132  -0.027286   0.140276  -0.032949   0.130627   0.068207
     40       0.013327  -0.041926  -0.034419   0.018513  -0.029699  -0.109090
     41      -0.024771  -0.109875  -0.150282   0.115316  -0.050094  -0.014531
     42       0.270539   0.025634   0.317108  -0.062752   0.269652   0.028133
     43      -0.060463  -0.181965  -0.292694  -0.001595  -0.058900  -0.139107
     44       0.007957  -0.145904  -0.190211   0.096496  -0.014366  -0.040238
     45       0.066906  -0.051591   0.214503   0.008720   0.091906   0.136684
     46       0.076516   0.002904   0.174804   0.051869  -0.008413  -0.049715
     47      -0.194589  -0.250609  -0.379350   0.145469  -0.175601   0.030061
     48      -0.255322  -0.145784  -0.109029   0.090609  -0.167625   0.262655
     49       0.100735   0.180079   0.061669  -0.036565   0.067943  -0.341970
     50       0.138620  -0.033669  -0.032843   0.061104   0.094349  -0.127524
     51      -0.046266  -0.056178   0.051786  -0.005091   0.023396   0.192388
     52      -0.052789   0.070664  -0.070243  -0.017532  -0.045806   0.027981
     53       0.347986   0.069092   0.132258  -0.029586   0.277226  -0.266339
     54       0.034440  -0.004541  -0.097349  -0.090357   0.119509  -0.069867
     55       0.035763  -0.072759   0.031372   0.038987  -0.019663  -0.060628
     56      -0.030981   0.074277   0.089505   0.142011  -0.083092   0.018639
     57      -0.077416  -0.032401  -0.204342  -0.317862   0.279202  -0.163909
     58       0.084174   0.063558   0.269572   0.151042  -0.103004   0.012766
     59      -0.049870   0.116769   0.144095   0.107842  -0.060999   0.014440
     60       0.033365   0.016816  -0.198614  -0.060095   0.064699  -0.128038
     61      -0.015078  -0.110220  -0.170970  -0.042027   0.011012  -0.163415
     62       0.067553   0.198921   0.247658   0.372556  -0.271758   0.083036
     63       0.076629   0.183340  -0.073109  -0.030823   0.015111   0.155094
     64      -0.029368   0.026319  -0.041242  -0.050641   0.009874   0.179420
     65       0.139704   0.237945   0.011750   0.049267  -0.006650  -0.042112
     66      -0.092747   0.036324  -0.024505   0.024099   0.043342   0.021490
     67      -0.014862  -0.055703   0.074086   0.012093  -0.081814  -0.151707
     68      -0.296131  -0.043743   0.016115   0.122468   0.155916  -0.036284
     69       0.121483   0.028957  -0.070795   0.118287  -0.048556  -0.026851
     70       0.063895  -0.236191   0.051723   0.022326   0.072357   0.046774
     71      -0.136208   0.046830   0.056232  -0.102998   0.109431  -0.043215
     72       0.114808  -0.001660  -0.012202   0.094333  -0.006034   0.031148
     73       0.096856  -0.223165   0.180847   0.113816   0.018472   0.156510
     74      -0.216655  -0.055724  -0.044571  -0.340477   0.321533  -0.108183
     75       0.092879   0.065118  -0.182731   0.062717  -0.043074  -0.145617
     76       0.075890  -0.259493   0.083256   0.040467   0.075391   0.088863
     77      -0.153516   0.160231   0.159566  -0.078733   0.053293  -0.029328
     78       0.219847   0.047905   0.001481   0.353555  -0.223590   0.066978
     79       0.039634  -0.346140  -0.095407  -0.098131   0.192501  -0.023363
     80      -0.114121   0.015446   0.028727  -0.071338   0.096147  -0.038030
                 12         13         14         15         16         17    
      0       0.035513  -0.014017   0.005051  -0.078998  -0.015478  -0.008954
      1       0.020475   0.097669  -0.021194  -0.071379  -0.013523   0.001799
      2       0.068854  -0.094976   0.013138  -0.137045   0.078785   0.005555
      3       0.007515   0.041910  -0.007817  -0.022812   0.032280  -0.050351
      4       0.037232   0.075839  -0.020658  -0.103326   0.039228   0.055242
      5      -0.013576   0.043887  -0.008487   0.024444   0.024181  -0.185234
      6      -0.005141   0.087942  -0.020937  -0.008306   0.078589   0.090355
      7       0.044272   0.043333  -0.012256  -0.106573   0.021584  -0.039109
      8      -0.055428   0.090380  -0.012737   0.109895  -0.131719   0.172492
      9      -0.000306   0.063579  -0.016687  -0.038394   0.123664   0.032673
     10       0.027093   0.000660   0.001285  -0.016090  -0.046709  -0.011124
     11      -0.040075   0.004938   0.003828   0.014991   0.029482  -0.005105
     12       0.001232   0.089858  -0.019933  -0.024229   0.066380  -0.040075
     13       0.035803  -0.012624   0.006606  -0.065816  -0.081599   0.019407
     14      -0.053121   0.084552  -0.014435   0.135018  -0.018396  -0.201016
     15       0.022687   0.026030  -0.003341  -0.035093  -0.059497   0.049876
     16       0.022309   0.025609  -0.001927  -0.060969  -0.032432  -0.054762
     17       0.022450   0.003161  -0.004702   0.033472  -0.100861   0.180823
     18       0.060122  -0.081931   0.020396  -0.120075  -0.033822  -0.023186
     19       0.002406   0.138428  -0.029627  -0.037409  -0.013578   0.008046
     20       0.154399  -0.231916   0.034738  -0.319310   0.179242   0.005032
     21      -0.007808   0.141279  -0.034298  -0.024456   0.082028   0.177380
     22       0.054945   0.060309  -0.018966  -0.147913   0.084859  -0.079347
     23      -0.085066   0.136116  -0.018712   0.181044  -0.266810   0.403879
     24      -0.005561   0.106280  -0.023692   0.000743   0.079336  -0.111207
     25       0.045266  -0.033292   0.014957  -0.096373  -0.171751   0.044536
     26      -0.070910   0.134706  -0.023623   0.201285  -0.027196  -0.443831
     27       0.046486  -0.029816   0.006363  -0.083851  -0.088795  -0.034910
     28      -0.015826   0.023253  -0.003547   0.065478   0.048346   0.017996
     29       0.089872  -0.160898   0.028062  -0.161750   0.106364   0.014357
     30       0.190093  -0.127749   0.025164  -0.121171  -0.253724  -0.084926
     31      -0.097546   0.079213  -0.006486   0.044045  -0.016293  -0.001631
     32       0.501706  -0.443771   0.067170  -0.182488  -0.064725  -0.038132
     33      -0.041011   0.026519  -0.000109  -0.089333  -0.104626  -0.030176
     34       0.033175  -0.010986  -0.005646   0.115378   0.119959   0.030769
     35      -0.191449   0.051988  -0.007130  -0.170723   0.183969   0.066448
     36       0.004241  -0.073419   0.020636   0.055940   0.008656   0.004696
     37      -0.029024  -0.011059  -0.002025   0.081809   0.089464   0.021360
     38       0.085572   0.086119  -0.030371  -0.054891  -0.105539  -0.026535
     39      -0.005406  -0.024571   0.017834   0.046979  -0.022902  -0.003648
     40      -0.165156  -0.100689   0.025553  -0.033420  -0.091546  -0.023708
     41       0.109710   0.005467  -0.022757   0.030995  -0.054815  -0.015136
     42      -0.025687   0.053571   0.038510  -0.022468  -0.098766  -0.021602
     43      -0.132010  -0.154836  -0.039498  -0.054876  -0.150967  -0.039375
     44       0.113734   0.009316  -0.040801  -0.002053  -0.103790  -0.027391
     45      -0.022924  -0.047048   0.050751   0.027337  -0.069303  -0.014908
     46      -0.187426  -0.071711   0.080782  -0.059353  -0.127787  -0.031923
     47       0.116417  -0.097621  -0.055271   0.038499  -0.086317  -0.023555
     48       0.016386  -0.154410   0.028968   0.152580   0.153039   0.046581
     49       0.158361   0.112099  -0.034240   0.101350  -0.188429  -0.066881
     50       0.163122   0.105217  -0.039802  -0.013128  -0.162751  -0.046406
     51       0.018046  -0.083595   0.023002   0.103376   0.111308   0.035489
     52      -0.081778  -0.086301   0.013880   0.144231   0.318717   0.092435
     53       0.217061   0.203958  -0.054671  -0.062464  -0.287812  -0.085046
     54      -0.042977  -0.082597  -0.022270   0.107888  -0.000119  -0.002245
     55      -0.138549  -0.092418   0.036614  -0.036145  -0.121689  -0.030701
     56      -0.002324  -0.024870   0.053958   0.101729   0.032165   0.006112
     57      -0.097601  -0.124101  -0.069280   0.085168  -0.037351  -0.013337
     58      -0.226441  -0.106439   0.095621  -0.033656  -0.092372  -0.021303
     59      -0.055225  -0.044825   0.059877   0.092861   0.028340   0.005361
     60      -0.082614  -0.101775  -0.015215   0.087775  -0.033483  -0.011637
     61      -0.152386  -0.115331   0.006698  -0.051123  -0.161413  -0.042913
     62      -0.065909  -0.024642   0.126867   0.088754   0.037927   0.009516
     63       0.028964  -0.011313   0.006533  -0.002586  -0.146805   0.100388
     64       0.010847   0.003903   0.005998  -0.040962  -0.044366  -0.112588
     65       0.058605  -0.008284  -0.006520   0.040134  -0.217611   0.391820
     66       0.006717   0.045745  -0.008033  -0.019319   0.032615  -0.121523
     67       0.036008   0.086274  -0.026742  -0.102372   0.109345   0.126002
     68      -0.017390   0.062266  -0.012344   0.038979   0.063705  -0.402049
     69      -0.019539  -0.068107   0.026944   0.137034   0.013083   0.000882
     70       0.121680  -0.026663  -0.003984   0.176821   0.056902   0.011590
     71      -0.057040  -0.063511   0.002872   0.077603   0.003880  -0.001646
     72       0.019780  -0.165479  -0.211650   0.216703   0.072183   0.014104
     73       0.128112  -0.226338  -0.436228   0.260765   0.109997   0.023097
     74       0.030230   0.074494   0.231337   0.119098   0.052509   0.009965
     75      -0.100983   0.085347   0.407542  -0.010322  -0.097183  -0.024127
     76       0.170037  -0.060301  -0.105418   0.242684   0.109280   0.023649
     77      -0.263783  -0.311118  -0.414252  -0.054533  -0.125939  -0.032920
     78       0.045037  -0.103408  -0.068509   0.218913   0.074920   0.015465
     79       0.283565   0.253992   0.504502   0.248717   0.140385   0.032046
     80       0.017668   0.020534   0.145349   0.126835   0.050995   0.009728
                 18         19         20         21         22         23    
      0      -0.060413  -0.015954  -0.061232  -0.133685   0.096915  -0.046645
      1      -0.089512   0.139204  -0.028521   0.029067   0.221599   0.027351
      2      -0.041660  -0.095605  -0.163585   0.044990   0.000481  -0.141840
      3       0.019760   0.026419   0.057064  -0.306484  -0.198648   0.062438
      4      -0.060737   0.073268  -0.063586  -0.156804   0.003465  -0.038541
      5       0.012853   0.111714   0.109350   0.063910   0.079279   0.179421
      6       0.040025   0.058576  -0.023700   0.100807  -0.226860  -0.039559
      7      -0.053964   0.039656  -0.000547  -0.301537   0.009196   0.032498
      8      -0.017237  -0.012031  -0.041327  -0.099220   0.054878  -0.149931
      9       0.019336  -0.010530  -0.084129   0.113948  -0.129092   0.073661
     10       0.051397  -0.046892   0.108538  -0.023830  -0.218133  -0.045108
     11      -0.054981  -0.222909  -0.227395  -0.045674  -0.006273   0.223590
     12      -0.034105   0.124929  -0.071695   0.272120   0.088747  -0.047027
     13      -0.035340  -0.046082   0.025311   0.152498  -0.046391   0.032826
     14       0.022927  -0.028012  -0.007854  -0.053396  -0.055147  -0.147433
     15      -0.050072   0.062394   0.011033  -0.122132   0.142819   0.053251
     16      -0.047177  -0.019989  -0.026399   0.327810  -0.037306  -0.038807
     17       0.028882   0.062869   0.119499   0.112706  -0.035859   0.181170
     18      -0.075415  -0.069834  -0.071719   0.223715   0.145501  -0.148486
     19      -0.078331   0.165857  -0.017903  -0.114280   0.189842   0.098649
     20      -0.072400  -0.160097  -0.212727  -0.095905  -0.022186  -0.457835
     21       0.007550   0.195408  -0.014779   0.205262  -0.089125  -0.146887
     22      -0.090039   0.086467  -0.085102  -0.204006   0.107354   0.105358
     23       0.018725   0.096797   0.165747  -0.108998   0.048589  -0.486745
     24      -0.009786   0.170449   0.000549   0.278471   0.064088  -0.149332
     25      -0.125821  -0.072333  -0.041818  -0.022922   0.203119   0.096383
     26       0.046742   0.133292   0.205804  -0.090027   0.020085  -0.479902
     27      -0.008897  -0.174215   0.139579   0.030228   0.081590  -0.012085
     28       0.117027  -0.052795   0.003773   0.005849  -0.223975   0.008184
     29       0.020377   0.076669   0.107728  -0.003892  -0.052078  -0.005643
     30      -0.017009  -0.121001   0.196423   0.035331  -0.055081  -0.038943
     31       0.048877  -0.181493   0.003173   0.011586  -0.302789   0.034196
     32       0.139228   0.406065   0.214841  -0.011771  -0.093329  -0.105089
     33      -0.022610  -0.213005   0.143190   0.043052   0.041082  -0.013248
     34       0.158541  -0.068460   0.021926  -0.016131   0.141804  -0.005482
     35       0.005957  -0.026641   0.134186  -0.007012   0.044693  -0.024231
     36       0.191013   0.018006  -0.046506  -0.006113   0.081258  -0.000045
     37       0.058588  -0.146318   0.094184  -0.001933   0.193809  -0.011575
     38       0.087042   0.001872  -0.057672  -0.003845  -0.005724   0.002653
     39       0.135540   0.040278  -0.081469  -0.010923   0.056397   0.007984
     40      -0.016069   0.052499  -0.027509   0.000962  -0.021259  -0.001648
     41       0.104697   0.009931  -0.069283  -0.005893   0.032419   0.009540
     42       0.156469   0.067301  -0.139340  -0.018069   0.037300   0.012657
     43       0.049437   0.107121  -0.091189  -0.002705  -0.047751   0.006143
     44       0.133938   0.041586  -0.111607  -0.009381   0.012678   0.013579
     45       0.201841   0.106346  -0.153991  -0.014336   0.023131   0.017530
     46       0.038986   0.091577  -0.086394  -0.003827  -0.032448   0.005674
     47       0.160186   0.082634  -0.124461  -0.005685  -0.013354   0.018269
     48       0.323444   0.068580  -0.076077  -0.035858   0.253024  -0.007989
     49       0.007954  -0.291104   0.006317   0.039888   0.034465   0.037163
     50       0.110608  -0.041020  -0.099000   0.002587  -0.005969   0.019283
     51       0.290007   0.073901  -0.082740  -0.030285   0.155656  -0.001137
     52       0.212807  -0.018269   0.071585  -0.047713   0.347883  -0.030197
     53       0.044045  -0.094359  -0.109805   0.023093  -0.136189   0.036410
     54      -0.098379   0.024035  -0.003662   0.000057  -0.013573   0.000611
     55       0.055397   0.095371  -0.098045  -0.006734  -0.025822   0.009725
     56      -0.093322   0.003660   0.017500   0.002095  -0.011259  -0.000700
     57      -0.132610   0.037052  -0.009988   0.003273  -0.048461   0.002577
     58       0.027676   0.120012  -0.087888  -0.008521  -0.030021   0.005546
     59      -0.111797   0.019190   0.016548   0.002161  -0.024490  -0.001340
     60      -0.136760   0.038432  -0.006222   0.002587  -0.046604   0.000927
     61       0.005700   0.096771  -0.094952  -0.002017  -0.063839   0.010699
     62      -0.096123   0.029882   0.013412  -0.000565  -0.013493  -0.003096
     63      -0.007408   0.021238   0.147312  -0.224919  -0.006126  -0.007049
     64      -0.033547  -0.128920  -0.045272   0.228805  -0.157647   0.006348
     65       0.063883   0.241720   0.381677   0.131540   0.007260  -0.018015
     66       0.028066   0.082557   0.139662  -0.308697  -0.163406  -0.000657
     67      -0.011163   0.038190  -0.111897   0.018157  -0.262463   0.011975
     68       0.074111   0.286800   0.384445   0.110671   0.034362  -0.018637
     69      -0.143212   0.030764   0.002460   0.001646  -0.039557   0.001623
     70      -0.117524  -0.000907   0.018425   0.001049  -0.013833   0.000294
     71      -0.098627   0.027165  -0.001497   0.000870  -0.030512   0.001376
     72      -0.237147  -0.005696   0.056042   0.006264  -0.045634  -0.004455
     73      -0.219841  -0.039917   0.074201   0.006439  -0.024362  -0.005630
     74      -0.143439   0.009525   0.028394   0.002318  -0.027139  -0.002843
     75       0.030273   0.098102  -0.097128  -0.007262  -0.025590   0.012321
     76      -0.194741  -0.030830   0.063830   0.005138  -0.020253  -0.004628
     77       0.048303   0.081655  -0.094171  -0.007519  -0.015828   0.011204
     78      -0.233603  -0.003807   0.055652   0.007547  -0.054531  -0.002907
     79      -0.197665  -0.028661   0.071613   0.005588  -0.021160  -0.005975
     80      -0.152666   0.007182   0.032631   0.004167  -0.037015  -0.002135
                 24         25         26         27         28         29    
      0      -0.021291   0.003381   0.015710   0.034712   0.005800   0.022654
      1       0.013897   0.006584   0.039810   0.100392  -0.002273  -0.017260
      2      -0.065746   0.002495   0.007930   0.007411   0.017061   0.076005
      3      -0.007170  -0.007985  -0.054708  -0.145553  -0.017466   0.013792
      4       0.006834  -0.000880  -0.008463  -0.027728   0.010651  -0.008173
      5      -0.027531   0.003214   0.015985   0.038702  -0.050426   0.039626
      6      -0.019524  -0.003708  -0.016004  -0.023154  -0.027514  -0.011525
      7       0.015028  -0.002174  -0.016301  -0.049854   0.018495   0.008995
      8      -0.068187   0.003456   0.004270  -0.000522  -0.087483  -0.041916
      9       0.033280  -0.002372  -0.000691   0.022859  -0.002617  -0.008469
     10      -0.023101  -0.001895   0.007816   0.054333   0.003216   0.005930
     11       0.104653  -0.004640  -0.010048   0.012802  -0.009439  -0.026666
     12      -0.018488   0.004254   0.019007   0.024698   0.020995  -0.015573
     13       0.012967  -0.006373  -0.036209  -0.078609  -0.015399   0.011510
     14      -0.061962  -0.001080  -0.012063  -0.027929   0.065198  -0.055770
     15      -0.008025   0.005555   0.034229   0.085153   0.021154  -0.004966
     16       0.004891  -0.008498  -0.057916  -0.145795  -0.015822   0.002625
     17      -0.024582  -0.003621  -0.022620  -0.061372   0.064147  -0.014471
     18       0.150047  -0.003046  -0.004617   0.018328  -0.032220  -0.139750
     19      -0.106824   0.009872   0.045853   0.091935   0.024109   0.096345
     20       0.484476  -0.011632  -0.015469   0.041257  -0.100880  -0.433634
     21       0.110905  -0.003120  -0.002932  -0.005323   0.176951   0.086081
     22      -0.076353   0.002770   0.000163  -0.015975  -0.125464  -0.058202
     23       0.347441  -0.006111  -0.004871  -0.025173   0.565975   0.266903
     24       0.091574   0.001449   0.018881   0.038026  -0.128862   0.117952
     25      -0.064090  -0.001074  -0.031245  -0.099758   0.086387  -0.080736
     26       0.290376  -0.008778  -0.017705  -0.019828  -0.416667   0.372534
     27      -0.005010  -0.005165  -0.016572  -0.005654   0.006246   0.027798
     28       0.001043   0.010620   0.087393   0.235258  -0.001577  -0.022353
     29       0.007243   0.004905   0.035028   0.041113   0.024554   0.116644
     30      -0.068309  -0.007612   0.006890   0.166915  -0.030875  -0.184790
     31       0.046371   0.011081   0.128660   0.347381   0.026817   0.129721
     32      -0.193477   0.000006  -0.015741   0.084760  -0.097191  -0.555021
     33      -0.010852   0.000019   0.010189   0.051700  -0.002651  -0.016475
     34      -0.001885   0.001413  -0.013066  -0.031245  -0.000142  -0.002043
     35      -0.022494   0.011314   0.014191  -0.026589  -0.009902  -0.044688
     36       0.001632   0.017934   0.053879  -0.029724  -0.001784  -0.008055
     37      -0.003738   0.002214  -0.005826  -0.047409  -0.000910   0.004311
     38      -0.003628  -0.017340  -0.053074   0.035529  -0.001677  -0.019745
     39       0.009359   0.033997   0.014327  -0.066769   0.000424   0.007548
     40      -0.004542  -0.007845   0.001270   0.019934  -0.002621  -0.023506
     41       0.008499  -0.043226  -0.031339   0.021113   0.004391   0.028229
     42      -0.000415  -0.284307  -0.260865   0.220242   0.010744   0.036494
     43       0.010308   0.377056   0.019982  -0.126770  -0.008297  -0.057710
     44       0.010499   0.008883  -0.110865   0.054296   0.004964   0.020503
     45       0.018493  -0.043488   0.132397  -0.113440   0.001028   0.022738
     46      -0.003251  -0.296906   0.014122   0.104094   0.002976   0.013829
     47       0.029089   0.360462   0.225271  -0.275793  -0.005239  -0.007866
     48      -0.014623  -0.218618  -0.326289   0.171964   0.006314   0.009167
     49       0.054146   0.114070   0.231805  -0.039089   0.013330   0.099449
     50       0.014615  -0.049919  -0.079781   0.099970   0.006900   0.026869
     51       0.002602   0.061283   0.086888  -0.150895  -0.006065  -0.022559
     52      -0.026811  -0.067515  -0.164880  -0.084826  -0.006483  -0.035479
     53       0.043351   0.227227   0.348330  -0.184878  -0.001451   0.019528
     54       0.000149   0.032362  -0.046898   0.030002   0.000969   0.002036
     55       0.007815  -0.012021   0.004367  -0.013745   0.002598   0.019685
     56      -0.000843  -0.037466   0.054910  -0.036486  -0.001841  -0.008223
     57      -0.000837  -0.238582   0.281123  -0.215998  -0.009365  -0.051241
     58       0.006642   0.346231  -0.220740   0.079875   0.002178  -0.006106
     59      -0.001256   0.016734   0.068311  -0.076516  -0.005070  -0.033876
     60      -0.002785  -0.051254  -0.063906   0.118806   0.003199   0.010499
     61       0.004081  -0.280306   0.156523  -0.033144   0.001404   0.017064
     62      -0.001644   0.319039  -0.313454   0.234933   0.006006   0.015073
     63       0.131620  -0.006750  -0.025119  -0.033652  -0.148504   0.012711
     64      -0.092328  -0.012538  -0.094908  -0.243260   0.099060  -0.012115
     65       0.419489  -0.013584  -0.029792  -0.018509  -0.468002   0.046987
     66       0.135460  -0.010187  -0.052746  -0.128531   0.106808  -0.092688
     67      -0.091287  -0.007004  -0.049653  -0.126965  -0.079215   0.067850
     68       0.430536  -0.009306  -0.008527   0.020235   0.345806  -0.300565
     69       0.000993   0.001361  -0.015801   0.022136   0.001649   0.011989
     70       0.000924  -0.001075  -0.000219  -0.005718   0.001204   0.011256
     71       0.000712  -0.003222   0.013710  -0.014303  -0.000213  -0.000686
     72      -0.005678   0.063452  -0.124469   0.148051   0.002109  -0.001973
     73      -0.005876  -0.002132  -0.008509   0.031288  -0.002283  -0.023256
     74      -0.003520   0.164766  -0.264020   0.254807   0.008199   0.031632
     75       0.012911  -0.039214   0.060588  -0.096552   0.004953   0.056819
     76      -0.004544   0.010059  -0.016505   0.030604  -0.001164  -0.014301
     77       0.010889   0.037208  -0.108770   0.068032   0.010626   0.080741
     78      -0.003910  -0.168909   0.293713  -0.245150  -0.012988  -0.074125
     79      -0.005502   0.031017  -0.016437   0.029540  -0.002316  -0.024815
     80      -0.002910  -0.042061   0.097825  -0.079454  -0.005601  -0.037327
                 30         31         32         33         34         35    
      0      -0.021455   0.016128  -0.022030  -0.009855   0.007919  -0.103961
      1       0.013889  -0.011705   0.014588  -0.018773   0.017341  -0.215068
      2      -0.066723   0.052813  -0.068745  -0.001943   0.001099  -0.014803
      3      -0.003759  -0.032763   0.008857   0.023809  -0.019546   0.071658
      4       0.005143   0.024002  -0.006237   0.005438  -0.002815  -0.016811
      5      -0.019214  -0.108616   0.028837  -0.007469   0.003283  -0.027242
      6       0.023767   0.020487   0.005111  -0.007192   0.012326  -0.225349
      7      -0.015608  -0.014034  -0.003295   0.014054  -0.015583   0.218715
      8       0.073481   0.061593   0.014532   0.010253  -0.001772   0.119566
      9      -0.020784   0.004164  -0.005739  -0.011368   0.005241  -0.034350
     10       0.013254  -0.003467   0.003888  -0.018412   0.018611  -0.049934
     11      -0.063684   0.014004  -0.017909  -0.007805  -0.005663  -0.000581
     12       0.018587  -0.024584  -0.016799   0.020483  -0.019457   0.347469
     13      -0.012447   0.017214   0.011876   0.003086  -0.002234  -0.020935
     14       0.055340  -0.076196  -0.053752  -0.005580   0.003413  -0.114442
     15       0.001980   0.015805   0.030592  -0.012205   0.011423  -0.051856
     16      -0.001268  -0.010736  -0.021429   0.015742  -0.014211   0.025614
     17       0.008254   0.051948   0.096328   0.008292  -0.003440   0.023183
     18       0.106271  -0.106459   0.144939  -0.014413   0.008625  -0.119032
     19      -0.076133   0.074147  -0.102714  -0.014845   0.015592  -0.199142
     20       0.344107  -0.330520   0.459891   0.000257  -0.003030  -0.007359
     21      -0.136034  -0.113252   0.013095  -0.018209   0.004687  -0.311986
     22       0.098759   0.079979  -0.008639   0.016120  -0.002836   0.137766
     23      -0.441012  -0.365413   0.039531  -0.017987  -0.037477   0.122979
     24      -0.116674   0.114050   0.127072   0.015620  -0.015519   0.352606
     25       0.079586  -0.076163  -0.084048   0.009558  -0.006744  -0.156465
     26      -0.378846   0.369868   0.409587  -0.012258   0.009135  -0.139599
     27       0.031833  -0.000766   0.000525  -0.019816   0.027586  -0.015488
     28      -0.027077  -0.001222  -0.000575  -0.017271   0.001801   0.102223
     29       0.126495   0.000037   0.002835   0.028898   0.036015   0.027582
     30      -0.184337  -0.005371  -0.006453  -0.077227  -0.035188   0.128792
     31       0.126939   0.001686   0.003911   0.002914   0.070148   0.228090
     32      -0.553863  -0.013409  -0.018281  -0.114235  -0.209255   0.015468
     33      -0.015598  -0.000640  -0.000444  -0.018068  -0.001842   0.028056
     34      -0.001282  -0.001020  -0.000202  -0.029234   0.019736  -0.025759
     35      -0.040815  -0.000250  -0.000909  -0.014952  -0.038872  -0.012362
     36      -0.007848  -0.000362   0.000165   0.072912  -0.041493  -0.003986
     37       0.005933   0.001719   0.000618   0.022035  -0.033720   0.011248
     38      -0.023332  -0.003175  -0.001098  -0.000616   0.071621   0.019573
     39       0.006838   0.000287  -0.000034  -0.002698   0.031692  -0.011402
     40      -0.029125  -0.003791  -0.000771   0.141461   0.048526  -0.009216
     41       0.027842   0.003061   0.001047   0.011594  -0.047057  -0.011478
     42       0.022931  -0.000440  -0.000354   0.028523   0.141196   0.064382
     43      -0.068843  -0.010569  -0.003822  -0.007824   0.362417   0.069739
     44       0.013444  -0.000297  -0.000389  -0.034501   0.120892   0.045101
     45       0.023873   0.003518   0.002172   0.158931  -0.148432  -0.130418
     46       0.008210   0.001831   0.002349   0.320052  -0.181923  -0.113966
     47      -0.003074  -0.000201  -0.000040   0.006975  -0.005118  -0.080747
[...]
     57      -0.037869   0.049433   0.061289  -0.002330   0.000205  -0.000063
     58      -0.029584   0.052889   0.051934  -0.003524   0.000186  -0.000070
     59       0.097747  -0.139143  -0.157835   0.009923  -0.000564   0.000207
     60       0.129421   0.063490  -0.145299   0.006705  -0.000268   0.000094
     61      -0.100355  -0.055998   0.114791  -0.004669   0.000236  -0.000058
     62      -0.060416  -0.026181   0.071520  -0.001713   0.000153  -0.000037
     63       0.000038   0.000048  -0.000111   0.000052  -0.013424  -0.365157
     64      -0.000053  -0.000086   0.000166  -0.000097   0.017207   0.503842
     65      -0.000021   0.000003   0.000055  -0.000032   0.007990   0.225107
     66       0.000272   0.000017   0.000127  -0.000129   0.368998   0.246658
     67       0.000079   0.000025  -0.000002  -0.000033   0.057975   0.037608
     68      -0.000078  -0.000023  -0.000030   0.000035  -0.102435  -0.068631
     69       0.001730  -0.053938   0.009581   0.035401  -0.000049   0.000008
     70      -0.022196   0.007757  -0.077620   0.026901   0.000003   0.000006
     71       0.005549   0.066779   0.013883   0.021403  -0.000011   0.000003
     72      -0.126416   0.464962  -0.460533  -0.324234   0.000503  -0.000098
     73       0.088011  -0.381418   0.319091   0.277242  -0.000402   0.000085
     74       0.055881  -0.172600   0.201804   0.148996  -0.000211   0.000046
     75       0.055004  -0.018487   0.198294  -0.249835   0.000178  -0.000075
     76       0.143693   0.037170   0.518292  -0.745193   0.000526  -0.000200
     77       0.014516   0.039078   0.048302  -0.049384   0.000039  -0.000017
     78       0.047700   0.207003   0.144982   0.136962  -0.000109   0.000031
     79       0.038074   0.250252   0.104835   0.142537  -0.000117   0.000036
     80      -0.139430  -0.675040  -0.419202  -0.365672   0.000317  -0.000073
                  78         79         80    
      0      -0.010007  -0.022142   0.005519
      1      -0.023021  -0.051972   0.010803
      2      -0.001941  -0.004515   0.000656
      3       0.051000  -0.048865   0.006136
      4       0.008383  -0.007259   0.000759
      5      -0.014088   0.013670  -0.001751
      6       0.014055  -0.009370   0.002502
      7      -0.018712   0.014304  -0.002472
      8      -0.008525   0.006087  -0.001333
      9      -0.001370  -0.000049  -0.001232
     10      -0.000705  -0.000002  -0.002151
     11       0.000273   0.000016  -0.000092
     12      -0.010718  -0.018226  -0.074980
     13      -0.001434  -0.002765  -0.012956
     14       0.003035   0.005089   0.020591
     15       0.027473   0.016131  -0.013534
     16      -0.039085  -0.021470   0.018911
     17      -0.017191  -0.009772   0.008392
     18       0.122254   0.261186  -0.055154
     19       0.280805   0.599988  -0.123547
     20       0.023640   0.050539  -0.009975
     21      -0.156828   0.110101  -0.024053
     22       0.215291  -0.154548   0.031420
     23       0.096546  -0.068530   0.014448
     24       0.148118   0.231820   0.902025
     25       0.024080   0.038308   0.150326
     26      -0.040979  -0.064034  -0.248952
     27       0.000044  -0.000150  -0.000410
     28      -0.000078   0.000480  -0.000099
     29      -0.000032   0.000156   0.000107
     30       0.000154   0.002826  -0.000229
     31       0.000461  -0.004190   0.000551
     32       0.000136  -0.001910   0.000211
     33       0.000056  -0.000047   0.000336
     34       0.000052  -0.000024   0.000004
     35      -0.000001   0.000014  -0.000087
     36       0.000020  -0.000095   0.000076
     37      -0.000059   0.000128  -0.000096
     38       0.000011  -0.000101   0.000006
     39      -0.000026   0.000012   0.000001
     40       0.000044  -0.000067   0.000063
     41      -0.000017   0.000007  -0.000096
     42      -0.000103   0.000133  -0.000548
     43      -0.000131   0.000229  -0.000392
     44       0.000408  -0.000260   0.001478
     45       0.000420  -0.000159   0.000489
     46      -0.000399   0.000295  -0.000374
     47      -0.000213   0.000130  -0.000371
     48       0.000174  -0.000728   0.000187
     49       0.000180  -0.000880   0.000245
     50      -0.000442   0.001995  -0.000637
     51      -0.000384   0.001713  -0.000818
     52       0.000319  -0.001513   0.000327
     53       0.000211  -0.000881   0.000267
     54       0.000004  -0.000011   0.000055
     55      -0.000019   0.000006  -0.000080
     56       0.000012  -0.000026   0.000001
     57       0.000096  -0.000049   0.000144
     58       0.000068  -0.000050   0.000102
     59      -0.000243   0.000259  -0.000419
     60      -0.000160   0.000127  -0.000892
     61       0.000154  -0.000026   0.000752
     62       0.000093  -0.000024   0.000381
     63      -0.335640  -0.184412   0.145783
     64       0.465758   0.253514  -0.200548
     65       0.207439   0.113413  -0.089716
     66      -0.618666   0.564273  -0.067621
     67      -0.097367   0.086917  -0.010051
     68       0.171767  -0.157287   0.018937
     69      -0.000021   0.000006   0.000001
     70      -0.000002   0.000004  -0.000017
     71      -0.000007  -0.000013  -0.000036
     72       0.000215   0.000005   0.000032
     73      -0.000179   0.000056  -0.000042
     74      -0.000090   0.000019  -0.000052
     75       0.000098  -0.000054   0.000142
     76       0.000265  -0.000205   0.000413
     77       0.000017  -0.000003   0.000035
     78      -0.000043   0.000003  -0.000167
     79      -0.000061   0.000006  -0.000144
     80       0.000146   0.000112   0.000465


-----------
IR SPECTRUM  
-----------

 Mode    freq (cm**-1)   T**2         TX         TY         TZ
-------------------------------------------------------------------
   6:        50.02    0.000000  (  0.000000   0.000000   0.000000)
   7:        66.81    0.000000  (  0.000000   0.000000   0.000000)
   8:        75.45    0.000000  (  0.000000   0.000000   0.000000)
   9:       108.37    0.000000  (  0.000000   0.000000   0.000000)
  10:       120.08    0.000000  (  0.000000   0.000000   0.000000)
  11:       155.33    0.000000  (  0.000000   0.000000   0.000000)
  12:       214.16    0.000000  (  0.000000   0.000000   0.000000)
  13:       267.57    0.000000  (  0.000000   0.000000   0.000000)
  14:       278.76    0.000000  (  0.000000   0.000000   0.000000)
  15:       283.43    0.000000  (  0.000000   0.000000   0.000000)
  16:       375.95    0.000000  (  0.000000   0.000000   0.000000)
  17:       381.22    0.000000  (  0.000000   0.000000   0.000000)
  18:       427.25    0.000000  (  0.000000   0.000000   0.000000)
  19:       463.19    0.000000  (  0.000000   0.000000   0.000000)
  20:       510.27    0.000000  (  0.000000   0.000000   0.000000)
  21:       588.75    0.000000  (  0.000000   0.000000   0.000000)
  22:       624.08    0.000000  (  0.000000   0.000000   0.000000)
  23:       666.12    0.000000  (  0.000000   0.000000   0.000000)
  24:       754.32    0.000000  (  0.000000   0.000000   0.000000)
  25:       771.31    0.000000  (  0.000000   0.000000   0.000000)
  26:       823.57    0.000000  (  0.000000   0.000000   0.000000)
  27:       858.50    0.000000  (  0.000000   0.000000   0.000000)
  28:       875.15    0.000000  (  0.000000   0.000000   0.000000)
  29:       900.78    0.000000  (  0.000000   0.000000   0.000000)
  30:       913.98    0.000000  (  0.000000   0.000000   0.000000)
  31:       931.20    0.000000  (  0.000000   0.000000   0.000000)
  32:       934.20    0.000000  (  0.000000   0.000000   0.000000)
  33:       945.60    0.000000  (  0.000000   0.000000   0.000000)
  34:       951.85    0.000000  (  0.000000   0.000000   0.000000)
  35:       984.58    0.000000  (  0.000000   0.000000   0.000000)
  36:      1020.06    0.000000  (  0.000000   0.000000   0.000000)
  37:      1067.41    0.000000  (  0.000000   0.000000   0.000000)
  38:      1071.47    0.000000  (  0.000000   0.000000   0.000000)
  39:      1100.66    0.000000  (  0.000000   0.000000   0.000000)
  40:      1112.13    0.000000  (  0.000000   0.000000   0.000000)
  41:      1125.38    0.000000  (  0.000000   0.000000   0.000000)
  42:      1143.60    0.000000  (  0.000000   0.000000   0.000000)
  43:      1178.28    0.000000  (  0.000000   0.000000   0.000000)
  44:      1185.58    0.000000  (  0.000000   0.000000   0.000000)
  45:      1211.79    0.000000  (  0.000000   0.000000   0.000000)
  46:      1219.33    0.000000  (  0.000000   0.000000   0.000000)
  47:      1254.43    0.000000  (  0.000000   0.000000   0.000000)
  48:      1268.16    0.000000  (  0.000000   0.000000   0.000000)
  49:      1276.24    0.000000  (  0.000000   0.000000   0.000000)
  50:      1277.41    0.000000  (  0.000000   0.000000   0.000000)
  51:      1292.95    0.000000  (  0.000000   0.000000   0.000000)
  52:      1324.57    0.000000  (  0.000000   0.000000   0.000000)
  53:      1354.67    0.000000  (  0.000000   0.000000   0.000000)
  54:      1369.13    0.000000  (  0.000000   0.000000   0.000000)
  55:      1423.60    0.000000  (  0.000000   0.000000   0.000000)
  56:      1429.86    0.000000  (  0.000000   0.000000   0.000000)
  57:      1455.42    0.000000  (  0.000000   0.000000   0.000000)
  58:      1468.53    0.000000  (  0.000000   0.000000   0.000000)
  59:      1501.93    0.000000  (  0.000000   0.000000   0.000000)
  60:      1505.17    0.000000  (  0.000000   0.000000   0.000000)
  61:      1509.14    0.000000  (  0.000000   0.000000   0.000000)
  62:      1513.01    0.000000  (  0.000000   0.000000   0.000000)
  63:      1561.32    0.000000  (  0.000000   0.000000   0.000000)
  64:      1568.22    0.000000  (  0.000000   0.000000   0.000000)
  65:      1668.20    0.000000  (  0.000000   0.000000   0.000000)
  66:      2849.94    0.000000  (  0.000000   0.000000   0.000000)
  67:      2868.03    0.000000  (  0.000000   0.000000   0.000000)
  68:      2939.32    0.000000  (  0.000000   0.000000   0.000000)
  69:      2942.23    0.000000  (  0.000000   0.000000   0.000000)
  70:      2954.50    0.000000  (  0.000000   0.000000   0.000000)
  71:      2966.02    0.000000  (  0.000000   0.000000   0.000000)
  72:      2974.56    0.000000  (  0.000000   0.000000   0.000000)
  73:      2981.08    0.000000  (  0.000000   0.000000   0.000000)
  74:      2986.79    0.000000  (  0.000000   0.000000   0.000000)
  75:      2999.15    0.000000  (  0.000000   0.000000   0.000000)
  76:      3048.66    0.000000  (  0.000000   0.000000   0.000000)
  77:      3055.94    0.000000  (  0.000000   0.000000   0.000000)
  78:      3061.48    0.000000  (  0.000000   0.000000   0.000000)
  79:      3071.17    0.000000  (  0.000000   0.000000   0.000000)
  80:      3082.83    0.000000  (  0.000000   0.000000   0.000000)

The first frequency considered to be a vibration is 6
The total number of vibrations considered is 75


--------------------------
THERMOCHEMISTRY AT 298.15K
--------------------------

Temperature         ... 298.15 K
Pressure            ... 1.00 atm
Total Mass          ... 161.25 AMU

Throughout the following assumptions are being made:
  (1) The electronic state is orbitally nondegenerate
  (2) There are no thermally accessible electronically excited states
  (3) Hindered rotations indicated by low frequency modes are not
      treated as such but are treated as vibrations and this may
      cause some error
  (4) All equations used are the standard statistical mechanics
      equations for an ideal gas
  (5) All vibrations are strictly harmonic

freq.      50.02  E(vib)   ...       0.52 
freq.      66.81  E(vib)   ...       0.50 
freq.      75.45  E(vib)   ...       0.49 
freq.     108.37  E(vib)   ...       0.45 
freq.     120.08  E(vib)   ...       0.44 
freq.     155.33  E(vib)   ...       0.40 
freq.     214.16  E(vib)   ...       0.34 
freq.     267.57  E(vib)   ...       0.29 
freq.     278.76  E(vib)   ...       0.28 
freq.     283.43  E(vib)   ...       0.28 
freq.     375.95  E(vib)   ...       0.21 
freq.     381.22  E(vib)   ...       0.21 
freq.     427.25  E(vib)   ...       0.18 
freq.     463.19  E(vib)   ...       0.16 
freq.     510.27  E(vib)   ...       0.14 
freq.     588.75  E(vib)   ...       0.10 
freq.     624.08  E(vib)   ...       0.09 
freq.     666.12  E(vib)   ...       0.08 
freq.     754.32  E(vib)   ...       0.06 
freq.     771.31  E(vib)   ...       0.05 
freq.     823.57  E(vib)   ...       0.05 
freq.     858.50  E(vib)   ...       0.04 
freq.     875.15  E(vib)   ...       0.04 
freq.     900.78  E(vib)   ...       0.03 
freq.     913.98  E(vib)   ...       0.03 
freq.     931.20  E(vib)   ...       0.03 
freq.     934.20  E(vib)   ...       0.03 
freq.     945.60  E(vib)   ...       0.03 
freq.     951.85  E(vib)   ...       0.03 
freq.     984.58  E(vib)   ...       0.02 
freq.    1020.06  E(vib)   ...       0.02 
freq.    1067.41  E(vib)   ...       0.02 
freq.    1071.47  E(vib)   ...       0.02 
freq.    1100.66  E(vib)   ...       0.02 
freq.    1112.13  E(vib)   ...       0.01 
freq.    1125.38  E(vib)   ...       0.01 
freq.    1143.60  E(vib)   ...       0.01 
freq.    1178.28  E(vib)   ...       0.01 
freq.    1185.58  E(vib)   ...       0.01 
freq.    1211.79  E(vib)   ...       0.01 
freq.    1219.33  E(vib)   ...       0.01 
freq.    1254.43  E(vib)   ...       0.01 
freq.    1268.16  E(vib)   ...       0.01 
freq.    1276.24  E(vib)   ...       0.01 
freq.    1277.41  E(vib)   ...       0.01 
freq.    1292.95  E(vib)   ...       0.01 
freq.    1324.57  E(vib)   ...       0.01 
freq.    1354.67  E(vib)   ...       0.01 
freq.    1369.13  E(vib)   ...       0.01 
freq.    1423.60  E(vib)   ...       0.00 
freq.    1429.86  E(vib)   ...       0.00 
freq.    1455.42  E(vib)   ...       0.00 
freq.    1468.53  E(vib)   ...       0.00 
freq.    1501.93  E(vib)   ...       0.00 
freq.    1505.17  E(vib)   ...       0.00 
freq.    1509.14  E(vib)   ...       0.00 
freq.    1513.01  E(vib)   ...       0.00 
freq.    1561.32  E(vib)   ...       0.00 
freq.    1568.22  E(vib)   ...       0.00 
freq.    1668.20  E(vib)   ...       0.00 
freq.    2849.94  E(vib)   ...       0.00 
freq.    2868.03  E(vib)   ...       0.00 
freq.    2939.32  E(vib)   ...       0.00 
freq.    2942.23  E(vib)   ...       0.00 
freq.    2954.50  E(vib)   ...       0.00 
freq.    2966.02  E(vib)   ...       0.00 
freq.    2974.56  E(vib)   ...       0.00 
freq.    2981.08  E(vib)   ...       0.00 
freq.    2986.79  E(vib)   ...       0.00 
freq.    2999.15  E(vib)   ...       0.00 
freq.    3048.66  E(vib)   ...       0.00 
freq.    3055.94  E(vib)   ...       0.00 
freq.    3061.48  E(vib)   ...       0.00 
freq.    3071.17  E(vib)   ...       0.00 
freq.    3082.83  E(vib)   ...       0.00 

------------
INNER ENERGY
------------

The inner energy is: U= E(el) + E(ZPE) + E(vib) + E(rot) + E(trans)
    E(el)   - is the total energy from the electronic structure calculation
              = E(kin-el) + E(nuc-el) + E(el-el) + E(nuc-nuc)
    E(ZPE)  - the the zero temperature vibrational energy from the frequency calculation
    E(vib)  - the the finite temperature correction to E(ZPE) due to population
              of excited vibrational states
    E(rot)  - is the rotational thermal energy
    E(trans)- is the translational thermal energy

Summary of contributions to the inner energy U:
Electronic energy                ...    -34.11187494 Eh
Zero point energy                ...      0.22904969 Eh     143.73 kcal/mol
Thermal vibrational correction   ...      0.00931006 Eh       5.84 kcal/mol
Thermal rotational correction    ...      0.00141627 Eh       0.89 kcal/mol
Thermal translational correction ...      0.00141627 Eh       0.89 kcal/mol
-----------------------------------------------------------------------
Total thermal energy                    -33.87068264 Eh


Summary of corrections to the electronic energy:
(perhaps to be used in another calculation)
Total thermal correction                  0.01214260 Eh       7.62 kcal/mol
Non-thermal (ZPE) correction              0.22904969 Eh     143.73 kcal/mol
-----------------------------------------------------------------------
Total correction                          0.24119229 Eh     151.35 kcal/mol


--------
ENTHALPY
--------

The enthalpy is H = U + kB*T
                kB is Boltzmann's constant
Total free energy                 ...    -33.87068264 Eh 
Thermal Enthalpy correction       ...      0.00094421 Eh       0.59 kcal/mol
-----------------------------------------------------------------------
Total Enthalpy                    ...    -33.86973843 Eh


Note: Only C1 symmetry has been detected, increase convergence thresholds 
      if your molecule has a higher symmetry. Symmetry factor of 1.0 is   
      used for the rotational entropy correction. 
 

Note: Rotational entropy computed according to Herzberg 
Infrared and Raman Spectra, Chapter V,1, Van Nostrand Reinhold, 1945 
Point Group:  C1, Symmetry Number:   1  
Rotational constants in cm-1:     0.109962     0.009702     0.009353 

Vibrational entropy computed according to the QRRHO of S. Grimme
Chem.Eur.J. 2012 18 9955


-------
ENTROPY
-------

The entropy contributions are T*S = T*(S(el)+S(vib)+S(rot)+S(trans))
     S(el)   - electronic entropy
     S(vib)  - vibrational entropy
     S(rot)  - rotational entropy
     S(trans)- translational entropy
The entropies will be listed as mutliplied by the temperature to get
units of energy

Electronic entropy                ...      0.00000000 Eh      0.00 kcal/mol
Vibrational entropy               ...      0.01619754 Eh     10.16 kcal/mol
Rotational entropy                ...      0.01494697 Eh      9.38 kcal/mol
Translational entropy             ...      0.01954790 Eh     12.27 kcal/mol
-----------------------------------------------------------------------
Final entropy term                ...      0.05069241 Eh     31.81 kcal/mol

In case the symmetry of your molecule has not been determined correctly
or in case you have a reason to use a different symmetry number we print 
out the resulting rotational entropy values for sn=1,12 :
 --------------------------------------------------------
|  sn= 1 | S(rot)=       0.01494697 Eh      9.38 kcal/mol|
|  sn= 2 | S(rot)=       0.01429251 Eh      8.97 kcal/mol|
|  sn= 3 | S(rot)=       0.01390968 Eh      8.73 kcal/mol|
|  sn= 4 | S(rot)=       0.01363806 Eh      8.56 kcal/mol|
|  sn= 5 | S(rot)=       0.01342737 Eh      8.43 kcal/mol|
|  sn= 6 | S(rot)=       0.01325523 Eh      8.32 kcal/mol|
|  sn= 7 | S(rot)=       0.01310968 Eh      8.23 kcal/mol|
|  sn= 8 | S(rot)=       0.01298360 Eh      8.15 kcal/mol|
|  sn= 9 | S(rot)=       0.01287239 Eh      8.08 kcal/mol|
|  sn=10 | S(rot)=       0.01277291 Eh      8.02 kcal/mol|
|  sn=11 | S(rot)=       0.01268292 Eh      7.96 kcal/mol|
|  sn=12 | S(rot)=       0.01260077 Eh      7.91 kcal/mol|
 --------------------------------------------------------


-------------------
GIBBS FREE ENERGY
-------------------

The Gibbs free energy is G = H - T*S

Total enthalpy                    ...    -33.86973843 Eh 
Total entropy correction          ...     -0.05069241 Eh    -31.81 kcal/mol
-----------------------------------------------------------------------
Final Gibbs free energy         ...    -33.92043084 Eh

For completeness - the Gibbs free energy minus the electronic energy
G-E(el)                           ...      0.19144409 Eh    120.13 kcal/mol


Total Time for Numerical Frequencies  :        42.218 sec
Time for Reference State(s)           :         0.063 sec
Time for Displacements                :        37.655 sec

Timings for individual modules:

Sum of individual times         ...        0.164 sec (=   0.003 min)
XTB module                      ...        0.164 sec (=   0.003 min) 100.0 %
                             ****ORCA TERMINATED NORMALLY****
TOTAL RUN TIME: 0 days 0 hours 0 minutes 42 seconds 767 msec
(SLURM) EXECUTION TIME: 42.787222141 seconds.
