(SLURM) JOB ID:         251

                                 *****************
                                 * O   R   C   A *
                                 *****************

           --- An Ab Initio, DFT and Semiempirical electronic structure package ---

                  #######################################################
                  #                        -***-                        #
                  #          Department of theory and spectroscopy      #
                  #               Directorship: Frank Neese             #
                  #        Max Planck Institute fuer Kohlenforschung    #
                  #                Kaiser Wilhelm Platz 1               #
                  #                 D-45470 Muelheim/Ruhr               #
                  #                      Germany                        #
                  #                                                     #
                  #                  All rights reserved                #
                  #                        -***-                        #
                  #######################################################


                         Program Version 4.2.1 -  RELEASE  -


 With contributions from (in alphabetic order):
   Daniel Aravena         : Magnetic Suceptibility
   Michael Atanasov       : Ab Initio Ligand Field Theory (pilot matlab implementation)
   Alexander A. Auer      : GIAO ZORA, VPT2
   Ute Becker             : Parallelization
   Giovanni Bistoni       : ED, misc. LED, open-shell LED, HFLD
   Martin Brehm           : Molecular dynamics
   Dmytro Bykov           : SCF Hessian
   Vijay G. Chilkuri      : MRCI spin determinant printing, contributions to CSF-ICE
   Dipayan Datta          : RHF DLPNO-CCSD density
   Achintya Kumar Dutta   : EOM-CC, STEOM-CC
   Dmitry Ganyushin       : Spin-Orbit,Spin-Spin,Magnetic field MRCI
   Miquel Garcia          : C-PCM Hessian, Gaussian charge scheme
   Yang Guo               : DLPNO-NEVPT2, CIM, IAO-localization
   Andreas Hansen         : Spin unrestricted coupled pair/coupled cluster methods
   Benjamin Helmich-Paris : CASSCF linear response (MC-RPA)
   Lee Huntington         : MR-EOM, pCC
   Robert Izsak           : Overlap fitted RIJCOSX, COSX-SCS-MP3, EOM
   Christian Kollmar      : KDIIS, OOCD, Brueckner-CCSD(T), CCSD density
   Simone Kossmann        : Meta GGA functionals, TD-DFT gradient, OOMP2, MP2 Hessian
   Martin Krupicka        : AUTO-CI
   Lucas Lang             : DCDCAS
   Dagmar Lenk            : GEPOL surface, SMD
   Dimitrios Liakos       : Extrapolation schemes; Compound Job, initial MDCI parallelization
   Dimitrios Manganas     : Further ROCIS development; embedding schemes
   Dimitrios Pantazis     : SARC Basis sets
   Taras Petrenko         : DFT Hessian,TD-DFT gradient, ASA, ECA, R-Raman, ABS, FL, XAS/XES, NRVS
   Peter Pinski           : DLPNO-MP2, DLPNO-MP2 Gradient
   Christoph Reimann      : Effective Core Potentials
   Marius Retegan         : Local ZFS, SOC
   Christoph Riplinger    : Optimizer, TS searches, QM/MM, DLPNO-CCSD(T), (RO)-DLPNO pert. Triples
   Tobias Risthaus        : Range-separated hybrids, TD-DFT gradient, RPA, STAB
   Michael Roemelt        : Original ROCIS implementation
   Masaaki Saitow         : Open-shell DLPNO-CCSD energy and density
   Barbara Sandhoefer     : DKH picture change effects
   Avijit Sen             : IP-ROCIS
   Kantharuban Sivalingam : CASSCF convergence, NEVPT2, FIC-MRCI
   Bernardo de Souza      : ESD, SOC TD-DFT
   Georgi Stoychev        : AutoAux, RI-MP2 NMR
   Willem Van den Heuvel  : Paramagnetic NMR
   Boris Wezisla          : Elementary symmetry handling
   Frank Wennmohs         : Technical directorship


 We gratefully acknowledge several colleagues who have allowed us to
 interface, adapt or use parts of their codes:
   Stefan Grimme, W. Hujo, H. Kruse,             : VdW corrections, initial TS optimization,
                  C. Bannwarth                     DFT functionals, gCP, sTDA/sTD-DF
   Ed Valeev, F. Pavosevic, A. Kumar             : LibInt (2-el integral package), F12 methods
   Garnet Chan, S. Sharma, J. Yang, R. Olivares  : DMRG
   Ulf Ekstrom                                   : XCFun DFT Library
   Mihaly Kallay                                 : mrcc  (arbitrary order and MRCC methods)
   Andreas Klamt, Michael Diedenhofen            : otool_cosmo (COSMO solvation model)
   Jiri Pittner, Ondrej Demel                    : Mk-CCSD
   Frank Weinhold                                : gennbo (NPA and NBO analysis)
   Christopher J. Cramer and Donald G. Truhlar   : smd solvation model
   Lars Goerigk                                  : TD-DFT with DH, B97 family of functionals
   V. Asgeirsson, H. Jonsson                     : NEB implementation
   FAccTs GmbH                                   : IRC, NEB, NEB-TS, Multilevel, MM, QM/MM, CI optimization
   S Lehtola, MJT Oliveira, MAL Marques          : LibXC Library


 Your calculation uses the libint2 library for the computation of 2-el integrals
 For citations please refer to: http://libint.valeyev.net

 Your ORCA version has been built with support for libXC version: 4.2.3
 For citations please refer to: https://tddft.org/programs/libxc/

 This ORCA versions uses:
   CBLAS   interface :  Fast vector & matrix operations
   LAPACKE interface :  Fast linear algebra routines
   SCALAPACK package :  Parallel linear algebra routines




***************************************
The coordinates will be read from file: init.xyz
***************************************


Your calculation utilizes the SMD solvation module
Please cite in your paper:
A.V. Marenich, C.J. Cramer, D.G. Truhlar J. Phys. Chem. B, 113, (2009), 6378 

Your calculation utilizes the semiempirical GFN2-xTB method
Please cite in your paper:
C. Bannwarth, Ehlert S., S. Grimme,  J. Chem. Theory Comput., 15, (2019), 1652.
   

----- Orbital basis set information -----
Your calculation utilizes the basis: def2-SVP
   F. Weigend and R. Ahlrichs, Phys. Chem. Chem. Phys. 7, 3297 (2005).

================================================================================
                                        WARNINGS
                       Please study these warnings very carefully!
================================================================================

WARNING: Gradients needed for Numerical Frequencies
  ===> : Setting RunTyp to EnGrad

WARNING: The environment variable RSH_COMMAND is not set!
  ===> : All Displacements for the Numerical Hessian calculation
         will be started on localhost

WARNING: Found dipole moment calculation with XTB calculation
  ===> : Switching off dipole moment calculation


INFO   : the flag for use of LIBINT has been found!

================================================================================
                                       INPUT FILE
================================================================================
NAME = /tmp/slurm-scratch/freq.251/freq.inp
|  1> ! XTB2 NumFreq
|  2> %maxcore 1450
|  3> 
|  4> * xyzfile 0 1 init.xyz
|  5> 
|  6> %cpcm
|  7>  smd true
|  8>  smdsolvent "ch2cl2"
|  9> end
| 10> %pal nprocs 8 end
| 11> 
| 12>                          ****END OF INPUT****
================================================================================

                     *******************************
                     * Energy+Gradient Calculation *
                     *******************************

      -----------------------------------------------------------      
     |                   =====================                   |     
     |                           x T B                           |     
     |                   =====================                   |     
     |                         S. Grimme                         |     
     |          Mulliken Center for Theoretical Chemistry        |     
     |                    University of Bonn                     |     
      -----------------------------------------------------------      

   * xtb version 6.3.0 (preview) compiled by 'ehlert@majestix' on 2020-01-15

   This program is distributed in the hope that it will be useful,
   but WITHOUT ANY WARRANTY; without even the implied warranty of
   MERCHANTABILITY or FITNESS FOR A PARTICULAR PURPOSE.
   
   FOR NON-COMMERCIAL, ACADEMIA USE ONLY.
   
   Cite this work as:
   * S. Grimme, C. Bannwarth, P. Shushkov, J. Chem. Theory Comput., 2017,
     13, 1989-2009. DOI: 10.1021/acs.jctc.7b00118
   * C. Bannwarth, S. Ehlert and S. Grimme., J. Chem. Theory Comput., 2019,
     15, 1652-1671. DOI: 10.1021/acs.jctc.8b01176
   * P. Pracht, E. Caldeweyher, S. Ehlert, S. Grimme, ChemRxiv, 2019, preprint.
     DOI: 10.26434/chemrxiv.8326202.v1
   * S. Grimme, S. Spicher unpublished
   
   for DFT-D4:
   * E. Caldeweyher, C. Bannwarth and S. Grimme, J. Chem. Phys., 2017,
     147, 034112. DOI: 10.1063/1.4993215
   * E. Caldeweyher, S. Ehlert, A. Hansen, H. Neugebauer, S. Spicher,
     C. Bannwarth and S. Grimme, J. Chem. Phys., 2019, 150, 154122.
     DOI: 10.1063/1.5090222
   
   for sTDA-xTB:
   * S. Grimme and C. Bannwarth, J. Chem. Phys., 2016, 145, 054103.
     DOI: 10.1063/1.4959605
   
   in the mass-spec context:
   * V. Asgeirsson, C. Bauer and S. Grimme, Chem. Sci., 2017, 8, 4879.
     DOI: 10.1039/c7sc00601b
   
   for metadynamics refer to:
   * S. Grimme, J. Chem. Theory Comput., 2019, 155, 2847-2862
     DOI: 10.1021/acs.jctc.9b00143
   
   with help from (in alphabetical order)
   C. Bannwarth, F. Bohle, G. Brandenburg, E. Caldeweyher, M. Checinski,
   S. Dohm, S. Ehlert, S. Ehrlich, F. März, H. Neugebauer, J. Pisarek,
   P. Pracht, P. Shushkov, and S. Spicher.
   
 * started run on 2020/10/11 at 15:11:04.799     

           -------------------------------------------------
          |                Calculation Setup                |
           -------------------------------------------------

          program call               : /opt/orca/otool_xtb /tmp/slurm-scratch/freq.251/freq_XTB.xyz --grad -c 0 -u 0 -P 8 --namespace /tmp/slurm-scratch/freq.251/freq --gbsa CH2Cl2
          hostname                   : headnode-pbs
          calculation namespace      : /tmp/slurm-scratch/freq.251/freq
          coordinate file            : /tmp/slurm-scratch/freq.251/freq_XTB.xyz
          omp threads                :                     8
          number of atoms            :                    33
          number of electrons        :                    80
          charge                     :                     0
          spin                       :                   0.0
          first test random number   :      0.97443148671960


molecular fragmentation (1/2 indicates fragments):
111111111111111211111112111111111
# atoms in fragment 1/2:    31     2
 fragment masses (1/2) :      180.27       17.01
CMA distance (Bohr)    :   6.499
constraining FC (au)   :  0.0500

########################################################################
# WARNING! Please study the warnings concerning your input carefully
#  - Process number higher than OMP_NUM_THREADS, I hope you know what you are doing.
########################################################################

           ------------------------------------------------- 
          |                 G F N 2 - x T B                 |
          | Geometry, Frequencies, Noncovalent interactions |
          |            JCTC 2019 parametrisation            |
           ------------------------------------------------- 
             k(s)              :                1.8500
             k(p)              :                2.2300
             k(d)              :                2.2300
             k(f)              :                2.0000
             kEN (H0ij)        :               -2.0000
             D4 a1             :                0.5200
             D4 a2             :                5.0000
             D4 s6             :                1.0000
             D4 s8             :                2.7000
             D4 s9             :                5.0000
             alphaj            :                2.0000

  Z AO/shell   Hii/eV     exponent
  1     Wed Apr 25 08:07:45 CEST 2018   EN: 2.200 GM2: 0.406  GM3: 0.0800  RAES: 1.40
     1s    -10.707211    1.230000
  6     Wed Apr 25 08:07:45 CEST 2018   EN: 2.550 GM2: 0.538  GM3: 0.1500  RAES: 3.00
     2s    -13.970922    2.096432
     2p    -10.063292    1.800000
  7     Wed Apr 25 08:07:45 CEST 2018   EN: 3.040 GM2: 0.461  GM3:-0.0640  RAES: 1.90
     2s    -16.686243    2.339881
     2p    -12.523956    2.014332
  8     Wed Apr 25 08:07:45 CEST 2018   EN: 3.440 GM2: 0.452  GM3:-0.0517  RAES: 1.80
     2s    -20.229985    2.439742
     2p    -15.503117    2.137023

 Solvent             : CH2Cl2
 Using internal parameter file: .param_gbsa2_CH2Cl2
 Gsolv ref. state (COSMO-RS): gsolv [1 M gas/solution]
 temperature (mdtemp)       :    298.150000000000     
 dielectric constant        :    8.93000000000000     
 rho                        :    1.33000000000000     
 mass                       :    84.9300000000000     
 surface tension            :    15.5689454083859     
 probe radius               :   0.719875900000000     
 Gshift (Eh)                :   4.440829173451759E-003
 c1                         :    1.49173776000000     
 soset                      :   0.000000000000000E+000
 HB correction              :  F
           ------------------------------------------------- 
          |        Self-Consistent Charge Iterations        |
           ------------------------------------------------- 

          ...................................................
          :                      SETUP                      :
          :.................................................:
          :  # basis functions                  75          :
          :  # atomic orbitals                  75          :
          :  # shells                           47          :
          :  # electrons                        80          :
          :  max. iterations                   250          :
          :  Hamiltonian                  GFN2-xTB          :
          :  GBSA solvation                   true          :
          :  PC potential                    false          :
          :  electronic temp.          300.0000000     K    :
          :  accuracy                    1.0000000          :
          :  -> integral cutoff          0.2500000E+02      :
          :  -> integral neglect         0.1000000E-07      :
          :  -> SCF convergence          0.1000000E-05 Eh   :
          :  -> wf. convergence          0.1000000E-03 e    :
          :  Broyden damping             0.4000000          :
          ...................................................
  Checking positiv definite overlap ...  done.
 

 iter      E             dE          RMSdq      gap      omega  full diag
   1    -44.6998659 -0.446999E+02  0.375E+00    4.54       0.0  T
   2    -44.8138064 -0.113941E+00  0.207E+00    4.19       1.0  T
   3    -44.8167518 -0.294539E-02  0.946E-01    3.64       1.0  T
   4    -44.8158244  0.927373E-03  0.331E-01    3.59       1.0  T
   5    -44.8189884 -0.316401E-02  0.827E-02    3.64       1.0  T
   6    -44.8190218 -0.334244E-04  0.276E-02    3.70       1.0  T
   7    -44.8190231 -0.127889E-05  0.125E-02    3.70       1.4  T
   8    -44.8190250 -0.184562E-05  0.402E-03    3.70       4.3  T
   9    -44.8190251 -0.106278E-06  0.155E-03    3.70      11.2  T
  10    -44.8190251 -0.250941E-07  0.684E-04    3.70      25.5  T
  11    -44.8190251 -0.980826E-09  0.245E-04    3.70      71.1  T

   *** convergence criteria satisfied after 11 iterations ***

         #    Occupation            Energy/Eh            Energy/eV
      -------------------------------------------------------------
         1        2.0000           -0.6959435             -18.9376
       ...           ...                  ...                  ...
        34        2.0000           -0.4326895             -11.7741
        35        2.0000           -0.4276798             -11.6378
        36        2.0000           -0.4109541             -11.1826
        37        2.0000           -0.4101162             -11.1598
        38        2.0000           -0.3962629             -10.7829
        39        2.0000           -0.3928828             -10.6909
        40        2.0000           -0.3761993             -10.2369 (HOMO)
        41                         -0.2403842              -6.5412 (LUMO)
        42                         -0.2315985              -6.3021
        43                         -0.1194798              -3.2512
        44                         -0.0652125              -1.7745
        45                         -0.0134385              -0.3657
       ...                                ...                  ...
        75                          0.6247780              17.0011
      -------------------------------------------------------------
                  HL-Gap            0.1358151 Eh            3.6957 eV
             Fermi-level           -0.3082917 Eh           -8.3890 eV

 SCC (total)                   0 d,  0 h,  0 min,  0.073 sec
 SCC setup                      ...        0 min,  0.002 sec (  3.258%)
 Dispersion                     ...        0 min,  0.001 sec (  1.074%)
 integral evaluation            ...        0 min,  0.012 sec ( 16.093%)
 zeroth order Hamiltonian       ...        0 min,  0.000 sec (  0.016%)
 iterations                     ...        0 min,  0.041 sec ( 56.153%)
 molecular gradient             ...        0 min,  0.016 sec ( 22.334%)
 printout                       ...        0 min,  0.001 sec (  0.987%)

         :::::::::::::::::::::::::::::::::::::::::::::::::::::
         ::                     SUMMARY                     ::
         :::::::::::::::::::::::::::::::::::::::::::::::::::::
         :: total energy             -44.263169656578 Eh    ::
         :: total w/o Gsasa/hb       -44.246814143354 Eh    ::
         :: gradient norm              0.038695870802 Eh/a0 ::
         :: HOMO-LUMO gap              3.695715808938 eV    ::
         ::.................................................::
         :: SCC energy               -44.835380606820 Eh    ::
         :: -> isotropic ES            0.134644625045 Eh    ::
         :: -> anisotropic ES         -0.004546764566 Eh    ::
         :: -> anisotropic XC          0.019165301291 Eh    ::
         :: -> dispersion             -0.026510076352 Eh    ::
         :: -> Gsolv                  -0.036760952511 Eh    ::
         ::    -> Gborn               -0.020405439287 Eh    ::
         ::    -> Gsasa               -0.020796342398 Eh    ::
         ::    -> Ghb                  0.000000000000 Eh    ::
         ::    -> Gshift               0.004440829173 Eh    ::
         :: repulsion energy           0.572132382226 Eh    ::
         :: add. restraining           0.000000000000 Eh    ::
         :::::::::::::::::::::::::::::::::::::::::::::::::::::

           -------------------------------------------------
          |                Property Printout                |
           -------------------------------------------------

    * Orbital Energies and Occupations

         #    Occupation            Energy/Eh            Energy/eV
      -------------------------------------------------------------
         1        2.0000           -0.6959435             -18.9376
       ...           ...                  ...                  ...
        28        2.0000           -0.4794980             -13.0478
        29        2.0000           -0.4685332             -12.7494
        30        2.0000           -0.4582722             -12.4702
        31        2.0000           -0.4562810             -12.4160
        32        2.0000           -0.4457914             -12.1306
        33        2.0000           -0.4401605             -11.9774
        34        2.0000           -0.4326895             -11.7741
        35        2.0000           -0.4276798             -11.6378
        36        2.0000           -0.4109541             -11.1826
        37        2.0000           -0.4101162             -11.1598
        38        2.0000           -0.3962629             -10.7829
        39        2.0000           -0.3928828             -10.6909
        40        2.0000           -0.3761993             -10.2369 (HOMO)
        41                         -0.2403842              -6.5412 (LUMO)
        42                         -0.2315985              -6.3021
        43                         -0.1194798              -3.2512
        44                         -0.0652125              -1.7745
        45                         -0.0134385              -0.3657
        46                          0.0340615               0.9269
        47                          0.0663293               1.8049
        48                          0.0748652               2.0372
        49                          0.0908429               2.4720
        50                          0.1027128               2.7950
        51                          0.1148946               3.1264
       ...                                ...                  ...
        75                          0.6247780              17.0011
      -------------------------------------------------------------
                  HL-Gap            0.1358151 Eh            3.6957 eV
             Fermi-level           -0.3082917 Eh           -8.3890 eV

     #   Z        covCN         q      C6AA      α(0)
     1   6 C      2.910    -0.029    28.724     8.788
     2   6 C      2.914    -0.041    29.031     8.835
     3   6 C      2.964    -0.026    28.638     8.778
     4   6 C      2.913    -0.028    28.697     8.784
     5   6 C      2.910    -0.028    28.708     8.786
     6   6 C      2.913    -0.029    28.718     8.788
     7   1 H      0.925     0.041     2.436     2.441
     8   1 H      0.925     0.049     2.327     2.386
     9   1 H      0.925     0.044     2.391     2.418
    10   7 N      3.514    -0.127    23.742     7.237
    11   1 H      0.855     0.276     0.788     1.391
    12   6 C      3.734    -0.014    20.921     6.528
    13   1 H      0.924     0.075     2.029     2.227
    14   1 H      0.925     0.084     1.936     2.176
    15   1 H      0.860     0.208     1.067     1.618
    16   1 H      0.805     0.210     1.067     1.623
    17   1 H      1.025     0.342     0.594     1.203
    18   6 C      3.654     0.181    17.978     6.088
    19   1 H      0.924     0.040     2.444     2.445
    20   8 O      1.518    -0.584    24.889     6.729
    21   6 C      3.801    -0.069    21.828     6.652
    22   1 H      0.924     0.053     2.284     2.363
    23   1 H      0.924     0.054     2.273     2.358
    24   8 O      1.169    -0.811    31.641     7.553
    25   6 C      3.800    -0.056    21.572     6.613
    26   1 H      0.924     0.040     2.443     2.444
    27   1 H      0.924     0.042     2.427     2.436
    28   1 H      0.925     0.040     2.450     2.448
    29   1 H      0.925     0.046     2.367     2.406
    30   6 C      3.749    -0.106    22.587     6.778
    31   1 H      0.924     0.041     2.442     2.444
    32   1 H      0.924     0.039     2.461     2.453
    33   1 H      0.924     0.040     2.443     2.444

 Mol. C6AA /au·bohr⁶  :       9407.383121
 Mol. C8AA /au·bohr⁸  :     210107.865461
 Mol. α(0) /au        :        148.661129


Wiberg/Mayer (AO) data.
largest (>0.10) Wiberg bond orders for each atom
          total WBO             WBO to atom ...
     1  C   3.990        C    2 1.446    C    6 1.437    H   29 0.970    C    4 0.111
     2  C   3.990        C    1 1.446    C    3 1.412    H    7 0.967    C    5 0.110
     3  C   3.985        C    2 1.412    C    4 1.411    C   18 0.971    C    6 0.111
     4  C   3.990        C    5 1.448    C    3 1.411    H    8 0.965    C    1 0.111
     5  C   3.991        C    4 1.448    C    6 1.436    H   28 0.970    C    2 0.110
     6  C   3.990        C    1 1.437    C    5 1.436    H    9 0.971    C    3 0.111
     7  H   0.998        C    2 0.967
     8  H   0.998        C    4 0.965
     9  H   0.998        C    6 0.971
    10  N   3.661        C   12 0.956    H   15 0.931    C   18 0.837    H   11 0.752
    11  H   0.923        N   10 0.752    O   24 0.151
    12  C   3.936        C   21 1.010    H   13 0.969    H   14 0.968    N   10 0.956
    13  H   0.994        C   12 0.969
    14  H   0.993        C   12 0.968
    15  H   0.957        N   10 0.931
    16  H   0.956        O   24 0.951
    17  H   0.883        O   20 0.497    O   24 0.368
    18  C   3.933        O   20 1.112    C    3 0.971    H   19 0.948    N   10 0.837
    19  H   0.998        C   18 0.948
    20  O   1.844        C   18 1.112    H   17 0.497
    21  C   3.990        C   12 1.010    C   25 1.003    H   23 0.973    H   22 0.971
    22  H   0.997        C   21 0.971
    23  H   0.997        C   21 0.973
    24  O   1.659        H   16 0.951    H   17 0.368    H   11 0.151
    25  C   3.994        C   30 1.020    C   21 1.003    H   26 0.977    H   27 0.977
    26  H   0.998        C   25 0.977
    27  H   0.998        C   25 0.977
    28  H   0.998        C    5 0.970
    29  H   0.997        C    1 0.970
    30  C   3.995        C   25 1.020    H   32 0.987    H   33 0.987    H   31 0.986
    31  H   0.998        C   30 0.986
    32  H   0.998        C   30 0.987
    33  H   0.998        C   30 0.987

molecular dipole:
                 x           y           z       tot (Debye)
 q only:       -3.012       0.559      -1.117
   full:       -3.056       0.304      -1.134       8.322
molecular quadrupole (traceless):
                xx          xy          yy          xz          yz          zz
 q only:       -0.062      14.201       5.167     -39.420       3.766      -5.105
  q+dip:       -2.791      11.014       7.881     -39.909      -0.851      -5.090
   full:       -2.753      12.626       8.394     -39.216       0.043      -5.641

           -------------------------------------------------
          |                Property Printout                |
           -------------------------------------------------

    * Orbital Energies and Occupations

         #    Occupation            Energy/Eh            Energy/eV
      -------------------------------------------------------------
         1        2.0000           -0.6959435             -18.9376
       ...           ...                  ...                  ...
        28        2.0000           -0.4794980             -13.0478
        29        2.0000           -0.4685332             -12.7494
        30        2.0000           -0.4582722             -12.4702
        31        2.0000           -0.4562810             -12.4160
        32        2.0000           -0.4457914             -12.1306
        33        2.0000           -0.4401605             -11.9774
        34        2.0000           -0.4326895             -11.7741
        35        2.0000           -0.4276798             -11.6378
        36        2.0000           -0.4109541             -11.1826
        37        2.0000           -0.4101162             -11.1598
        38        2.0000           -0.3962629             -10.7829
        39        2.0000           -0.3928828             -10.6909
        40        2.0000           -0.3761993             -10.2369 (HOMO)
        41                         -0.2403842              -6.5412 (LUMO)
        42                         -0.2315985              -6.3021
        43                         -0.1194798              -3.2512
        44                         -0.0652125              -1.7745
        45                         -0.0134385              -0.3657
        46                          0.0340615               0.9269
        47                          0.0663293               1.8049
        48                          0.0748652               2.0372
        49                          0.0908429               2.4720
        50                          0.1027128               2.7950
        51                          0.1148946               3.1264
       ...                                ...                  ...
        75                          0.6247780              17.0011
      -------------------------------------------------------------
                  HL-Gap            0.1358151 Eh            3.6957 eV
             Fermi-level           -0.3082917 Eh           -8.3890 eV

     #   Z        covCN         q      C6AA      α(0)
     1   6 C      2.910    -0.029    28.724     8.788
     2   6 C      2.914    -0.041    29.031     8.835
     3   6 C      2.964    -0.026    28.638     8.778
     4   6 C      2.913    -0.028    28.697     8.784
     5   6 C      2.910    -0.028    28.708     8.786
     6   6 C      2.913    -0.029    28.718     8.788
     7   1 H      0.925     0.041     2.436     2.441
     8   1 H      0.925     0.049     2.327     2.386
     9   1 H      0.925     0.044     2.391     2.418
    10   7 N      3.514    -0.127    23.742     7.237
    11   1 H      0.855     0.276     0.788     1.391
    12   6 C      3.734    -0.014    20.921     6.528
    13   1 H      0.924     0.075     2.029     2.227
    14   1 H      0.925     0.084     1.936     2.176
    15   1 H      0.860     0.208     1.067     1.618
    16   1 H      0.805     0.210     1.067     1.623
    17   1 H      1.025     0.342     0.594     1.203
    18   6 C      3.654     0.181    17.978     6.088
    19   1 H      0.924     0.040     2.444     2.445
    20   8 O      1.518    -0.584    24.889     6.729
    21   6 C      3.801    -0.069    21.828     6.652
    22   1 H      0.924     0.053     2.284     2.363
    23   1 H      0.924     0.054     2.273     2.358
    24   8 O      1.169    -0.811    31.641     7.553
    25   6 C      3.800    -0.056    21.572     6.613
    26   1 H      0.924     0.040     2.443     2.444
    27   1 H      0.924     0.042     2.427     2.436
    28   1 H      0.925     0.040     2.450     2.448
    29   1 H      0.925     0.046     2.367     2.406
    30   6 C      3.749    -0.106    22.587     6.778
    31   1 H      0.924     0.041     2.442     2.444
    32   1 H      0.924     0.039     2.461     2.453
    33   1 H      0.924     0.040     2.443     2.444

 Mol. C6AA /au·bohr⁶  :       9407.383121
 Mol. C8AA /au·bohr⁸  :     210107.865461
 Mol. α(0) /au        :        148.661129


Wiberg/Mayer (AO) data.
largest (>0.10) Wiberg bond orders for each atom
          total WBO             WBO to atom ...
     1  C   3.990        C    2 1.446    C    6 1.437    H   29 0.970    C    4 0.111
     2  C   3.990        C    1 1.446    C    3 1.412    H    7 0.967    C    5 0.110
     3  C   3.985        C    2 1.412    C    4 1.411    C   18 0.971    C    6 0.111
     4  C   3.990        C    5 1.448    C    3 1.411    H    8 0.965    C    1 0.111
     5  C   3.991        C    4 1.448    C    6 1.436    H   28 0.970    C    2 0.110
     6  C   3.990        C    1 1.437    C    5 1.436    H    9 0.971    C    3 0.111
     7  H   0.998        C    2 0.967
     8  H   0.998        C    4 0.965
     9  H   0.998        C    6 0.971
    10  N   3.661        C   12 0.956    H   15 0.931    C   18 0.837    H   11 0.752
    11  H   0.923        N   10 0.752    O   24 0.151
    12  C   3.936        C   21 1.010    H   13 0.969    H   14 0.968    N   10 0.956
    13  H   0.994        C   12 0.969
    14  H   0.993        C   12 0.968
    15  H   0.957        N   10 0.931
    16  H   0.956        O   24 0.951
    17  H   0.883        O   20 0.497    O   24 0.368
    18  C   3.933        O   20 1.112    C    3 0.971    H   19 0.948    N   10 0.837
    19  H   0.998        C   18 0.948
    20  O   1.844        C   18 1.112    H   17 0.497
    21  C   3.990        C   12 1.010    C   25 1.003    H   23 0.973    H   22 0.971
    22  H   0.997        C   21 0.971
    23  H   0.997        C   21 0.973
    24  O   1.659        H   16 0.951    H   17 0.368    H   11 0.151
    25  C   3.994        C   30 1.020    C   21 1.003    H   26 0.977    H   27 0.977
    26  H   0.998        C   25 0.977
    27  H   0.998        C   25 0.977
    28  H   0.998        C    5 0.970
    29  H   0.997        C    1 0.970
    30  C   3.995        C   25 1.020    H   32 0.987    H   33 0.987    H   31 0.986
    31  H   0.998        C   30 0.986
    32  H   0.998        C   30 0.987
    33  H   0.998        C   30 0.987

molecular dipole:
                 x           y           z       tot (Debye)
 q only:       -3.012       0.559      -1.117
   full:       -3.056       0.304      -1.134       8.322
molecular quadrupole (traceless):
                xx          xy          yy          xz          yz          zz
 q only:       -0.062      14.201       5.167     -39.420       3.766      -5.105
  q+dip:       -2.791      11.014       7.881     -39.909      -0.851      -5.090
   full:       -2.753      12.626       8.394     -39.216       0.043      -5.641


           -------------------------------------------------
          | TOTAL ENERGY              -44.263169656578 Eh   |
          | GRADIENT NORM               0.038695870802 Eh/α |
          | HOMO-LUMO GAP               3.695715808938 eV   |
           -------------------------------------------------

------------------------------------------------------------------------
 * finished run on 2020/10/11 at 15:11:05.041     
------------------------------------------------------------------------
 total:
 * wall-time:     0 d,  0 h,  0 min,  0.243 sec
 *  cpu-time:     0 d,  0 h,  0 min,  1.079 sec
 * ratio c/w:     4.444 speedup
 SCF:
 * wall-time:     0 d,  0 h,  0 min,  0.074 sec
 *  cpu-time:     0 d,  0 h,  0 min,  0.350 sec
 * ratio c/w:     4.732 speedup


-------------------------   --------------------
FINAL SINGLE POINT ENERGY       -44.263169656580
-------------------------   --------------------


----------------------------------------------------------------------------
                           ORCA NUMERICAL FREQUENCIES
                              (8-process run)
----------------------------------------------------------------------------

Number of atoms                ... 33
Central differences            ... used
Number of displacements        ... 198
Numerical increment            ... 5.000e-03 bohr
IR-spectrum generation         ... on
Raman-spectrum generation      ... off
Surface Crossing Hessian       ... off
List of participating nodes    ...  /tmp/slurm-scratch/freq.251/freq.hostnames

The output will be reduced. Please look at the following files:
SCF program output             ... >/tmp/slurm-scratch/freq.251/freq.lastscf
Integral program output        ... >/tmp/slurm-scratch/freq.251/freq.lastint
Gradient program output        ... >/tmp/slurm-scratch/freq.251/freq.lastgrad
Dipole moment program output   ... >/tmp/slurm-scratch/freq.251/freq.lastmom
AutoCI program output          ... >/tmp/slurm-scratch/freq.251/freq.lastautoci


         <<< Energy and Gradient at the input geometry >>>

        <<< Energy and Gradient at displaced geometries >>>
             <<<Displacing   1/coordinate 3 (+)>>>
             <<<Displacing   2/coordinate 1 (+)>>>
             <<<Displacing   1/coordinate 3 (-)>>>
             <<<Displacing   2/coordinate 1 (-)>>>
             <<<Displacing   1/coordinate 2 (+)>>>
             <<<Displacing   2/coordinate 3 (+)>>>
             <<<Displacing   1/coordinate 2 (-)>>>
             <<<Displacing   2/coordinate 2 (+)>>>
             <<<Displacing   2/coordinate 3 (-)>>>
             <<<Displacing   2/coordinate 2 (-)>>>
             <<<Displacing   1/coordinate 1 (+)>>>
             <<<Displacing   3/coordinate 2 (+)>>>
             <<<Displacing   1/coordinate 1 (-)>>>
             <<<Displacing   3/coordinate 2 (-)>>>
             <<<Displacing   3/coordinate 3 (+)>>>
             <<<Displacing   4/coordinate 1 (+)>>>
             <<<Displacing   3/coordinate 3 (-)>>>
             <<<Displacing   3/coordinate 1 (+)>>>
             <<<Displacing   4/coordinate 1 (-)>>>
             <<<Displacing   3/coordinate 1 (-)>>>
             <<<Displacing   4/coordinate 2 (+)>>>
             <<<Displacing   4/coordinate 3 (+)>>>
             <<<Displacing   5/coordinate 2 (+)>>>
             <<<Displacing   4/coordinate 2 (-)>>>
             <<<Displacing   4/coordinate 3 (-)>>>
             <<<Displacing   5/coordinate 2 (-)>>>
             <<<Displacing   5/coordinate 1 (+)>>>
             <<<Displacing   5/coordinate 1 (-)>>>
             <<<Displacing   5/coordinate 3 (+)>>>
             <<<Displacing   6/coordinate 1 (+)>>>
             <<<Displacing   5/coordinate 3 (-)>>>
             <<<Displacing   6/coordinate 1 (-)>>>
             <<<Displacing   6/coordinate 2 (+)>>>
             <<<Displacing   6/coordinate 2 (-)>>>
             <<<Displacing   7/coordinate 2 (+)>>>
             <<<Displacing   7/coordinate 2 (-)>>>
             <<<Displacing   7/coordinate 3 (+)>>>
             <<<Displacing   7/coordinate 3 (-)>>>
             <<<Displacing   6/coordinate 3 (+)>>>
             <<<Displacing   6/coordinate 3 (-)>>>
             <<<Displacing   7/coordinate 1 (+)>>>
             <<<Displacing   7/coordinate 1 (-)>>>
             <<<Displacing   8/coordinate 1 (+)>>>
             <<<Displacing   8/coordinate 3 (+)>>>
             <<<Displacing   8/coordinate 2 (+)>>>
             <<<Displacing   8/coordinate 1 (-)>>>
             <<<Displacing   8/coordinate 3 (-)>>>
             <<<Displacing   8/coordinate 2 (-)>>>
             <<<Displacing   9/coordinate 3 (+)>>>
             <<<Displacing   9/coordinate 3 (-)>>>
             <<<Displacing   9/coordinate 2 (+)>>>
             <<<Displacing   9/coordinate 2 (-)>>>
             <<<Displacing   9/coordinate 1 (+)>>>
             <<<Displacing  10/coordinate 1 (+)>>>
             <<<Displacing  10/coordinate 2 (+)>>>
             <<<Displacing   9/coordinate 1 (-)>>>
             <<<Displacing  10/coordinate 1 (-)>>>
             <<<Displacing  10/coordinate 2 (-)>>>
             <<<Displacing  11/coordinate 1 (+)>>>
             <<<Displacing  11/coordinate 2 (+)>>>
             <<<Displacing  11/coordinate 1 (-)>>>
             <<<Displacing  11/coordinate 2 (-)>>>
             <<<Displacing  10/coordinate 3 (+)>>>
             <<<Displacing  11/coordinate 3 (+)>>>
             <<<Displacing  10/coordinate 3 (-)>>>
             <<<Displacing  11/coordinate 3 (-)>>>
             <<<Displacing  12/coordinate 1 (+)>>>
             <<<Displacing  13/coordinate 1 (+)>>>
             <<<Displacing  12/coordinate 1 (-)>>>
             <<<Displacing  13/coordinate 1 (-)>>>
             <<<Displacing  12/coordinate 2 (+)>>>
             <<<Displacing  12/coordinate 2 (-)>>>
             <<<Displacing  12/coordinate 3 (+)>>>
             <<<Displacing  13/coordinate 3 (+)>>>
             <<<Displacing  12/coordinate 3 (-)>>>
             <<<Displacing  13/coordinate 2 (+)>>>
             <<<Displacing  13/coordinate 3 (-)>>>
             <<<Displacing  13/coordinate 2 (-)>>>
             <<<Displacing  14/coordinate 2 (+)>>>
             <<<Displacing  14/coordinate 1 (+)>>>
             <<<Displacing  14/coordinate 2 (-)>>>
             <<<Displacing  14/coordinate 1 (-)>>>
             <<<Displacing  14/coordinate 3 (+)>>>
             <<<Displacing  15/coordinate 2 (+)>>>
             <<<Displacing  14/coordinate 3 (-)>>>
             <<<Displacing  15/coordinate 1 (+)>>>
             <<<Displacing  15/coordinate 2 (-)>>>
             <<<Displacing  15/coordinate 1 (-)>>>
             <<<Displacing  16/coordinate 1 (+)>>>
             <<<Displacing  17/coordinate 1 (+)>>>
             <<<Displacing  16/coordinate 1 (-)>>>
             <<<Displacing  17/coordinate 1 (-)>>>
             <<<Displacing  16/coordinate 2 (+)>>>
             <<<Displacing  16/coordinate 3 (+)>>>
             <<<Displacing  16/coordinate 2 (-)>>>
             <<<Displacing  16/coordinate 3 (-)>>>
             <<<Displacing  15/coordinate 3 (+)>>>
             <<<Displacing  15/coordinate 3 (-)>>>
             <<<Displacing  17/coordinate 2 (+)>>>
             <<<Displacing  18/coordinate 2 (+)>>>
             <<<Displacing  17/coordinate 2 (-)>>>
             <<<Displacing  18/coordinate 2 (-)>>>
             <<<Displacing  17/coordinate 3 (+)>>>
             <<<Displacing  17/coordinate 3 (-)>>>
             <<<Displacing  18/coordinate 1 (+)>>>
             <<<Displacing  19/coordinate 1 (+)>>>
             <<<Displacing  18/coordinate 1 (-)>>>
             <<<Displacing  19/coordinate 1 (-)>>>
             <<<Displacing  18/coordinate 3 (+)>>>
             <<<Displacing  18/coordinate 3 (-)>>>
             <<<Displacing  20/coordinate 1 (+)>>>
             <<<Displacing  19/coordinate 3 (+)>>>
             <<<Displacing  20/coordinate 1 (-)>>>
             <<<Displacing  20/coordinate 3 (+)>>>
             <<<Displacing  19/coordinate 3 (-)>>>
             <<<Displacing  20/coordinate 3 (-)>>>
             <<<Displacing  19/coordinate 2 (+)>>>
             <<<Displacing  20/coordinate 2 (+)>>>
             <<<Displacing  19/coordinate 2 (-)>>>
             <<<Displacing  20/coordinate 2 (-)>>>
             <<<Displacing  22/coordinate 2 (+)>>>
             <<<Displacing  21/coordinate 2 (+)>>>
             <<<Displacing  22/coordinate 2 (-)>>>
             <<<Displacing  21/coordinate 2 (-)>>>
             <<<Displacing  22/coordinate 1 (+)>>>
             <<<Displacing  22/coordinate 1 (-)>>>
             <<<Displacing  21/coordinate 3 (+)>>>
             <<<Displacing  21/coordinate 3 (-)>>>
             <<<Displacing  21/coordinate 1 (+)>>>
             <<<Displacing  21/coordinate 1 (-)>>>
             <<<Displacing  22/coordinate 3 (+)>>>
             <<<Displacing  22/coordinate 3 (-)>>>
             <<<Displacing  23/coordinate 1 (+)>>>
             <<<Displacing  23/coordinate 1 (-)>>>
             <<<Displacing  23/coordinate 3 (+)>>>
             <<<Displacing  23/coordinate 2 (+)>>>
             <<<Displacing  23/coordinate 3 (-)>>>
             <<<Displacing  23/coordinate 2 (-)>>>
             <<<Displacing  24/coordinate 2 (+)>>>
             <<<Displacing  24/coordinate 2 (-)>>>
             <<<Displacing  24/coordinate 1 (+)>>>
             <<<Displacing  24/coordinate 3 (+)>>>
             <<<Displacing  24/coordinate 1 (-)>>>
             <<<Displacing  24/coordinate 3 (-)>>>
             <<<Displacing  25/coordinate 1 (+)>>>
             <<<Displacing  25/coordinate 1 (-)>>>
             <<<Displacing  25/coordinate 2 (+)>>>
             <<<Displacing  25/coordinate 2 (-)>>>
             <<<Displacing  25/coordinate 3 (+)>>>
             <<<Displacing  25/coordinate 3 (-)>>>
             <<<Displacing  26/coordinate 1 (+)>>>
             <<<Displacing  26/coordinate 1 (-)>>>
             <<<Displacing  28/coordinate 1 (+)>>>
             <<<Displacing  26/coordinate 3 (+)>>>
             <<<Displacing  28/coordinate 1 (-)>>>
             <<<Displacing  26/coordinate 3 (-)>>>
             <<<Displacing  26/coordinate 2 (+)>>>
             <<<Displacing  27/coordinate 1 (+)>>>
             <<<Displacing  26/coordinate 2 (-)>>>
             <<<Displacing  27/coordinate 3 (+)>>>
             <<<Displacing  27/coordinate 1 (-)>>>
             <<<Displacing  27/coordinate 2 (+)>>>
             <<<Displacing  27/coordinate 3 (-)>>>
             <<<Displacing  27/coordinate 2 (-)>>>
             <<<Displacing  28/coordinate 2 (+)>>>
             <<<Displacing  28/coordinate 2 (-)>>>
             <<<Displacing  28/coordinate 3 (+)>>>
             <<<Displacing  28/coordinate 3 (-)>>>
             <<<Displacing  29/coordinate 1 (+)>>>
             <<<Displacing  30/coordinate 3 (+)>>>
             <<<Displacing  29/coordinate 1 (-)>>>
             <<<Displacing  30/coordinate 3 (-)>>>
             <<<Displacing  30/coordinate 2 (+)>>>
             <<<Displacing  30/coordinate 2 (-)>>>
             <<<Displacing  29/coordinate 2 (+)>>>
             <<<Displacing  29/coordinate 2 (-)>>>
             <<<Displacing  29/coordinate 3 (+)>>>
             <<<Displacing  31/coordinate 1 (+)>>>
             <<<Displacing  30/coordinate 1 (+)>>>
             <<<Displacing  31/coordinate 1 (-)>>>
             <<<Displacing  29/coordinate 3 (-)>>>
             <<<Displacing  30/coordinate 1 (-)>>>
             <<<Displacing  31/coordinate 3 (+)>>>
             <<<Displacing  31/coordinate 3 (-)>>>
             <<<Displacing  31/coordinate 2 (+)>>>
             <<<Displacing  31/coordinate 2 (-)>>>
             <<<Displacing  32/coordinate 1 (+)>>>
             <<<Displacing  32/coordinate 1 (-)>>>
             <<<Displacing  32/coordinate 2 (+)>>>
             <<<Displacing  32/coordinate 2 (-)>>>
             <<<Displacing  33/coordinate 2 (+)>>>
             <<<Displacing  33/coordinate 2 (-)>>>
             <<<Displacing  33/coordinate 1 (+)>>>
             <<<Displacing  33/coordinate 1 (-)>>>
             <<<Displacing  32/coordinate 3 (+)>>>
             <<<Displacing  33/coordinate 3 (+)>>>
             <<<Displacing  32/coordinate 3 (-)>>>
             <<<Displacing  33/coordinate 3 (-)>>>

-----------------------
VIBRATIONAL FREQUENCIES
-----------------------

Scaling factor for frequencies =  1.000000000 (already applied!)

   0:         0.00 cm**-1
   1:         0.00 cm**-1
   2:         0.00 cm**-1
   3:         0.00 cm**-1
   4:         0.00 cm**-1
   5:         0.00 cm**-1
   6:      -660.48 cm**-1 ***imaginary mode***
   7:        54.53 cm**-1
   8:        64.95 cm**-1
   9:        88.24 cm**-1
  10:        98.04 cm**-1
  11:        98.79 cm**-1
  12:       121.56 cm**-1
  13:       136.06 cm**-1
  14:       179.41 cm**-1
  15:       213.72 cm**-1
  16:       235.75 cm**-1
  17:       261.02 cm**-1
  18:       282.34 cm**-1
  19:       346.07 cm**-1
  20:       382.05 cm**-1
  21:       392.09 cm**-1
  22:       403.04 cm**-1
  23:       472.29 cm**-1
  24:       513.55 cm**-1
  25:       528.76 cm**-1
  26:       588.67 cm**-1
  27:       606.77 cm**-1
  28:       621.50 cm**-1
  29:       627.75 cm**-1
  30:       678.31 cm**-1
  31:       694.03 cm**-1
  32:       761.77 cm**-1
  33:       778.42 cm**-1
  34:       794.19 cm**-1
  35:       825.01 cm**-1
  36:       845.69 cm**-1
  37:       904.92 cm**-1
  38:       918.16 cm**-1
  39:       922.69 cm**-1
  40:       946.59 cm**-1
  41:       953.61 cm**-1
  42:       954.63 cm**-1
  43:       956.96 cm**-1
  44:       975.27 cm**-1
  45:      1021.15 cm**-1
  46:      1060.19 cm**-1
  47:      1061.89 cm**-1
  48:      1083.89 cm**-1
  49:      1107.14 cm**-1
  50:      1115.23 cm**-1
  51:      1130.78 cm**-1
  52:      1144.78 cm**-1
  53:      1182.47 cm**-1
  54:      1188.22 cm**-1
  55:      1194.47 cm**-1
  56:      1205.39 cm**-1
  57:      1213.84 cm**-1
  58:      1234.67 cm**-1
  59:      1247.32 cm**-1
  60:      1260.16 cm**-1
  61:      1272.16 cm**-1
  62:      1277.58 cm**-1
  63:      1283.72 cm**-1
  64:      1286.87 cm**-1
  65:      1316.71 cm**-1
  66:      1334.38 cm**-1
  67:      1339.76 cm**-1
  68:      1371.46 cm**-1
  69:      1390.48 cm**-1
  70:      1422.20 cm**-1
  71:      1429.42 cm**-1
  72:      1449.90 cm**-1
  73:      1463.09 cm**-1
  74:      1493.75 cm**-1
  75:      1502.89 cm**-1
  76:      1505.98 cm**-1
  77:      1509.52 cm**-1
  78:      1538.08 cm**-1
  79:      1543.79 cm**-1
  80:      1564.74 cm**-1
  81:      2249.79 cm**-1
  82:      2913.39 cm**-1
  83:      2936.19 cm**-1
  84:      2946.12 cm**-1
  85:      2961.10 cm**-1
  86:      2969.08 cm**-1
  87:      2970.66 cm**-1
  88:      2979.11 cm**-1
  89:      2980.62 cm**-1
  90:      2997.26 cm**-1
  91:      2999.00 cm**-1
  92:      2999.75 cm**-1
  93:      3005.61 cm**-1
  94:      3023.47 cm**-1
  95:      3030.35 cm**-1
  96:      3062.12 cm**-1
  97:      3342.83 cm**-1
  98:      3612.50 cm**-1


------------
NORMAL MODES
------------

These modes are the cartesian displacements weighted by the diagonal matrix
M(i,i)=1/sqrt(m[i]) where m[i] is the mass of the displaced atom
Thus, these vectors are normalized but *not* orthogonal

                  0          1          2          3          4          5    
      0       0.000000   0.000000   0.000000   0.000000   0.000000   0.000000
      1       0.000000   0.000000   0.000000   0.000000   0.000000   0.000000
      2       0.000000   0.000000   0.000000   0.000000   0.000000   0.000000
      3       0.000000   0.000000   0.000000   0.000000   0.000000   0.000000
      4       0.000000   0.000000   0.000000   0.000000   0.000000   0.000000
      5       0.000000   0.000000   0.000000   0.000000   0.000000   0.000000
      6       0.000000   0.000000   0.000000   0.000000   0.000000   0.000000
      7       0.000000   0.000000   0.000000   0.000000   0.000000   0.000000
      8       0.000000   0.000000   0.000000   0.000000   0.000000   0.000000
      9       0.000000   0.000000   0.000000   0.000000   0.000000   0.000000
     10       0.000000   0.000000   0.000000   0.000000   0.000000   0.000000
     11       0.000000   0.000000   0.000000   0.000000   0.000000   0.000000
     12       0.000000   0.000000   0.000000   0.000000   0.000000   0.000000
     13       0.000000   0.000000   0.000000   0.000000   0.000000   0.000000
     14       0.000000   0.000000   0.000000   0.000000   0.000000   0.000000
     15       0.000000   0.000000   0.000000   0.000000   0.000000   0.000000
     16       0.000000   0.000000   0.000000   0.000000   0.000000   0.000000
     17       0.000000   0.000000   0.000000   0.000000   0.000000   0.000000
     18       0.000000   0.000000   0.000000   0.000000   0.000000   0.000000
     19       0.000000   0.000000   0.000000   0.000000   0.000000   0.000000
     20       0.000000   0.000000   0.000000   0.000000   0.000000   0.000000
     21       0.000000   0.000000   0.000000   0.000000   0.000000   0.000000
     22       0.000000   0.000000   0.000000   0.000000   0.000000   0.000000
     23       0.000000   0.000000   0.000000   0.000000   0.000000   0.000000
     24       0.000000   0.000000   0.000000   0.000000   0.000000   0.000000
     25       0.000000   0.000000   0.000000   0.000000   0.000000   0.000000
     26       0.000000   0.000000   0.000000   0.000000   0.000000   0.000000
     27       0.000000   0.000000   0.000000   0.000000   0.000000   0.000000
     28       0.000000   0.000000   0.000000   0.000000   0.000000   0.000000
     29       0.000000   0.000000   0.000000   0.000000   0.000000   0.000000
     30       0.000000   0.000000   0.000000   0.000000   0.000000   0.000000
     31       0.000000   0.000000   0.000000   0.000000   0.000000   0.000000
     32       0.000000   0.000000   0.000000   0.000000   0.000000   0.000000
     33       0.000000   0.000000   0.000000   0.000000   0.000000   0.000000
     34       0.000000   0.000000   0.000000   0.000000   0.000000   0.000000
     35       0.000000   0.000000   0.000000   0.000000   0.000000   0.000000
     36       0.000000   0.000000   0.000000   0.000000   0.000000   0.000000
     37       0.000000   0.000000   0.000000   0.000000   0.000000   0.000000
     38       0.000000   0.000000   0.000000   0.000000   0.000000   0.000000
     39       0.000000   0.000000   0.000000   0.000000   0.000000   0.000000
     40       0.000000   0.000000   0.000000   0.000000   0.000000   0.000000
     41       0.000000   0.000000   0.000000   0.000000   0.000000   0.000000
     42       0.000000   0.000000   0.000000   0.000000   0.000000   0.000000
     43       0.000000   0.000000   0.000000   0.000000   0.000000   0.000000
     44       0.000000   0.000000   0.000000   0.000000   0.000000   0.000000
     45       0.000000   0.000000   0.000000   0.000000   0.000000   0.000000
     46       0.000000   0.000000   0.000000   0.000000   0.000000   0.000000
     47       0.000000   0.000000   0.000000   0.000000   0.000000   0.000000
     48       0.000000   0.000000   0.000000   0.000000   0.000000   0.000000
     49       0.000000   0.000000   0.000000   0.000000   0.000000   0.000000
     50       0.000000   0.000000   0.000000   0.000000   0.000000   0.000000
     51       0.000000   0.000000   0.000000   0.000000   0.000000   0.000000
     52       0.000000   0.000000   0.000000   0.000000   0.000000   0.000000
     53       0.000000   0.000000   0.000000   0.000000   0.000000   0.000000
     54       0.000000   0.000000   0.000000   0.000000   0.000000   0.000000
     55       0.000000   0.000000   0.000000   0.000000   0.000000   0.000000
     56       0.000000   0.000000   0.000000   0.000000   0.000000   0.000000
     57       0.000000   0.000000   0.000000   0.000000   0.000000   0.000000
     58       0.000000   0.000000   0.000000   0.000000   0.000000   0.000000
     59       0.000000   0.000000   0.000000   0.000000   0.000000   0.000000
     60       0.000000   0.000000   0.000000   0.000000   0.000000   0.000000
     61       0.000000   0.000000   0.000000   0.000000   0.000000   0.000000
     62       0.000000   0.000000   0.000000   0.000000   0.000000   0.000000
     63       0.000000   0.000000   0.000000   0.000000   0.000000   0.000000
     64       0.000000   0.000000   0.000000   0.000000   0.000000   0.000000
     65       0.000000   0.000000   0.000000   0.000000   0.000000   0.000000
     66       0.000000   0.000000   0.000000   0.000000   0.000000   0.000000
     67       0.000000   0.000000   0.000000   0.000000   0.000000   0.000000
     68       0.000000   0.000000   0.000000   0.000000   0.000000   0.000000
     69       0.000000   0.000000   0.000000   0.000000   0.000000   0.000000
     70       0.000000   0.000000   0.000000   0.000000   0.000000   0.000000
     71       0.000000   0.000000   0.000000   0.000000   0.000000   0.000000
     72       0.000000   0.000000   0.000000   0.000000   0.000000   0.000000
     73       0.000000   0.000000   0.000000   0.000000   0.000000   0.000000
     74       0.000000   0.000000   0.000000   0.000000   0.000000   0.000000
     75       0.000000   0.000000   0.000000   0.000000   0.000000   0.000000
     76       0.000000   0.000000   0.000000   0.000000   0.000000   0.000000
     77       0.000000   0.000000   0.000000   0.000000   0.000000   0.000000
     78       0.000000   0.000000   0.000000   0.000000   0.000000   0.000000
     79       0.000000   0.000000   0.000000   0.000000   0.000000   0.000000
     80       0.000000   0.000000   0.000000   0.000000   0.000000   0.000000
     81       0.000000   0.000000   0.000000   0.000000   0.000000   0.000000
     82       0.000000   0.000000   0.000000   0.000000   0.000000   0.000000
     83       0.000000   0.000000   0.000000   0.000000   0.000000   0.000000
     84       0.000000   0.000000   0.000000   0.000000   0.000000   0.000000
     85       0.000000   0.000000   0.000000   0.000000   0.000000   0.000000
     86       0.000000   0.000000   0.000000   0.000000   0.000000   0.000000
     87       0.000000   0.000000   0.000000   0.000000   0.000000   0.000000
     88       0.000000   0.000000   0.000000   0.000000   0.000000   0.000000
     89       0.000000   0.000000   0.000000   0.000000   0.000000   0.000000
     90       0.000000   0.000000   0.000000   0.000000   0.000000   0.000000
     91       0.000000   0.000000   0.000000   0.000000   0.000000   0.000000
     92       0.000000   0.000000   0.000000   0.000000   0.000000   0.000000
     93       0.000000   0.000000   0.000000   0.000000   0.000000   0.000000
     94       0.000000   0.000000   0.000000   0.000000   0.000000   0.000000
     95       0.000000   0.000000   0.000000   0.000000   0.000000   0.000000
     96       0.000000   0.000000   0.000000   0.000000   0.000000   0.000000
     97       0.000000   0.000000   0.000000   0.000000   0.000000   0.000000
     98       0.000000   0.000000   0.000000   0.000000   0.000000   0.000000
                  6          7          8          9         10         11    
      0       0.000122  -0.169633  -0.023715   0.064570   0.050165  -0.077225
      1       0.000357   0.010512  -0.041455   0.144080   0.057250  -0.091735
      2      -0.000537   0.070737  -0.016112  -0.002509   0.032522  -0.054969
      3      -0.001088  -0.090771   0.018505   0.027781   0.057024  -0.068392
      4       0.002089  -0.013472  -0.017507   0.054610   0.087008  -0.092447
      5      -0.001323   0.099476   0.009256  -0.042553   0.043937  -0.051573
      6      -0.001879  -0.020733   0.057800  -0.016150  -0.007786   0.008396
      7       0.000865  -0.008589   0.013114  -0.029808   0.011142   0.003694
      8      -0.001511   0.051500   0.014914  -0.105988   0.005067   0.001595
      9      -0.000947  -0.034645   0.052273  -0.025285  -0.078432   0.074733
     10      -0.002111   0.019028   0.018847  -0.028895  -0.094471   0.100275
     11       0.003217  -0.023247  -0.006557  -0.133960  -0.043563   0.051977
     12      -0.000520  -0.114815   0.009074   0.014716  -0.084336   0.063800
     13       0.000156   0.042299  -0.006960   0.063897  -0.121113   0.096924
     14       0.002129  -0.051593  -0.032540  -0.091780  -0.053213   0.045951
     15       0.000306  -0.181911  -0.027997   0.061025  -0.020698  -0.012135
     16      -0.000373   0.038244  -0.035843   0.153099  -0.045828   0.000270
     17       0.001029  -0.004025  -0.036872  -0.024977  -0.015538  -0.007277
     18      -0.002088  -0.081953   0.022225   0.035345   0.107771  -0.117591
     19      -0.000764  -0.036364  -0.021086   0.054680   0.159067  -0.161387
     20      -0.005124   0.155984   0.025008  -0.022159   0.078171  -0.086058
     21      -0.009452   0.015415   0.081503  -0.050538  -0.127277   0.130424
     22      -0.020393   0.025028   0.042996  -0.076628  -0.152602   0.172682
     23      -0.010056  -0.053960  -0.001270  -0.167425  -0.073509   0.093737
     24       0.000411  -0.242929  -0.060526   0.095698  -0.026810  -0.019922
     25      -0.003417   0.056500  -0.053814   0.230312  -0.068858  -0.002295
     26       0.000864  -0.026347  -0.056337   0.011667  -0.024571  -0.011450
     27       0.069777   0.080590  -0.008658   0.012740   0.019980   0.008001
     28      -0.000773  -0.068510   0.117819  -0.056896   0.004537  -0.007921
     29       0.043796   0.084826   0.063863   0.009173   0.001558  -0.042061
     30       0.365603   0.072168  -0.072940  -0.032743   0.039129  -0.001498
     31      -0.063685  -0.070795   0.049831  -0.081777   0.025538  -0.016336
     32       0.288596   0.123794  -0.010200   0.144293   0.023932  -0.015220
     33       0.014103   0.021780   0.023037   0.013217  -0.005180  -0.021582
     34       0.005361  -0.028998   0.157417   0.028532  -0.028490  -0.040250
     35      -0.004135   0.024675   0.107089   0.029093  -0.034218  -0.082746
     36       0.028275  -0.006611   0.021985   0.015853  -0.078067  -0.121064
     37       0.002541  -0.021319   0.156762   0.026541  -0.007839  -0.012116
     38      -0.035174   0.022515   0.150395   0.110828  -0.167917  -0.247339
     39      -0.023601  -0.036200   0.049184   0.025208  -0.004702  -0.011550
     40      -0.018282  -0.024199   0.187210   0.098427  -0.173893  -0.227190
     41       0.016894   0.048603   0.088220   0.007950  -0.001414  -0.044433
     42       0.135969   0.129111  -0.060207   0.025076   0.047874   0.041940
     43      -0.137763  -0.095044   0.183360  -0.155477  -0.008359   0.006899
     44       0.021404   0.065204   0.084182   0.004403  -0.009693  -0.055187
     45      -0.181026   0.104600  -0.094979  -0.310850   0.063304  -0.098043
     46      -0.098500  -0.049876  -0.077252   0.022305   0.063275  -0.017345
     47      -0.134530   0.105620  -0.095506   0.486515   0.042875   0.062608
     48      -0.036487   0.111003   0.029300  -0.064176   0.017439  -0.033738
     49       0.782591  -0.068188  -0.086729  -0.064978   0.068940  -0.027309
     50       0.186462   0.038690  -0.061037   0.109528   0.034940   0.030469
     51      -0.071449   0.069391   0.106976   0.018315  -0.011639   0.002021
     52      -0.040204  -0.056974   0.035944  -0.045362   0.027091  -0.011454
     53      -0.053051   0.078769   0.045916  -0.092568   0.007201  -0.004455
     54       0.042418   0.067263   0.187118   0.018137  -0.029191  -0.003452
     55       0.001798  -0.081646   0.082516  -0.042951   0.018294  -0.016638
     56       0.035134   0.139373   0.105958  -0.089903  -0.013645  -0.004373
     57       0.021099   0.133982   0.146066   0.081938  -0.018311  -0.008867
     58       0.011781  -0.057048  -0.056547   0.016779   0.058332  -0.017078
     59       0.032674   0.022946  -0.016920  -0.123244   0.022476   0.002236
     60       0.004607   0.068648   0.008354  -0.003671   0.054429   0.056795
     61       0.000396   0.002645   0.135188  -0.006662   0.085096   0.110668
     62      -0.003595  -0.074469   0.102505   0.002528   0.057636   0.047487
     63      -0.003023   0.107586  -0.044469  -0.034103   0.087123   0.121466
     64       0.002928  -0.008840   0.152623   0.001397   0.079718   0.096014
     65      -0.002664  -0.095050   0.236992  -0.019619   0.322083   0.297475
     66       0.005187   0.118237   0.105855  -0.000746   0.133283   0.090121
     67      -0.000590  -0.017623   0.216576  -0.039147   0.322157   0.355557
     68      -0.002972  -0.088709   0.043730   0.009833  -0.031839  -0.026066
     69      -0.063884   0.081794  -0.100064  -0.194470   0.058012  -0.052673
     70      -0.013004  -0.075949  -0.070315  -0.142600   0.063915  -0.034745
     71      -0.048623   0.081233  -0.090834   0.376932   0.042488   0.056631
     72       0.003073  -0.000348  -0.077182   0.013012  -0.044067  -0.003840
     73      -0.000443   0.085615  -0.048714  -0.029884  -0.117034  -0.055820
     74      -0.001813  -0.134139  -0.021147   0.017831  -0.083948  -0.047349
     75       0.002559  -0.045330  -0.206943   0.021179  -0.123007  -0.041965
     76      -0.000862   0.093337  -0.060735  -0.016595  -0.351471  -0.272568
     77      -0.001384  -0.117938   0.033287   0.011510   0.003605   0.019699
     78       0.003790  -0.052794   0.042179   0.042661  -0.079886  -0.049221
     79      -0.000647   0.100773  -0.084528  -0.038258  -0.112027  -0.047497
     80      -0.001303  -0.122660  -0.112861   0.025607  -0.345926  -0.274450
     81      -0.001742  -0.124142   0.005382   0.012825  -0.135519   0.110745
     82      -0.001886   0.063816  -0.003443   0.071312  -0.195764   0.164198
     83       0.003790  -0.109019  -0.047968  -0.108147  -0.087809   0.079495
     84      -0.000002  -0.219020  -0.051242   0.096713   0.096604  -0.131755
     85      -0.001285   0.006906  -0.062108   0.206652   0.109827  -0.159315
     86      -0.000812   0.105401  -0.019087   0.046668   0.058608  -0.092512
     87       0.001568   0.059920  -0.151624  -0.017437   0.009602   0.046597
     88      -0.000405   0.139101  -0.177875  -0.066940  -0.013091   0.052207
     89      -0.000409  -0.228227  -0.098381   0.038189   0.005137   0.070119
     90       0.002464   0.009670  -0.187388  -0.000686  -0.035914   0.024696
     91      -0.001996   0.194643  -0.266609  -0.090849  -0.108822  -0.028029
     92       0.000232  -0.268304  -0.152738   0.050511  -0.060501   0.031691
     93       0.000425   0.110382  -0.262687  -0.048598   0.055643   0.099189
     94      -0.000184   0.126404  -0.149968  -0.059112  -0.024945   0.038746
     95       0.000067  -0.238395  -0.068093   0.035357   0.197800   0.238746
     96       0.000659   0.103132  -0.059582  -0.025642   0.048633   0.052614
     97      -0.000625   0.135850  -0.212409  -0.078240   0.170839   0.224671
     98       0.000064  -0.246611  -0.130930   0.044605  -0.056860   0.025565
                 12         13         14         15         16         17    
      0       0.041415  -0.005880  -0.005762   0.053535  -0.001586  -0.057947
      1       0.034310   0.011048  -0.006201  -0.003009   0.007768  -0.037774
      2      -0.005469   0.014958   0.030331  -0.049925   0.008723   0.070032
      3      -0.052650  -0.003546  -0.007444  -0.048666   0.103166  -0.107814
      4      -0.079528   0.013883  -0.065696   0.069993  -0.038256  -0.204018
      5      -0.077895   0.016430   0.012296  -0.068827   0.041172  -0.006064
      6      -0.080784  -0.009856   0.012685  -0.110143   0.136800  -0.009303
      7      -0.105646   0.003397  -0.071157   0.086277  -0.057910  -0.132609
      8      -0.085663   0.009106  -0.010890  -0.007232  -0.001455  -0.012194
      9      -0.033013  -0.018245   0.017611  -0.107479   0.144917  -0.068127
     10      -0.044098  -0.008572  -0.048254   0.032030   0.006548  -0.197817
     11      -0.042974   0.004728  -0.033045   0.078263  -0.096666  -0.072476
     12       0.063720  -0.020801   0.020907  -0.012844   0.047365  -0.017857
     13       0.072065  -0.010902   0.013484  -0.045522   0.051564  -0.029716
     14       0.030946   0.003066  -0.015849   0.108529  -0.139682  -0.004472
     15       0.108904  -0.015733   0.016947   0.063602  -0.026923   0.055791
     16       0.122892  -0.003180   0.043788  -0.050866   0.037397   0.139347
     17       0.055332   0.007944   0.022321   0.044161  -0.099560   0.133677
     18      -0.092909   0.001701  -0.018036  -0.052823   0.115637  -0.154297
     19      -0.128360   0.020178  -0.094384   0.110265  -0.054998  -0.296364
     20      -0.116956   0.021506   0.023953  -0.139355   0.102376   0.000445
     21      -0.056488  -0.025252   0.025106  -0.165399   0.219602  -0.096630
     22      -0.072790  -0.016697  -0.066482   0.048563   0.005990  -0.264762
     23      -0.058740   0.000871  -0.060008   0.139621  -0.152069  -0.130029
     24       0.193866  -0.018912   0.028801   0.129645  -0.104946   0.171557
     25       0.228869  -0.008227   0.102058  -0.090082   0.050552   0.362624
     26       0.122262   0.005142   0.043565   0.062816  -0.130444   0.246239
     27      -0.055215   0.006358   0.029232   0.008104  -0.018206  -0.003690
     28      -0.112540  -0.032763  -0.045645   0.040793   0.026560   0.129600
     29       0.082087  -0.058499   0.059319   0.055344   0.030798  -0.016585
     30      -0.017729   0.016174   0.032999   0.012507   0.004357  -0.038322
     31      -0.077665  -0.022240  -0.040668   0.041625   0.030226   0.106971
     32       0.074520  -0.039015   0.191046   0.025517   0.025813  -0.136229
     33      -0.000408  -0.008318  -0.137622  -0.077500  -0.081633   0.023252
     34      -0.010854  -0.059346   0.050597  -0.168712  -0.156082  -0.001757
     35       0.167254  -0.084961  -0.100553  -0.064588  -0.033237  -0.048596
     36      -0.066730  -0.130786  -0.212975  -0.088953  -0.062914   0.049959
     37       0.006710  -0.024553   0.070868  -0.162932  -0.158554  -0.008775
     38       0.227769  -0.253227  -0.170566  -0.369264  -0.286073  -0.132478
     39       0.072025   0.023082  -0.245429  -0.166741  -0.122134  -0.007853
     40       0.009786  -0.261855  -0.018400  -0.427789  -0.367528  -0.058734
     41       0.129996  -0.052094  -0.037166   0.032578   0.032020  -0.021737
     42      -0.125005   0.031216   0.181859   0.067444   0.020007  -0.024621
     43      -0.200306  -0.022381  -0.141629   0.084217   0.064018   0.296492
     44       0.108110  -0.068117  -0.002123   0.031733   0.016769  -0.006551
     45       0.240189  -0.024793   0.266448   0.000500  -0.043549  -0.176231
     46       0.016486  -0.007104   0.014249   0.041288   0.039324   0.102032
     47      -0.064199   0.016815   0.025569   0.026769  -0.013585  -0.060765
     48       0.051646  -0.035533   0.129757   0.110716   0.004461  -0.015902
     49       0.041078  -0.000109   0.063384  -0.012876   0.063868  -0.019015
     50      -0.076998   0.027734   0.001512  -0.116770   0.065430   0.009844
     51      -0.069684  -0.032079   0.041663   0.022347   0.066188   0.067010
     52      -0.076877  -0.018689  -0.046031   0.060786   0.008146   0.069020
     53      -0.071328  -0.009220   0.010178   0.044819   0.015790   0.061504
     54      -0.068260  -0.054909   0.056569   0.049915   0.090352   0.107749
     55      -0.065446  -0.034429  -0.037225   0.023909   0.060471   0.125967
     56      -0.102962  -0.023222   0.014682   0.200199  -0.068114   0.007122
     57      -0.030212  -0.064519   0.091345   0.255516  -0.006653   0.056108
     58       0.008171  -0.011214   0.006442   0.049568   0.037861   0.092291
     59      -0.074954   0.021022  -0.007926  -0.159952   0.080349   0.047574
     60       0.046847   0.089002  -0.098710  -0.038181  -0.088793   0.035408
     61       0.059977   0.123129   0.116793  -0.072651  -0.099847  -0.009775
     62       0.171054   0.062971  -0.129241   0.050308   0.116133  -0.043062
     63       0.082656   0.201076  -0.076639   0.053528  -0.015257   0.038833
     64       0.051613   0.091698   0.109262  -0.097040  -0.118155  -0.010356
     65       0.293708   0.157916  -0.119605   0.092917   0.155293  -0.042985
     66       0.126366   0.017272  -0.133375  -0.090296  -0.137202   0.023250
     67       0.167741   0.268097   0.132553   0.016337  -0.017477  -0.009308
     68       0.112107   0.054654  -0.116902   0.048644   0.113764  -0.038640
     69       0.125321   0.003167   0.154977  -0.020156  -0.023082  -0.131921
     70       0.026923  -0.002847   0.017746  -0.019124   0.069070   0.123296
     71      -0.075853   0.024920   0.008946  -0.024073   0.013191  -0.035825
     72      -0.078712   0.112904  -0.028118  -0.043850  -0.132540   0.075898
     73       0.020823   0.133081   0.072204   0.005208  -0.000165  -0.027215
     74       0.029655   0.087883  -0.044759   0.061935   0.102998  -0.022711
     75      -0.200967   0.063740   0.060067  -0.050574  -0.170930   0.096701
     76      -0.034246   0.357393   0.083739   0.060810   0.052413  -0.023567
     77       0.091160   0.053264  -0.081642   0.051023   0.105059  -0.031938
     78      -0.102186   0.273610   0.052796  -0.074630  -0.197354   0.081560
     79       0.025792   0.090246   0.048676   0.015543   0.020131  -0.028478
     80      -0.061292   0.258335  -0.021996   0.125638   0.161603  -0.016806
     81       0.106721  -0.027521   0.030649  -0.008635   0.041359  -0.007940
     82       0.125975  -0.019606   0.040996  -0.088175   0.081720   0.012566
     83       0.072444  -0.003010  -0.028769   0.183467  -0.201768  -0.038311
     84       0.066191  -0.000884  -0.017024   0.119377  -0.067875  -0.069035
     85       0.061972   0.016973   0.005800  -0.010128   0.014530  -0.017220
     86       0.007826   0.018161   0.053629  -0.110917   0.069141   0.103685
     87      -0.023164  -0.024327  -0.159064  -0.010535  -0.060359   0.087771
     88       0.060549  -0.117440  -0.042573   0.027414   0.066141  -0.023755
     89      -0.096967  -0.087425   0.158328  -0.027750  -0.051264  -0.021410
     90      -0.115668  -0.003225  -0.019755  -0.015353  -0.096607   0.104132
     91       0.066824  -0.090414  -0.148737   0.145314   0.236870   0.034363
     92      -0.190150  -0.060560   0.279508  -0.009090  -0.054141   0.006853
     93       0.004510  -0.190478  -0.272676   0.035714   0.028993   0.113454
     94       0.053487  -0.075344  -0.014059   0.015957   0.043833  -0.029954
     95      -0.045161  -0.291277   0.145757  -0.145437  -0.189201  -0.083493
     96       0.083282   0.017725  -0.289649  -0.023769  -0.051296   0.056321
     97       0.090472  -0.374490  -0.061664  -0.061241  -0.031890  -0.062814
     98      -0.151589  -0.043778   0.221160  -0.000291  -0.031468   0.001916
                 18         19         20         21         22         23    
      0      -0.001526   0.026867   0.078725   0.106915   0.029023  -0.010202
      1      -0.002644  -0.019692   0.033418   0.150333   0.016993   0.053783
      2       0.001258  -0.159755  -0.055515   0.092680  -0.004021   0.060397
      3       0.000070  -0.056618   0.031714  -0.116514   0.022949   0.015426
      4      -0.005983  -0.008515   0.008350  -0.154796   0.003434  -0.022563
      5       0.000832  -0.171804  -0.064628  -0.090685  -0.005802   0.031203
      6       0.003063  -0.039275  -0.048503   0.006626  -0.022610  -0.006553
      7      -0.004167   0.121154  -0.005633   0.007202  -0.031291  -0.116107
      8       0.000068   0.007581   0.007868   0.001361  -0.004729  -0.081579
      9       0.002016  -0.144774  -0.008612   0.108735   0.013351   0.075394
     10      -0.004646  -0.009819   0.082873   0.146312   0.030593  -0.041036
     11      -0.003199  -0.097688  -0.032701   0.091784  -0.004486   0.029166
     12       0.000419  -0.039485  -0.007700  -0.118717   0.007042   0.034925
     13      -0.001453  -0.002710   0.022234  -0.162042   0.019987   0.025377
     14      -0.003227  -0.059230  -0.060542  -0.090215  -0.015395   0.029110
     15      -0.000005   0.138260   0.042624   0.003049  -0.002623  -0.085051
     16       0.001248   0.116983   0.006249   0.006903  -0.013473  -0.056689
     17       0.000148  -0.052101  -0.113090   0.011387  -0.045540   0.017648
     18      -0.000322  -0.105599   0.023876  -0.249444   0.030886   0.055961
     19      -0.007781  -0.013742   0.043672  -0.334159   0.024405  -0.012955
     20       0.002371  -0.293234  -0.128145  -0.195294  -0.012720   0.123756
     21       0.003391  -0.208457   0.049874   0.231477   0.044244   0.119353
     22      -0.005441  -0.086553   0.123317   0.318971   0.051476   0.015267
     23      -0.005202  -0.131938  -0.027296   0.197923  -0.002907   0.058692
     24       0.000232   0.276460   0.038728   0.012692  -0.023658  -0.130377
     25       0.005476   0.218579  -0.023122   0.017829  -0.041114  -0.096514
     26       0.001411   0.038970  -0.121658   0.018684  -0.062046  -0.014412
     27       0.000461   0.078840  -0.063211   0.013687  -0.067473  -0.072506
     28       0.002670   0.155796  -0.070064   0.002348   0.004176   0.227904
     29      -0.001696   0.051357   0.189643  -0.019960   0.105559   0.094259
     30       0.002048   0.089062  -0.098703   0.021321  -0.106335   0.009113
     31       0.003352   0.136188  -0.056333   0.001458  -0.012312   0.247135
     32      -0.001392   0.052174   0.052132  -0.003544   0.203489  -0.065145
     33      -0.009033   0.011612  -0.056496   0.012200  -0.171895  -0.036094
     34      -0.016582   0.010321  -0.149841   0.013298   0.093394  -0.062563
     35      -0.013772  -0.026662   0.143162  -0.013489  -0.024544   0.071449
     36      -0.001762   0.076623  -0.128252   0.020650  -0.229215   0.026314
     37      -0.018368  -0.004913  -0.128904   0.010903   0.107208  -0.074921
     38      -0.032453  -0.184597   0.038717   0.000665  -0.051274  -0.195010
     39      -0.018551  -0.057463  -0.162291   0.025080  -0.274158  -0.147234
     40      -0.029146  -0.097710  -0.219651   0.023546   0.065414  -0.234966
     41      -0.006713   0.027749   0.202744  -0.021183   0.027554   0.154948
     42       0.009742   0.128653  -0.140120   0.022902   0.036155  -0.204228
     43       0.009326   0.144789  -0.007175  -0.006248  -0.092688   0.236691
     44      -0.005174   0.028033   0.220849  -0.023619   0.063413   0.139725
     45      -0.005708   0.009849   0.058442  -0.019057   0.252984  -0.355051
     46       0.007693  -0.258428   0.030775  -0.005627  -0.012285  -0.066403
     47       0.000435  -0.028732  -0.056875   0.001317   0.026838   0.019798
     48       0.004753  -0.035325  -0.024262   0.002678   0.010997  -0.054901
     49       0.004107   0.005760  -0.189952   0.016238   0.002252   0.177031
     50       0.000255   0.158533  -0.019674   0.005966  -0.012695  -0.035533
     51       0.005187   0.029275   0.006924   0.000510  -0.024098  -0.096894
     52       0.002403   0.081502   0.004433  -0.000898  -0.012568   0.104245
     53       0.003182   0.110828   0.112456  -0.006905   0.023692  -0.086539
     54       0.006068   0.128739  -0.020232  -0.004807   0.010652   0.108413
     55       0.003158   0.133247   0.002745  -0.008589   0.017621   0.275151
     56       0.003284   0.187944   0.064531   0.000218   0.020770  -0.093099
     57       0.010109  -0.105888  -0.019899  -0.000935  -0.001166  -0.070095
     58       0.006568  -0.158205   0.008807  -0.002588  -0.009483   0.020720
     59      -0.000957   0.219190   0.089150  -0.002477   0.009318  -0.099911
     60      -0.014085  -0.031244   0.129198  -0.010243  -0.115622   0.048006
     61      -0.020499  -0.023281  -0.005110  -0.001925   0.080198  -0.022705
     62      -0.008114   0.021510  -0.095234   0.011403  -0.043760  -0.036571
     63      -0.006198  -0.048717   0.274010  -0.023808  -0.191099   0.116932
     64      -0.024119  -0.017653  -0.048146   0.002313   0.099993  -0.042870
     65      -0.082879   0.012532  -0.102172   0.011269  -0.010901  -0.047118
     66      -0.056249  -0.052360   0.230400  -0.018046  -0.201995   0.097066
     67      -0.075912  -0.029192  -0.010007  -0.002763   0.097217  -0.038270
     68       0.021747   0.031561  -0.133173   0.014498  -0.010922  -0.051737
     69      -0.003502   0.147794  -0.137377   0.014761  -0.005407   0.137039
     70       0.007200  -0.183930   0.062459  -0.006590  -0.005383  -0.159145
     71       0.000437   0.052528  -0.063798   0.005894  -0.011016   0.026563
     72       0.017001  -0.032491   0.099304  -0.014575   0.092773   0.049172
     73       0.042162  -0.008218   0.068553  -0.003109  -0.114246   0.023042
     74       0.037683   0.034641  -0.152277   0.013456   0.085614  -0.065718
     75       0.022024  -0.038337   0.144327  -0.020743   0.135912   0.073308
     76       0.108744   0.008599   0.055699  -0.001645  -0.105248   0.029962
     77       0.018922   0.032357  -0.163800   0.015330   0.062712  -0.075627
     78       0.039453  -0.047269   0.144049  -0.020057   0.124468   0.065940
     79       0.036268  -0.002966   0.052653  -0.001306  -0.120303   0.017511
     80       0.102423   0.052826  -0.143485   0.013400   0.069124  -0.046080
     81       0.000291  -0.058134  -0.010850  -0.248272   0.016138   0.078402
     82      -0.000262  -0.079669  -0.016708  -0.337874   0.024834   0.126548
     83      -0.005336  -0.000548  -0.016031  -0.197034   0.001844   0.005374
     84      -0.003314   0.009962   0.089062   0.232015   0.035533   0.037405
     85      -0.002407  -0.067261   0.071330   0.314788   0.041783   0.124961
     86       0.002957  -0.203956  -0.020793   0.190451   0.019855   0.111126
     87      -0.008060  -0.013682  -0.010934  -0.007993   0.220770   0.015687
     88      -0.006802   0.012697  -0.034595   0.005593  -0.063916  -0.016223
     89      -0.007792  -0.006210   0.054058  -0.002669  -0.071661   0.010388
     90      -0.243397  -0.041693   0.124296  -0.016724   0.065046   0.068147
     91      -0.430335   0.030859  -0.205766   0.017204   0.111216  -0.082301
     92      -0.332848  -0.031374   0.158840  -0.009329  -0.196683   0.050978
     93      -0.159835   0.005375  -0.142628   0.000640   0.358515  -0.033534
     94       0.030563   0.007774  -0.001607   0.003427  -0.097704  -0.004046
     95       0.517275  -0.002635   0.115637  -0.007111  -0.128519   0.036719
     96       0.355084   0.013811  -0.128394  -0.000567   0.362258  -0.031477
     97       0.331576   0.015480   0.001079   0.002681  -0.092364  -0.000650
     98      -0.251466  -0.018986   0.097728  -0.005262  -0.128555   0.027783
                 24         25         26         27         28         29    
      0      -0.036203  -0.076407  -0.057161  -0.096156  -0.064833  -0.020829
      1      -0.013122  -0.093922   0.204998   0.132340   0.018301   0.004203
      2      -0.004588  -0.045389  -0.257052  -0.060749  -0.070037  -0.018572
      3       0.004310   0.042006   0.277636  -0.103252   0.004603  -0.007973
      4       0.000920   0.008996  -0.103786   0.109776   0.074169   0.028440
[...]
     17      -0.072629  -0.000050  -0.000009
     18       0.017816  -0.000571   0.000302
     19      -0.008563   0.000258  -0.000272
     20      -0.007862  -0.000033   0.000043
     21      -0.014781   0.000228   0.002603
     22       0.023630  -0.000526  -0.001833
     23      -0.021403   0.000475   0.001213
     24      -0.392034  -0.000497  -0.000057
     25      -0.238912  -0.000334  -0.000229
     26       0.874568   0.000930   0.000431
     27      -0.000073   0.024798   0.000214
     28       0.000116  -0.000874   0.000010
     29      -0.000126   0.064508   0.000080
     30       0.000862   0.013534  -0.006543
     31      -0.001781  -0.004665  -0.001468
     32       0.000154   0.016876   0.004189
     33      -0.000025   0.000513   0.000033
     34      -0.000081  -0.000027  -0.000103
     35       0.000066   0.002115   0.000076
     36       0.000397   0.000696   0.000769
     37       0.001302   0.001136   0.001014
     38       0.000052   0.000878  -0.000028
     39      -0.000304  -0.005312   0.000044
     40      -0.000233  -0.004336  -0.000480
     41      -0.000564  -0.010875  -0.000881
     42       0.000180  -0.364603  -0.001619
     43      -0.000322   0.011736   0.000023
     44       0.001266  -0.928142  -0.002499
     45       0.000002  -0.000271   0.126085
     46      -0.000207  -0.001281   0.616904
     47       0.000252   0.002356  -0.774251
     48       0.000397   0.001199  -0.001609
     49      -0.001364  -0.001133   0.000323
     50       0.000387   0.000772   0.009694
     51      -0.000095   0.001153  -0.000135
     52       0.000040   0.000454   0.000089
     53       0.000205   0.000997   0.000105
     54       0.000927   0.000478   0.000353
     55      -0.000959  -0.003551  -0.000297
     56      -0.000469  -0.000524  -0.000184
     57      -0.000042  -0.000265   0.000078
     58       0.000065   0.000181  -0.000067
     59      -0.000085  -0.000285  -0.000225
     60       0.000020   0.000022   0.000012
     61       0.000031  -0.000049  -0.000004
     62      -0.000019  -0.000341  -0.000015
     63      -0.000203  -0.000069  -0.000053
     64      -0.000348   0.000806   0.000373
     65       0.000098   0.000408  -0.000001
     66      -0.000035  -0.001952  -0.000208
     67       0.000003   0.000804   0.000001
     68       0.000087   0.000014  -0.000236
     69       0.000004  -0.000376  -0.007619
     70       0.000062   0.000330  -0.038741
     71      -0.000022  -0.000345   0.048231
     72       0.000009   0.000061   0.000002
     73      -0.000008  -0.000069  -0.000013
     74       0.000014   0.000094   0.000018
     75      -0.000093   0.000048  -0.000008
     76      -0.000046  -0.000296  -0.000037
     77      -0.000144  -0.000955  -0.000156
     78       0.000022   0.000332   0.000107
     79       0.000147   0.000814   0.000180
     80       0.000020  -0.000091  -0.000024
     81      -0.073096  -0.001000   0.000083
     82       0.037896   0.000414  -0.000122
     83       0.026290   0.000554   0.000048
     84       0.040847   0.000365   0.000110
     85      -0.062048  -0.000860  -0.000239
     86       0.052217   0.000850   0.000186
     87       0.000004  -0.000022  -0.000005
     88       0.000004   0.000022  -0.000001
     89       0.000011   0.000016  -0.000001
     90       0.000081   0.000822   0.000072
     91       0.000035   0.000013   0.000011
     92      -0.000101  -0.000592  -0.000065
     93      -0.000047  -0.000084  -0.000021
     94      -0.000047  -0.000327   0.000028
     95       0.000024   0.000033  -0.000005
     96      -0.000063  -0.000002  -0.000019
     97      -0.000017   0.000014   0.000001
     98      -0.000056   0.000013  -0.000002


-----------
IR SPECTRUM  
-----------

 Mode    freq (cm**-1)   T**2         TX         TY         TZ
-------------------------------------------------------------------
   7:        54.53    0.000000  (  0.000000   0.000000   0.000000)
   8:        64.95    0.000000  (  0.000000   0.000000   0.000000)
   9:        88.24    0.000000  (  0.000000   0.000000   0.000000)
  10:        98.04    0.000000  (  0.000000   0.000000   0.000000)
  11:        98.79    0.000000  (  0.000000   0.000000   0.000000)
  12:       121.56    0.000000  (  0.000000   0.000000   0.000000)
  13:       136.06    0.000000  (  0.000000   0.000000   0.000000)
  14:       179.41    0.000000  (  0.000000   0.000000   0.000000)
  15:       213.72    0.000000  (  0.000000   0.000000   0.000000)
  16:       235.75    0.000000  (  0.000000   0.000000   0.000000)
  17:       261.02    0.000000  (  0.000000   0.000000   0.000000)
  18:       282.34    0.000000  (  0.000000   0.000000   0.000000)
  19:       346.07    0.000000  (  0.000000   0.000000   0.000000)
  20:       382.05    0.000000  (  0.000000   0.000000   0.000000)
  21:       392.09    0.000000  (  0.000000   0.000000   0.000000)
  22:       403.04    0.000000  (  0.000000   0.000000   0.000000)
  23:       472.29    0.000000  (  0.000000   0.000000   0.000000)
  24:       513.55    0.000000  (  0.000000   0.000000   0.000000)
  25:       528.76    0.000000  (  0.000000   0.000000   0.000000)
  26:       588.67    0.000000  (  0.000000   0.000000   0.000000)
  27:       606.77    0.000000  (  0.000000   0.000000   0.000000)
  28:       621.50    0.000000  (  0.000000   0.000000   0.000000)
  29:       627.75    0.000000  (  0.000000   0.000000   0.000000)
  30:       678.31    0.000000  (  0.000000   0.000000   0.000000)
  31:       694.03    0.000000  (  0.000000   0.000000   0.000000)
  32:       761.77    0.000000  (  0.000000   0.000000   0.000000)
  33:       778.42    0.000000  (  0.000000   0.000000   0.000000)
  34:       794.19    0.000000  (  0.000000   0.000000   0.000000)
  35:       825.01    0.000000  (  0.000000   0.000000   0.000000)
  36:       845.69    0.000000  (  0.000000   0.000000   0.000000)
  37:       904.92    0.000000  (  0.000000   0.000000   0.000000)
  38:       918.16    0.000000  (  0.000000   0.000000   0.000000)
  39:       922.69    0.000000  (  0.000000   0.000000   0.000000)
  40:       946.59    0.000000  (  0.000000   0.000000   0.000000)
  41:       953.61    0.000000  (  0.000000   0.000000   0.000000)
  42:       954.63    0.000000  (  0.000000   0.000000   0.000000)
  43:       956.96    0.000000  (  0.000000   0.000000   0.000000)
  44:       975.27    0.000000  (  0.000000   0.000000   0.000000)
  45:      1021.15    0.000000  (  0.000000   0.000000   0.000000)
  46:      1060.19    0.000000  (  0.000000   0.000000   0.000000)
  47:      1061.89    0.000000  (  0.000000   0.000000   0.000000)
  48:      1083.89    0.000000  (  0.000000   0.000000   0.000000)
  49:      1107.14    0.000000  (  0.000000   0.000000   0.000000)
  50:      1115.23    0.000000  (  0.000000   0.000000   0.000000)
  51:      1130.78    0.000000  (  0.000000   0.000000   0.000000)
  52:      1144.78    0.000000  (  0.000000   0.000000   0.000000)
  53:      1182.47    0.000000  (  0.000000   0.000000   0.000000)
  54:      1188.22    0.000000  (  0.000000   0.000000   0.000000)
  55:      1194.47    0.000000  (  0.000000   0.000000   0.000000)
  56:      1205.39    0.000000  (  0.000000   0.000000   0.000000)
  57:      1213.84    0.000000  (  0.000000   0.000000   0.000000)
  58:      1234.67    0.000000  (  0.000000   0.000000   0.000000)
  59:      1247.32    0.000000  (  0.000000   0.000000   0.000000)
  60:      1260.16    0.000000  (  0.000000   0.000000   0.000000)
  61:      1272.16    0.000000  (  0.000000   0.000000   0.000000)
  62:      1277.58    0.000000  (  0.000000   0.000000   0.000000)
  63:      1283.72    0.000000  (  0.000000   0.000000   0.000000)
  64:      1286.87    0.000000  (  0.000000   0.000000   0.000000)
  65:      1316.71    0.000000  (  0.000000   0.000000   0.000000)
  66:      1334.38    0.000000  (  0.000000   0.000000   0.000000)
  67:      1339.76    0.000000  (  0.000000   0.000000   0.000000)
  68:      1371.46    0.000000  (  0.000000   0.000000   0.000000)
  69:      1390.48    0.000000  (  0.000000   0.000000   0.000000)
  70:      1422.20    0.000000  (  0.000000   0.000000   0.000000)
  71:      1429.42    0.000000  (  0.000000   0.000000   0.000000)
  72:      1449.90    0.000000  (  0.000000   0.000000   0.000000)
  73:      1463.09    0.000000  (  0.000000   0.000000   0.000000)
  74:      1493.75    0.000000  (  0.000000   0.000000   0.000000)
  75:      1502.89    0.000000  (  0.000000   0.000000   0.000000)
  76:      1505.98    0.000000  (  0.000000   0.000000   0.000000)
  77:      1509.52    0.000000  (  0.000000   0.000000   0.000000)
  78:      1538.08    0.000000  (  0.000000   0.000000   0.000000)
  79:      1543.79    0.000000  (  0.000000   0.000000   0.000000)
  80:      1564.74    0.000000  (  0.000000   0.000000   0.000000)
  81:      2249.79    0.000000  (  0.000000   0.000000   0.000000)
  82:      2913.39    0.000000  (  0.000000   0.000000   0.000000)
  83:      2936.19    0.000000  (  0.000000   0.000000   0.000000)
  84:      2946.12    0.000000  (  0.000000   0.000000   0.000000)
  85:      2961.10    0.000000  (  0.000000   0.000000   0.000000)
  86:      2969.08    0.000000  (  0.000000   0.000000   0.000000)
  87:      2970.66    0.000000  (  0.000000   0.000000   0.000000)
  88:      2979.11    0.000000  (  0.000000   0.000000   0.000000)
  89:      2980.62    0.000000  (  0.000000   0.000000   0.000000)
  90:      2997.26    0.000000  (  0.000000   0.000000   0.000000)
  91:      2999.00    0.000000  (  0.000000   0.000000   0.000000)
  92:      2999.75    0.000000  (  0.000000   0.000000   0.000000)
  93:      3005.61    0.000000  (  0.000000   0.000000   0.000000)
  94:      3023.47    0.000000  (  0.000000   0.000000   0.000000)
  95:      3030.35    0.000000  (  0.000000   0.000000   0.000000)
  96:      3062.12    0.000000  (  0.000000   0.000000   0.000000)
  97:      3342.83    0.000000  (  0.000000   0.000000   0.000000)
  98:      3612.50    0.000000  (  0.000000   0.000000   0.000000)

The first frequency considered to be a vibration is 7
The total number of vibrations considered is 92


--------------------------
THERMOCHEMISTRY AT 298.15K
--------------------------

Temperature         ... 298.15 K
Pressure            ... 1.00 atm
Total Mass          ... 197.28 AMU

Throughout the following assumptions are being made:
  (1) The electronic state is orbitally nondegenerate
  (2) There are no thermally accessible electronically excited states
  (3) Hindered rotations indicated by low frequency modes are not
      treated as such but are treated as vibrations and this may
      cause some error
  (4) All equations used are the standard statistical mechanics
      equations for an ideal gas
  (5) All vibrations are strictly harmonic

freq.      54.53  E(vib)   ...       0.52 
freq.      64.95  E(vib)   ...       0.50 
freq.      88.24  E(vib)   ...       0.48 
freq.      98.04  E(vib)   ...       0.46 
freq.      98.79  E(vib)   ...       0.46 
freq.     121.56  E(vib)   ...       0.44 
freq.     136.06  E(vib)   ...       0.42 
freq.     179.41  E(vib)   ...       0.37 
freq.     213.72  E(vib)   ...       0.34 
freq.     235.75  E(vib)   ...       0.32 
freq.     261.02  E(vib)   ...       0.30 
freq.     282.34  E(vib)   ...       0.28 
freq.     346.07  E(vib)   ...       0.23 
freq.     382.05  E(vib)   ...       0.21 
freq.     392.09  E(vib)   ...       0.20 
freq.     403.04  E(vib)   ...       0.19 
freq.     472.29  E(vib)   ...       0.15 
freq.     513.55  E(vib)   ...       0.13 
freq.     528.76  E(vib)   ...       0.13 
freq.     588.67  E(vib)   ...       0.10 
freq.     606.77  E(vib)   ...       0.10 
freq.     621.50  E(vib)   ...       0.09 
freq.     627.75  E(vib)   ...       0.09 
freq.     678.31  E(vib)   ...       0.08 
freq.     694.03  E(vib)   ...       0.07 
freq.     761.77  E(vib)   ...       0.06 
freq.     778.42  E(vib)   ...       0.05 
freq.     794.19  E(vib)   ...       0.05 
freq.     825.01  E(vib)   ...       0.04 
freq.     845.69  E(vib)   ...       0.04 
freq.     904.92  E(vib)   ...       0.03 
freq.     918.16  E(vib)   ...       0.03 
freq.     922.69  E(vib)   ...       0.03 
freq.     946.59  E(vib)   ...       0.03 
freq.     953.61  E(vib)   ...       0.03 
freq.     954.63  E(vib)   ...       0.03 
freq.     956.96  E(vib)   ...       0.03 
freq.     975.27  E(vib)   ...       0.03 
freq.    1021.15  E(vib)   ...       0.02 
freq.    1060.19  E(vib)   ...       0.02 
freq.    1061.89  E(vib)   ...       0.02 
freq.    1083.89  E(vib)   ...       0.02 
freq.    1107.14  E(vib)   ...       0.02 
freq.    1115.23  E(vib)   ...       0.01 
freq.    1130.78  E(vib)   ...       0.01 
freq.    1144.78  E(vib)   ...       0.01 
freq.    1182.47  E(vib)   ...       0.01 
freq.    1188.22  E(vib)   ...       0.01 
freq.    1194.47  E(vib)   ...       0.01 
freq.    1205.39  E(vib)   ...       0.01 
freq.    1213.84  E(vib)   ...       0.01 
freq.    1234.67  E(vib)   ...       0.01 
freq.    1247.32  E(vib)   ...       0.01 
freq.    1260.16  E(vib)   ...       0.01 
freq.    1272.16  E(vib)   ...       0.01 
freq.    1277.58  E(vib)   ...       0.01 
freq.    1283.72  E(vib)   ...       0.01 
freq.    1286.87  E(vib)   ...       0.01 
freq.    1316.71  E(vib)   ...       0.01 
freq.    1334.38  E(vib)   ...       0.01 
freq.    1339.76  E(vib)   ...       0.01 
freq.    1371.46  E(vib)   ...       0.01 
freq.    1390.48  E(vib)   ...       0.00 
freq.    1422.20  E(vib)   ...       0.00 
freq.    1429.42  E(vib)   ...       0.00 
freq.    1449.90  E(vib)   ...       0.00 
freq.    1463.09  E(vib)   ...       0.00 
freq.    1493.75  E(vib)   ...       0.00 
freq.    1502.89  E(vib)   ...       0.00 
freq.    1505.98  E(vib)   ...       0.00 
freq.    1509.52  E(vib)   ...       0.00 
freq.    1538.08  E(vib)   ...       0.00 
freq.    1543.79  E(vib)   ...       0.00 
freq.    1564.74  E(vib)   ...       0.00 
freq.    2249.79  E(vib)   ...       0.00 
freq.    2913.39  E(vib)   ...       0.00 
freq.    2936.19  E(vib)   ...       0.00 
freq.    2946.12  E(vib)   ...       0.00 
freq.    2961.10  E(vib)   ...       0.00 
freq.    2969.08  E(vib)   ...       0.00 
freq.    2970.66  E(vib)   ...       0.00 
freq.    2979.11  E(vib)   ...       0.00 
freq.    2980.62  E(vib)   ...       0.00 
freq.    2997.26  E(vib)   ...       0.00 
freq.    2999.00  E(vib)   ...       0.00 
freq.    2999.75  E(vib)   ...       0.00 
freq.    3005.61  E(vib)   ...       0.00 
freq.    3023.47  E(vib)   ...       0.00 
freq.    3030.35  E(vib)   ...       0.00 
freq.    3062.12  E(vib)   ...       0.00 
freq.    3342.83  E(vib)   ...       0.00 
freq.    3612.50  E(vib)   ...       0.00 

------------
INNER ENERGY
------------

The inner energy is: U= E(el) + E(ZPE) + E(vib) + E(rot) + E(trans)
    E(el)   - is the total energy from the electronic structure calculation
              = E(kin-el) + E(nuc-el) + E(el-el) + E(nuc-nuc)
    E(ZPE)  - the the zero temperature vibrational energy from the frequency calculation
    E(vib)  - the the finite temperature correction to E(ZPE) due to population
              of excited vibrational states
    E(rot)  - is the rotational thermal energy
    E(trans)- is the translational thermal energy

Summary of contributions to the inner energy U:
Electronic energy                ...    -44.26316966 Eh
Zero point energy                ...      0.27555392 Eh     172.91 kcal/mol
Thermal vibrational correction   ...      0.01186165 Eh       7.44 kcal/mol
Thermal rotational correction    ...      0.00141627 Eh       0.89 kcal/mol
Thermal translational correction ...      0.00141627 Eh       0.89 kcal/mol
-----------------------------------------------------------------------
Total thermal energy                    -43.97292154 Eh


Summary of corrections to the electronic energy:
(perhaps to be used in another calculation)
Total thermal correction                  0.01469419 Eh       9.22 kcal/mol
Non-thermal (ZPE) correction              0.27555392 Eh     172.91 kcal/mol
-----------------------------------------------------------------------
Total correction                          0.29024811 Eh     182.13 kcal/mol


--------
ENTHALPY
--------

The enthalpy is H = U + kB*T
                kB is Boltzmann's constant
Total free energy                 ...    -43.97292154 Eh 
Thermal Enthalpy correction       ...      0.00094421 Eh       0.59 kcal/mol
-----------------------------------------------------------------------
Total Enthalpy                    ...    -43.97197733 Eh


Note: Only C1 symmetry has been detected, increase convergence thresholds 
      if your molecule has a higher symmetry. Symmetry factor of 1.0 is   
      used for the rotational entropy correction. 
 

Note: Rotational entropy computed according to Herzberg 
Infrared and Raman Spectra, Chapter V,1, Van Nostrand Reinhold, 1945 
Point Group:  C1, Symmetry Number:   1  
Rotational constants in cm-1:     0.033162     0.011026     0.008885 

Vibrational entropy computed according to the QRRHO of S. Grimme
Chem.Eur.J. 2012 18 9955


-------
ENTROPY
-------

The entropy contributions are T*S = T*(S(el)+S(vib)+S(rot)+S(trans))
     S(el)   - electronic entropy
     S(vib)  - vibrational entropy
     S(rot)  - rotational entropy
     S(trans)- translational entropy
The entropies will be listed as mutliplied by the temperature to get
units of energy

Electronic entropy                ...      0.00000000 Eh      0.00 kcal/mol
Vibrational entropy               ...      0.02060631 Eh     12.93 kcal/mol
Rotational entropy                ...      0.01547674 Eh      9.71 kcal/mol
Translational entropy             ...      0.01983352 Eh     12.45 kcal/mol
-----------------------------------------------------------------------
Final entropy term                ...      0.05591657 Eh     35.09 kcal/mol

In case the symmetry of your molecule has not been determined correctly
or in case you have a reason to use a different symmetry number we print 
out the resulting rotational entropy values for sn=1,12 :
 --------------------------------------------------------
|  sn= 1 | S(rot)=       0.01547674 Eh      9.71 kcal/mol|
|  sn= 2 | S(rot)=       0.01482228 Eh      9.30 kcal/mol|
|  sn= 3 | S(rot)=       0.01443945 Eh      9.06 kcal/mol|
|  sn= 4 | S(rot)=       0.01416783 Eh      8.89 kcal/mol|
|  sn= 5 | S(rot)=       0.01395714 Eh      8.76 kcal/mol|
|  sn= 6 | S(rot)=       0.01378500 Eh      8.65 kcal/mol|
|  sn= 7 | S(rot)=       0.01363945 Eh      8.56 kcal/mol|
|  sn= 8 | S(rot)=       0.01351337 Eh      8.48 kcal/mol|
|  sn= 9 | S(rot)=       0.01340216 Eh      8.41 kcal/mol|
|  sn=10 | S(rot)=       0.01330268 Eh      8.35 kcal/mol|
|  sn=11 | S(rot)=       0.01321269 Eh      8.29 kcal/mol|
|  sn=12 | S(rot)=       0.01313054 Eh      8.24 kcal/mol|
 --------------------------------------------------------


-------------------
GIBBS FREE ENERGY
-------------------

The Gibbs free energy is G = H - T*S

Total enthalpy                    ...    -43.97197733 Eh 
Total entropy correction          ...     -0.05591657 Eh    -35.09 kcal/mol
-----------------------------------------------------------------------
Final Gibbs free energy         ...    -44.02789390 Eh

For completeness - the Gibbs free energy minus the electronic energy
G-E(el)                           ...      0.23527575 Eh    147.64 kcal/mol


Total Time for Numerical Frequencies  :       151.981 sec
Time for Reference State(s)           :         0.207 sec
Time for Displacements                :       140.025 sec

Timings for individual modules:

Sum of individual times         ...        0.458 sec (=   0.008 min)
XTB module                      ...        0.458 sec (=   0.008 min) 100.0 %
                             ****ORCA TERMINATED NORMALLY****
TOTAL RUN TIME: 0 days 0 hours 2 minutes 32 seconds 915 msec
(SLURM) EXECUTION TIME: 152.934813130 seconds.
