(SLURM) JOB ID:         716

                                 *****************
                                 * O   R   C   A *
                                 *****************

           --- An Ab Initio, DFT and Semiempirical electronic structure package ---

                  #######################################################
                  #                        -***-                        #
                  #          Department of theory and spectroscopy      #
                  #               Directorship: Frank Neese             #
                  #        Max Planck Institute fuer Kohlenforschung    #
                  #                Kaiser Wilhelm Platz 1               #
                  #                 D-45470 Muelheim/Ruhr               #
                  #                      Germany                        #
                  #                                                     #
                  #                  All rights reserved                #
                  #                        -***-                        #
                  #######################################################


                         Program Version 4.2.1 -  RELEASE  -


 With contributions from (in alphabetic order):
   Daniel Aravena         : Magnetic Suceptibility
   Michael Atanasov       : Ab Initio Ligand Field Theory (pilot matlab implementation)
   Alexander A. Auer      : GIAO ZORA, VPT2
   Ute Becker             : Parallelization
   Giovanni Bistoni       : ED, misc. LED, open-shell LED, HFLD
   Martin Brehm           : Molecular dynamics
   Dmytro Bykov           : SCF Hessian
   Vijay G. Chilkuri      : MRCI spin determinant printing, contributions to CSF-ICE
   Dipayan Datta          : RHF DLPNO-CCSD density
   Achintya Kumar Dutta   : EOM-CC, STEOM-CC
   Dmitry Ganyushin       : Spin-Orbit,Spin-Spin,Magnetic field MRCI
   Miquel Garcia          : C-PCM Hessian, Gaussian charge scheme
   Yang Guo               : DLPNO-NEVPT2, CIM, IAO-localization
   Andreas Hansen         : Spin unrestricted coupled pair/coupled cluster methods
   Benjamin Helmich-Paris : CASSCF linear response (MC-RPA)
   Lee Huntington         : MR-EOM, pCC
   Robert Izsak           : Overlap fitted RIJCOSX, COSX-SCS-MP3, EOM
   Christian Kollmar      : KDIIS, OOCD, Brueckner-CCSD(T), CCSD density
   Simone Kossmann        : Meta GGA functionals, TD-DFT gradient, OOMP2, MP2 Hessian
   Martin Krupicka        : AUTO-CI
   Lucas Lang             : DCDCAS
   Dagmar Lenk            : GEPOL surface, SMD
   Dimitrios Liakos       : Extrapolation schemes; Compound Job, initial MDCI parallelization
   Dimitrios Manganas     : Further ROCIS development; embedding schemes
   Dimitrios Pantazis     : SARC Basis sets
   Taras Petrenko         : DFT Hessian,TD-DFT gradient, ASA, ECA, R-Raman, ABS, FL, XAS/XES, NRVS
   Peter Pinski           : DLPNO-MP2, DLPNO-MP2 Gradient
   Christoph Reimann      : Effective Core Potentials
   Marius Retegan         : Local ZFS, SOC
   Christoph Riplinger    : Optimizer, TS searches, QM/MM, DLPNO-CCSD(T), (RO)-DLPNO pert. Triples
   Tobias Risthaus        : Range-separated hybrids, TD-DFT gradient, RPA, STAB
   Michael Roemelt        : Original ROCIS implementation
   Masaaki Saitow         : Open-shell DLPNO-CCSD energy and density
   Barbara Sandhoefer     : DKH picture change effects
   Avijit Sen             : IP-ROCIS
   Kantharuban Sivalingam : CASSCF convergence, NEVPT2, FIC-MRCI
   Bernardo de Souza      : ESD, SOC TD-DFT
   Georgi Stoychev        : AutoAux, RI-MP2 NMR
   Willem Van den Heuvel  : Paramagnetic NMR
   Boris Wezisla          : Elementary symmetry handling
   Frank Wennmohs         : Technical directorship


 We gratefully acknowledge several colleagues who have allowed us to
 interface, adapt or use parts of their codes:
   Stefan Grimme, W. Hujo, H. Kruse,             : VdW corrections, initial TS optimization,
                  C. Bannwarth                     DFT functionals, gCP, sTDA/sTD-DF
   Ed Valeev, F. Pavosevic, A. Kumar             : LibInt (2-el integral package), F12 methods
   Garnet Chan, S. Sharma, J. Yang, R. Olivares  : DMRG
   Ulf Ekstrom                                   : XCFun DFT Library
   Mihaly Kallay                                 : mrcc  (arbitrary order and MRCC methods)
   Andreas Klamt, Michael Diedenhofen            : otool_cosmo (COSMO solvation model)
   Jiri Pittner, Ondrej Demel                    : Mk-CCSD
   Frank Weinhold                                : gennbo (NPA and NBO analysis)
   Christopher J. Cramer and Donald G. Truhlar   : smd solvation model
   Lars Goerigk                                  : TD-DFT with DH, B97 family of functionals
   V. Asgeirsson, H. Jonsson                     : NEB implementation
   FAccTs GmbH                                   : IRC, NEB, NEB-TS, Multilevel, MM, QM/MM, CI optimization
   S Lehtola, MJT Oliveira, MAL Marques          : LibXC Library


 Your calculation uses the libint2 library for the computation of 2-el integrals
 For citations please refer to: http://libint.valeyev.net

 Your ORCA version has been built with support for libXC version: 4.2.3
 For citations please refer to: https://tddft.org/programs/libxc/

 This ORCA versions uses:
   CBLAS   interface :  Fast vector & matrix operations
   LAPACKE interface :  Fast linear algebra routines
   SCALAPACK package :  Parallel linear algebra routines




***************************************
The coordinates will be read from file: init.xyz
***************************************


Your calculation utilizes the SMD solvation module
Please cite in your paper:
A.V. Marenich, C.J. Cramer, D.G. Truhlar J. Phys. Chem. B, 113, (2009), 6378 

Your calculation utilizes the semiempirical GFN2-xTB method
Please cite in your paper:
C. Bannwarth, Ehlert S., S. Grimme,  J. Chem. Theory Comput., 15, (2019), 1652.
   

----- Orbital basis set information -----
Your calculation utilizes the basis: def2-SVP
   F. Weigend and R. Ahlrichs, Phys. Chem. Chem. Phys. 7, 3297 (2005).

================================================================================
                                        WARNINGS
                       Please study these warnings very carefully!
================================================================================

WARNING: Gradients needed for Numerical Frequencies
  ===> : Setting RunTyp to EnGrad

WARNING: The environment variable RSH_COMMAND is not set!
  ===> : All Displacements for the Numerical Hessian calculation
         will be started on localhost

WARNING: Found dipole moment calculation with XTB calculation
  ===> : Switching off dipole moment calculation


INFO   : the flag for use of LIBINT has been found!

================================================================================
                                       INPUT FILE
================================================================================
NAME = /tmp/slurm-scratch/freq.716/freq.inp
|  1> ! XTB2 NumFreq
|  2> %maxcore 1150
|  3> 
|  4> * xyzfile 0 1 init.xyz
|  5> 
|  6> %cpcm
|  7>  smd true
|  8>  smdsolvent "ch2cl2"
|  9> end
| 10> %pal nprocs 9 end
| 11> 
| 12>                          ****END OF INPUT****
================================================================================

                     *******************************
                     * Energy+Gradient Calculation *
                     *******************************

      -----------------------------------------------------------      
     |                   =====================                   |     
     |                           x T B                           |     
     |                   =====================                   |     
     |                         S. Grimme                         |     
     |          Mulliken Center for Theoretical Chemistry        |     
     |                    University of Bonn                     |     
      -----------------------------------------------------------      

   * xtb version 6.3.2 (30e43eb) compiled by 'schneider@apollo14' on 2020-08-08

   xtb is free software: you can redistribute it and/or modify it under
   the terms of the GNU Lesser General Public License as published by
   the Free Software Foundation, either version 3 of the License, or
   (at your option) any later version.
   
   xtb is distributed in the hope that it will be useful,
   but WITHOUT ANY WARRANTY; without even the implied warranty of
   MERCHANTABILITY or FITNESS FOR A PARTICULAR PURPOSE.  See the
   GNU Lesser General Public License for more details.
   
   Cite this work as:
   * S. Grimme, C. Bannwarth, P. Shushkov, J. Chem. Theory Comput., 2017,
     13, 1989-2009. DOI: 10.1021/acs.jctc.7b00118
   * C. Bannwarth, S. Ehlert and S. Grimme., J. Chem. Theory Comput., 2019,
     15, 1652-1671. DOI: 10.1021/acs.jctc.8b01176
   * P. Pracht, E. Caldeweyher, S. Ehlert, S. Grimme, ChemRxiv, 2019, preprint.
     DOI: 10.26434/chemrxiv.8326202.v1
   
   for GFN-FF:
   * S. Spicher and S. Grimme, Angew. Chem. Int. Ed., 2020,
     DOI: 10.1002/anie.202004239
   
   for DFT-D4:
   * E. Caldeweyher, C. Bannwarth and S. Grimme, J. Chem. Phys., 2017,
     147, 034112. DOI: 10.1063/1.4993215
   * E. Caldeweyher, S. Ehlert, A. Hansen, H. Neugebauer, S. Spicher,
     C. Bannwarth and S. Grimme, J. Chem. Phys., 2019, 150, 154122.
     DOI: 10.1063/1.5090222
   
   for sTDA-xTB:
   * S. Grimme and C. Bannwarth, J. Chem. Phys., 2016, 145, 054103.
     DOI: 10.1063/1.4959605
   
   in the mass-spec context:
   * V. Asgeirsson, C. Bauer and S. Grimme, Chem. Sci., 2017, 8, 4879.
     DOI: 10.1039/c7sc00601b
   * J. Koopman and S. Grimme, ACS Omega 2019, 4, 12, 15120-15133.
     DOI: 10.1021/acsomega.9b02011
   
   for metadynamics refer to:
   * S. Grimme, J. Chem. Theory Comput., 2019, 155, 2847-2862
     DOI: 10.1021/acs.jctc.9b00143
   
   with help from (in alphabetical order)
   C. Bannwarth, F. Bohle, G. Brandenburg, E. Caldeweyher, M. Checinski,
   S. Dohm, S. Ehlert, S. Ehrlich, F. März, H. Neugebauer, J. Pisarek,
   P. Pracht, P. Shushkov, and S. Spicher.
   
 * started run on 2021/03/02 at 02:50:16.776     

           -------------------------------------------------
          |                Calculation Setup                |
           -------------------------------------------------

          program call               : /opt/orca/otool_xtb /tmp/slurm-scratch/freq.716/freq_XTB.xyz --grad -c 0 -u 0 -P 9 --namespace /tmp/slurm-scratch/freq.716/freq --gbsa CH2Cl2
          hostname                   : apollo14
          calculation namespace      : /tmp/slurm-scratch/freq.716/freq
          coordinate file            : /tmp/slurm-scratch/freq.716/freq_XTB.xyz
          omp threads                :                     9
          number of atoms            :                    36
          number of electrons        :                    88
          charge                     :                     0
          spin                       :                   0.0
          first test random number   :      0.29940776137687

   ID    Z sym.   atoms
    1    6 C      1-7, 22, 25, 28, 31
    2    1 H      8-11, 13-20, 23, 24, 26, 27, 29, 30, 32-34
    3    8 O      12, 35, 36
    4    7 N      21

molecular fragmentation (1/2 indicates fragments):
111111111121222212112222222222222222
# atoms in fragment 1/2:    14    22
 fragment masses (1/2) :      106.12      109.17
CMA distance (Bohr)    :   9.707
constraining FC (au)   :  0.0500
########################################################################
[WARNING] Please study the warnings concerning your input carefully
-1- prog_main_parseArguments: Process number higher than OMP_NUM_THREADS, I hope you know what you are doing.
########################################################################

           -------------------------------------------------
          |                 G F N 2 - x T B                 |
           -------------------------------------------------

        Reference                      10.1021/acs.jctc.8b01176
      * Hamiltonian:
        H0-scaling (s, p, d)           1.850000    2.230000    2.230000
        zeta-weighting                 0.500000
      * Dispersion:
        s8                             2.700000
        a1                             0.520000
        a2                             5.000000
        s9                             5.000000
      * Repulsion:
        kExp                           1.500000    1.000000
        rExp                           1.000000
      * Coulomb:
        alpha                          2.000000
        third order                    shell-resolved
        anisotropic                    true
        a3                             3.000000
        a5                             4.000000
        cn-shift                       1.200000
        cn-exp                         4.000000
        max-rad                        5.000000

      * Solvation model:               GBSA
        Solvent                        CH2Cl2
        Parameter file                 internal GFN2-xTB/GBSA
        Dielectric constant                8.9300E+00
        Reference state                gsolv [1 M gas/solution]
        Free energy shift                  4.4408E-03 Eh       2.7867E+00 kcal/mol
        Temperature                        2.9815E+02 K
        Density                            1.3300E+00 kg/L
        Solvent mass                       8.4930E+01 g/mol
        Interaction kernel             Still
        Born radius scaling (c1)           1.4917E+00
        Born radii integrator          GBOBC
        Born offset                        0.0000E+00 a0       0.0000E+00 AA
        H-bond correction              false
        Ion screening                  false
        Surface tension                    1.0000E-05 Eh       1.5569E+01 dyn/cm
        Grid points                               230 per atom

          ...................................................
          :                      SETUP                      :
          :.................................................:
          :  # basis functions                  81          :
          :  # atomic orbitals                  81          :
          :  # shells                           51          :
          :  # electrons                        88          :
          :  max. iterations                   250          :
          :  Hamiltonian                  GFN2-xTB          :
          :  restarted?                      false          :
          :  GBSA solvation                   true          :
          :  PC potential                    false          :
          :  electronic temp.          300.0000000     K    :
          :  accuracy                    1.0000000          :
          :  -> integral cutoff          0.2500000E+02      :
          :  -> integral neglect         0.1000000E-07      :
          :  -> SCF convergence          0.1000000E-05 Eh   :
          :  -> wf. convergence          0.1000000E-03 e    :
          :  Broyden damping             0.4000000          :
          ...................................................

 iter      E             dE          RMSdq      gap      omega  full diag
   1    -49.8897643 -0.498898E+02  0.431E+00    2.35       0.0  T
   2    -49.9508843 -0.611199E-01  0.236E+00    2.25       1.0  T
   3    -49.9493983  0.148600E-02  0.105E+00    2.42       1.0  T
   4    -49.9569321 -0.753386E-02  0.211E-01    2.19       1.0  T
   5    -49.9575897 -0.657560E-03  0.764E-02    2.21       1.0  T
   6    -49.9576533 -0.636488E-04  0.387E-02    2.23       1.0  T
   7    -49.9576697 -0.163969E-04  0.145E-02    2.23       1.1  T
   8    -49.9576706 -0.839615E-06  0.419E-03    2.23       4.0  T
   9    -49.9576707 -0.143338E-06  0.173E-03    2.23       9.6  T
  10    -49.9576707 -0.192475E-07  0.881E-04    2.23      18.9  T
  11    -49.9576707 -0.562033E-08  0.373E-04    2.23      44.7  T

   *** convergence criteria satisfied after 11 iterations ***

         #    Occupation            Energy/Eh            Energy/eV
      -------------------------------------------------------------
         1        2.0000           -0.7189372             -19.5633
       ...           ...                  ...                  ...
        38        2.0000           -0.4340457             -11.8110
        39        2.0000           -0.4298579             -11.6970
        40        2.0000           -0.4218657             -11.4795
        41        2.0000           -0.4201364             -11.4325
        42        2.0000           -0.4174632             -11.3598
        43        2.0000           -0.4107669             -11.1775
        44        2.0000           -0.3841785             -10.4540 (HOMO)
        45                         -0.3022719              -8.2252 (LUMO)
        46                         -0.2397478              -6.5239
        47                         -0.2096964              -5.7061
        48                         -0.1046182              -2.8468
        49                         -0.0046944              -0.1277
       ...                                ...                  ...
        81                          0.6142445              16.7144
      -------------------------------------------------------------
                  HL-Gap            0.0819066 Eh            2.2288 eV
             Fermi-level           -0.3432252 Eh           -9.3396 eV

 SCC (total)                   0 d,  0 h,  0 min,  0.081 sec
 SCC setup                      ...        0 min,  0.004 sec (  4.605%)
 Dispersion                     ...        0 min,  0.003 sec (  3.111%)
 classical contributions        ...        0 min,  0.002 sec (  2.721%)
 integral evaluation            ...        0 min,  0.013 sec ( 15.985%)
 iterations                     ...        0 min,  0.026 sec ( 32.662%)
 molecular gradient             ...        0 min,  0.033 sec ( 40.644%)
 printout                       ...        0 min,  0.000 sec (  0.245%)

         :::::::::::::::::::::::::::::::::::::::::::::::::::::
         ::                     SUMMARY                     ::
         :::::::::::::::::::::::::::::::::::::::::::::::::::::
         :: total energy             -49.348573071651 Eh    ::
         :: total w/o Gsasa/hb       -49.328842705402 Eh    ::
         :: gradient norm              0.057004949320 Eh/a0 ::
         :: HOMO-LUMO gap              2.228792143656 eV    ::
         ::.................................................::
         :: SCC energy               -49.957670730443 Eh    ::
         :: -> isotropic ES            0.115669588861 Eh    ::
         :: -> anisotropic ES         -0.005174682516 Eh    ::
         :: -> anisotropic XC          0.025631608520 Eh    ::
         :: -> dispersion             -0.026096205591 Eh    ::
         :: -> Gsolv                  -0.029989430812 Eh    ::
         ::    -> Gborn               -0.010259064564 Eh    ::
         ::    -> Gsasa               -0.024171195422 Eh    ::
         ::    -> Ghb                  0.000000000000 Eh    ::
         ::    -> Gshift               0.004440829173 Eh    ::
         :: repulsion energy           0.608821672788 Eh    ::
         :: add. restraining           0.000000000000 Eh    ::
         :: total charge               0.000000000000 e     ::
         :::::::::::::::::::::::::::::::::::::::::::::::::::::

           -------------------------------------------------
          |                Property Printout                |
           -------------------------------------------------

    * Orbital Energies and Occupations

         #    Occupation            Energy/Eh            Energy/eV
      -------------------------------------------------------------
         1        2.0000           -0.7189372             -19.5633
       ...           ...                  ...                  ...
        32        2.0000           -0.4662623             -12.6876
        33        2.0000           -0.4485330             -12.2052
        34        2.0000           -0.4475226             -12.1777
        35        2.0000           -0.4450733             -12.1111
        36        2.0000           -0.4353260             -11.8458
        37        2.0000           -0.4350833             -11.8392
        38        2.0000           -0.4340457             -11.8110
        39        2.0000           -0.4298579             -11.6970
        40        2.0000           -0.4218657             -11.4795
        41        2.0000           -0.4201364             -11.4325
        42        2.0000           -0.4174632             -11.3598
        43        2.0000           -0.4107669             -11.1775
        44        2.0000           -0.3841785             -10.4540 (HOMO)
        45                         -0.3022719              -8.2252 (LUMO)
        46                         -0.2397478              -6.5239
        47                         -0.2096964              -5.7061
        48                         -0.1046182              -2.8468
        49                         -0.0046944              -0.1277
        50                          0.0501945               1.3659
        51                          0.0728701               1.9829
        52                          0.0793175               2.1583
        53                          0.0963150               2.6209
        54                          0.1031965               2.8081
        55                          0.1084797               2.9519
       ...                                ...                  ...
        81                          0.6142445              16.7144
      -------------------------------------------------------------
                  HL-Gap            0.0819066 Eh            2.2288 eV
             Fermi-level           -0.3432252 Eh           -9.3396 eV

     #   Z          covCN         q      C6AA      α(0)
     1   6 C        2.962    -0.004    28.110     8.696
     2   6 C        2.914    -0.017    28.441     8.745
     3   6 C        2.907    -0.022    28.559     8.763
     4   6 C        2.910    -0.014    28.366     8.733
     5   6 C        2.907    -0.024    28.608     8.770
     6   6 C        2.911    -0.012    28.309     8.724
     7   6 C        2.765     0.208    23.596     7.955
     8   1 H        0.925     0.056     2.249     2.345
     9   1 H        0.925     0.057     2.234     2.338
    10   1 H        0.925     0.056     2.243     2.342
    11   1 H        0.797     0.306     0.705     1.320
    12   8 O        0.856    -0.411    21.898     6.274
    13   1 H        0.801     0.316     0.677     1.292
    14   1 H        0.804     0.284     0.771     1.379
    15   1 H        0.859     0.175     1.241     1.745
    16   1 H        0.859     0.144     1.442     1.881
    17   1 H        0.922     0.046     2.368     2.407
    18   1 H        0.804     0.269     0.822     1.424
    19   1 H        0.925     0.055     2.256     2.349
    20   1 H        0.925     0.053     2.280     2.361
    21   7 N        2.626    -0.371    29.583     8.078
    22   6 C        3.727     0.018    20.375     6.445
    23   1 H        0.923     0.035     2.512     2.479
    24   1 H        0.922     0.014     2.833     2.632
    25   6 C        3.797    -0.066    21.776     6.645
    26   1 H        0.923     0.038     2.470     2.458
    27   1 H        0.923     0.045     2.380     2.413
    28   6 C        3.795    -0.053    21.528     6.607
    29   1 H        0.923     0.032     2.560     2.502
    30   1 H        0.923     0.030     2.591     2.517
    31   6 C        3.745    -0.101    22.493     6.765
    32   1 H        0.923     0.036     2.506     2.476
    33   1 H        0.923     0.036     2.501     2.473
    34   1 H        0.923     0.034     2.525     2.485
    35   8 O        1.599    -0.628    25.873     6.865
    36   8 O        1.604    -0.621    25.705     6.843

 Mol. C6AA /au·bohr⁶  :      10931.947117
 Mol. C8AA /au·bohr⁸  :     240359.849733
 Mol. α(0) /au        :        160.525722


Wiberg/Mayer (AO) data.
largest (>0.10) Wiberg bond orders for each atom

 ---------------------------------------------------------------------------
     #   Z sym  total        # sym  WBO       # sym  WBO       # sym  WBO
 ---------------------------------------------------------------------------
     1   6 C    3.988 --     2 C    1.358     6 C    1.355     7 C    1.095
     2   6 C    3.987 --     3 C    1.461     1 C    1.358     8 H    0.966
                             5 C    0.103
     3   6 C    3.990 --     2 C    1.461     4 C    1.428    19 H    0.969
                             6 C    0.103
     4   6 C    3.988 --     3 C    1.428     5 C    1.421    10 H    0.970
     5   6 C    3.990 --     6 C    1.467     4 C    1.421    20 H    0.969
                             2 C    0.103
     6   6 C    3.988 --     5 C    1.467     1 C    1.355     9 H    0.967
                             3 C    0.103
     7   6 C    3.902 --    12 O    1.772     1 C    1.095    17 H    0.936
     8   1 H    0.997 --     2 C    0.966
     9   1 H    0.997 --     6 C    0.967
    10   1 H    0.996 --     4 C    0.970
    11   1 H    0.906 --    35 O    0.823
    12   8 O    2.053 --     7 C    1.772
    13   1 H    0.900 --    36 O    0.849
    14   1 H    0.919 --    36 O    0.918
    15   1 H    0.969 --    21 N    0.937
    16   1 H    0.979 --    21 N    0.967
    17   1 H    0.997 --     7 C    0.936
    18   1 H    0.928 --    35 O    0.926
    19   1 H    0.997 --     3 C    0.969
    20   1 H    0.997 --     5 C    0.969
    21   7 N    3.080 --    22 C    1.008    16 H    0.967    15 H    0.937
    22   6 C    3.981 --    21 N    1.008    25 C    1.007    23 H    0.977
                            24 H    0.973
    23   1 H    0.999 --    22 C    0.977
    24   1 H    1.000 --    22 C    0.973
    25   6 C    3.995 --    22 C    1.007    28 C    1.006    26 H    0.975
                            27 H    0.974
    26   1 H    0.999 --    25 C    0.975
    27   1 H    0.998 --    25 C    0.974
    28   6 C    3.996 --    31 C    1.019    25 C    1.006    29 H    0.978
                            30 H    0.978
    29   1 H    0.999 --    28 C    0.978
    30   1 H    0.999 --    28 C    0.978
    31   6 C    3.996 --    28 C    1.019    34 H    0.988    32 H    0.988
                            33 H    0.987
    32   1 H    0.999 --    31 C    0.988
    33   1 H    0.998 --    31 C    0.987
    34   1 H    0.999 --    31 C    0.988
    35   8 O    1.811 --    18 H    0.926    11 H    0.823
    36   8 O    1.827 --    14 H    0.918    13 H    0.849
 ---------------------------------------------------------------------------

Topologies differ in total number of bonds
Writing topology from bond orders to xtbtopo.mol

molecular dipole:
                 x           y           z       tot (Debye)
 q only:       -0.712       0.893      -0.400
   full:       -0.652       0.367      -0.279       2.030
molecular quadrupole (traceless):
                xx          xy          yy          xz          yz          zz
 q only:        2.265       4.806      -0.983       3.874      -8.455      -1.282
  q+dip:        1.739       1.166       5.046       7.139     -12.084      -6.785
   full:        0.221       1.655       3.433       5.837     -12.233      -3.654


           -------------------------------------------------
          | TOTAL ENERGY              -49.348573071651 Eh   |
          | GRADIENT NORM               0.057004949320 Eh/α |
          | HOMO-LUMO GAP               2.228792143656 eV   |
           -------------------------------------------------

------------------------------------------------------------------------
 * finished run on 2021/03/02 at 02:50:16.903     
------------------------------------------------------------------------
 total:
 * wall-time:     0 d,  0 h,  0 min,  0.127 sec
 *  cpu-time:     0 d,  0 h,  0 min,  1.470 sec
 * ratio c/w:    11.590 speedup
 SCF:
 * wall-time:     0 d,  0 h,  0 min,  0.083 sec
 *  cpu-time:     0 d,  0 h,  0 min,  0.974 sec
 * ratio c/w:    11.672 speedup


-------------------------   --------------------
FINAL SINGLE POINT ENERGY       -49.348573071650
-------------------------   --------------------


----------------------------------------------------------------------------
                           ORCA NUMERICAL FREQUENCIES
                              (9-process run)
----------------------------------------------------------------------------

Number of atoms                ... 36
Central differences            ... used
Number of displacements        ... 216
Numerical increment            ... 5.000e-03 bohr
IR-spectrum generation         ... on
Raman-spectrum generation      ... off
Surface Crossing Hessian       ... off
List of participating nodes    ...  /tmp/slurm-scratch/freq.716/freq.hostnames

The output will be reduced. Please look at the following files:
SCF program output             ... >/tmp/slurm-scratch/freq.716/freq.lastscf
Integral program output        ... >/tmp/slurm-scratch/freq.716/freq.lastint
Gradient program output        ... >/tmp/slurm-scratch/freq.716/freq.lastgrad
Dipole moment program output   ... >/tmp/slurm-scratch/freq.716/freq.lastmom
AutoCI program output          ... >/tmp/slurm-scratch/freq.716/freq.lastautoci


         <<< Energy and Gradient at the input geometry >>>

        <<< Energy and Gradient at displaced geometries >>>
             <<<Displacing   1/coordinate 3 (+)>>>
             <<<Displacing   3/coordinate 2 (+)>>>
             <<<Displacing   3/coordinate 2 (-)>>>
             <<<Displacing   1/coordinate 3 (-)>>>
             <<<Displacing   1/coordinate 2 (+)>>>
             <<<Displacing   2/coordinate 3 (+)>>>
             <<<Displacing   1/coordinate 2 (-)>>>
             <<<Displacing   2/coordinate 3 (-)>>>
             <<<Displacing   1/coordinate 1 (+)>>>
             <<<Displacing   3/coordinate 1 (+)>>>
             <<<Displacing   2/coordinate 1 (+)>>>
             <<<Displacing   2/coordinate 2 (+)>>>
             <<<Displacing   3/coordinate 1 (-)>>>
             <<<Displacing   3/coordinate 3 (+)>>>
             <<<Displacing   1/coordinate 1 (-)>>>
             <<<Displacing   2/coordinate 1 (-)>>>
             <<<Displacing   2/coordinate 2 (-)>>>
             <<<Displacing   3/coordinate 3 (-)>>>
             <<<Displacing   4/coordinate 1 (+)>>>
             <<<Displacing   4/coordinate 3 (+)>>>
             <<<Displacing   4/coordinate 1 (-)>>>
             <<<Displacing   4/coordinate 2 (+)>>>
             <<<Displacing   4/coordinate 3 (-)>>>
             <<<Displacing   4/coordinate 2 (-)>>>
             <<<Displacing   5/coordinate 1 (+)>>>
             <<<Displacing   5/coordinate 2 (+)>>>
             <<<Displacing   5/coordinate 1 (-)>>>
             <<<Displacing   5/coordinate 2 (-)>>>
             <<<Displacing   5/coordinate 3 (+)>>>
             <<<Displacing   6/coordinate 1 (+)>>>
             <<<Displacing   5/coordinate 3 (-)>>>
             <<<Displacing   6/coordinate 1 (-)>>>
             <<<Displacing   6/coordinate 2 (+)>>>
             <<<Displacing   6/coordinate 2 (-)>>>
             <<<Displacing   6/coordinate 3 (+)>>>
             <<<Displacing   6/coordinate 3 (-)>>>
             <<<Displacing   7/coordinate 1 (+)>>>
             <<<Displacing   8/coordinate 2 (+)>>>
             <<<Displacing   8/coordinate 1 (+)>>>
             <<<Displacing   7/coordinate 1 (-)>>>
             <<<Displacing   8/coordinate 1 (-)>>>
             <<<Displacing   8/coordinate 2 (-)>>>
             <<<Displacing   7/coordinate 3 (+)>>>
             <<<Displacing   7/coordinate 2 (+)>>>
             <<<Displacing   7/coordinate 3 (-)>>>
             <<<Displacing   7/coordinate 2 (-)>>>
             <<<Displacing   8/coordinate 3 (+)>>>
             <<<Displacing   9/coordinate 2 (+)>>>
             <<<Displacing   8/coordinate 3 (-)>>>
             <<<Displacing   9/coordinate 2 (-)>>>
             <<<Displacing   9/coordinate 1 (+)>>>
             <<<Displacing   9/coordinate 1 (-)>>>
             <<<Displacing   9/coordinate 3 (+)>>>
             <<<Displacing   9/coordinate 3 (-)>>>
             <<<Displacing  10/coordinate 3 (+)>>>
             <<<Displacing  10/coordinate 1 (+)>>>
             <<<Displacing  10/coordinate 3 (-)>>>
             <<<Displacing  10/coordinate 2 (+)>>>
             <<<Displacing  10/coordinate 1 (-)>>>
             <<<Displacing  11/coordinate 1 (+)>>>
             <<<Displacing  11/coordinate 3 (+)>>>
             <<<Displacing  10/coordinate 2 (-)>>>
             <<<Displacing  11/coordinate 1 (-)>>>
             <<<Displacing  11/coordinate 2 (+)>>>
             <<<Displacing  11/coordinate 3 (-)>>>
             <<<Displacing  11/coordinate 2 (-)>>>
             <<<Displacing  12/coordinate 2 (+)>>>
             <<<Displacing  12/coordinate 2 (-)>>>
             <<<Displacing  12/coordinate 1 (+)>>>
             <<<Displacing  12/coordinate 1 (-)>>>
             <<<Displacing  12/coordinate 3 (+)>>>
             <<<Displacing  12/coordinate 3 (-)>>>
             <<<Displacing  13/coordinate 2 (+)>>>
             <<<Displacing  13/coordinate 1 (+)>>>
             <<<Displacing  13/coordinate 1 (-)>>>
             <<<Displacing  14/coordinate 1 (+)>>>
             <<<Displacing  13/coordinate 2 (-)>>>
             <<<Displacing  14/coordinate 1 (-)>>>
             <<<Displacing  13/coordinate 3 (+)>>>
             <<<Displacing  14/coordinate 2 (+)>>>
             <<<Displacing  13/coordinate 3 (-)>>>
             <<<Displacing  14/coordinate 3 (+)>>>
             <<<Displacing  14/coordinate 2 (-)>>>
             <<<Displacing  14/coordinate 3 (-)>>>
             <<<Displacing  15/coordinate 2 (+)>>>
             <<<Displacing  15/coordinate 1 (+)>>>
             <<<Displacing  15/coordinate 1 (-)>>>
             <<<Displacing  15/coordinate 2 (-)>>>
             <<<Displacing  16/coordinate 2 (+)>>>
             <<<Displacing  15/coordinate 3 (+)>>>
             <<<Displacing  16/coordinate 1 (+)>>>
             <<<Displacing  16/coordinate 2 (-)>>>
             <<<Displacing  16/coordinate 1 (-)>>>
             <<<Displacing  15/coordinate 3 (-)>>>
             <<<Displacing  17/coordinate 1 (+)>>>
             <<<Displacing  17/coordinate 1 (-)>>>
             <<<Displacing  16/coordinate 3 (+)>>>
             <<<Displacing  16/coordinate 3 (-)>>>
             <<<Displacing  17/coordinate 2 (+)>>>
             <<<Displacing  17/coordinate 2 (-)>>>
             <<<Displacing  17/coordinate 3 (+)>>>
             <<<Displacing  17/coordinate 3 (-)>>>
             <<<Displacing  18/coordinate 2 (+)>>>
             <<<Displacing  18/coordinate 2 (-)>>>
             <<<Displacing  18/coordinate 1 (+)>>>
             <<<Displacing  18/coordinate 1 (-)>>>
             <<<Displacing  18/coordinate 3 (+)>>>
             <<<Displacing  19/coordinate 2 (+)>>>
             <<<Displacing  18/coordinate 3 (-)>>>
             <<<Displacing  19/coordinate 2 (-)>>>
             <<<Displacing  19/coordinate 1 (+)>>>
             <<<Displacing  19/coordinate 3 (+)>>>
             <<<Displacing  19/coordinate 1 (-)>>>
             <<<Displacing  19/coordinate 3 (-)>>>
             <<<Displacing  20/coordinate 1 (+)>>>
             <<<Displacing  20/coordinate 1 (-)>>>
             <<<Displacing  20/coordinate 2 (+)>>>
             <<<Displacing  20/coordinate 3 (+)>>>
             <<<Displacing  20/coordinate 2 (-)>>>
             <<<Displacing  20/coordinate 3 (-)>>>
             <<<Displacing  21/coordinate 1 (+)>>>
             <<<Displacing  21/coordinate 1 (-)>>>
             <<<Displacing  21/coordinate 2 (+)>>>
             <<<Displacing  21/coordinate 2 (-)>>>
             <<<Displacing  21/coordinate 3 (+)>>>
             <<<Displacing  22/coordinate 1 (+)>>>
             <<<Displacing  22/coordinate 1 (-)>>>
             <<<Displacing  21/coordinate 3 (-)>>>
             <<<Displacing  22/coordinate 2 (+)>>>
             <<<Displacing  22/coordinate 3 (+)>>>
             <<<Displacing  22/coordinate 2 (-)>>>
             <<<Displacing  22/coordinate 3 (-)>>>
             <<<Displacing  23/coordinate 1 (+)>>>
             <<<Displacing  23/coordinate 1 (-)>>>
             <<<Displacing  23/coordinate 3 (+)>>>
             <<<Displacing  23/coordinate 3 (-)>>>
             <<<Displacing  23/coordinate 2 (+)>>>
             <<<Displacing  23/coordinate 2 (-)>>>
             <<<Displacing  24/coordinate 1 (+)>>>
             <<<Displacing  24/coordinate 2 (+)>>>
             <<<Displacing  24/coordinate 1 (-)>>>
             <<<Displacing  24/coordinate 2 (-)>>>
             <<<Displacing  24/coordinate 3 (+)>>>
             <<<Displacing  25/coordinate 2 (+)>>>
             <<<Displacing  25/coordinate 1 (+)>>>
             <<<Displacing  25/coordinate 3 (+)>>>
             <<<Displacing  25/coordinate 2 (-)>>>
             <<<Displacing  24/coordinate 3 (-)>>>
             <<<Displacing  25/coordinate 3 (-)>>>
             <<<Displacing  25/coordinate 1 (-)>>>
             <<<Displacing  26/coordinate 1 (+)>>>
             <<<Displacing  26/coordinate 1 (-)>>>
             <<<Displacing  26/coordinate 2 (+)>>>
             <<<Displacing  26/coordinate 3 (+)>>>
             <<<Displacing  26/coordinate 2 (-)>>>
             <<<Displacing  26/coordinate 3 (-)>>>
             <<<Displacing  27/coordinate 1 (+)>>>
             <<<Displacing  27/coordinate 2 (+)>>>
             <<<Displacing  27/coordinate 2 (-)>>>
             <<<Displacing  27/coordinate 1 (-)>>>
             <<<Displacing  27/coordinate 3 (+)>>>
             <<<Displacing  28/coordinate 3 (+)>>>
             <<<Displacing  28/coordinate 3 (-)>>>
             <<<Displacing  27/coordinate 3 (-)>>>
             <<<Displacing  28/coordinate 2 (+)>>>
             <<<Displacing  28/coordinate 1 (+)>>>
             <<<Displacing  28/coordinate 2 (-)>>>
             <<<Displacing  28/coordinate 1 (-)>>>
             <<<Displacing  29/coordinate 1 (+)>>>
             <<<Displacing  29/coordinate 2 (+)>>>
             <<<Displacing  29/coordinate 1 (-)>>>
             <<<Displacing  29/coordinate 2 (-)>>>
             <<<Displacing  29/coordinate 3 (+)>>>
             <<<Displacing  29/coordinate 3 (-)>>>
             <<<Displacing  30/coordinate 1 (+)>>>
             <<<Displacing  30/coordinate 2 (+)>>>
             <<<Displacing  30/coordinate 3 (+)>>>
             <<<Displacing  30/coordinate 2 (-)>>>
             <<<Displacing  30/coordinate 1 (-)>>>
             <<<Displacing  30/coordinate 3 (-)>>>
             <<<Displacing  31/coordinate 1 (+)>>>
             <<<Displacing  31/coordinate 1 (-)>>>
             <<<Displacing  31/coordinate 3 (+)>>>
             <<<Displacing  31/coordinate 2 (+)>>>
             <<<Displacing  31/coordinate 3 (-)>>>
             <<<Displacing  31/coordinate 2 (-)>>>
             <<<Displacing  32/coordinate 1 (+)>>>
             <<<Displacing  32/coordinate 1 (-)>>>
             <<<Displacing  32/coordinate 2 (+)>>>
             <<<Displacing  32/coordinate 2 (-)>>>
             <<<Displacing  32/coordinate 3 (+)>>>
             <<<Displacing  32/coordinate 3 (-)>>>
             <<<Displacing  33/coordinate 1 (+)>>>
             <<<Displacing  33/coordinate 2 (+)>>>
             <<<Displacing  33/coordinate 1 (-)>>>
             <<<Displacing  33/coordinate 2 (-)>>>
             <<<Displacing  34/coordinate 1 (+)>>>
             <<<Displacing  33/coordinate 3 (+)>>>
             <<<Displacing  34/coordinate 1 (-)>>>
             <<<Displacing  33/coordinate 3 (-)>>>
             <<<Displacing  34/coordinate 2 (+)>>>
             <<<Displacing  34/coordinate 2 (-)>>>
             <<<Displacing  34/coordinate 3 (+)>>>
             <<<Displacing  34/coordinate 3 (-)>>>
             <<<Displacing  35/coordinate 1 (+)>>>
             <<<Displacing  35/coordinate 1 (-)>>>
             <<<Displacing  35/coordinate 3 (+)>>>
             <<<Displacing  35/coordinate 2 (+)>>>
             <<<Displacing  35/coordinate 3 (-)>>>
             <<<Displacing  35/coordinate 2 (-)>>>
             <<<Displacing  36/coordinate 1 (+)>>>
             <<<Displacing  36/coordinate 1 (-)>>>
             <<<Displacing  36/coordinate 2 (+)>>>
             <<<Displacing  36/coordinate 2 (-)>>>
             <<<Displacing  36/coordinate 3 (+)>>>
             <<<Displacing  36/coordinate 3 (-)>>>

-----------------------
VIBRATIONAL FREQUENCIES
-----------------------

Scaling factor for frequencies =  1.000000000 (already applied!)

   0:         0.00 cm**-1
   1:         0.00 cm**-1
   2:         0.00 cm**-1
   3:         0.00 cm**-1
   4:         0.00 cm**-1
   5:         0.00 cm**-1
   6:        23.53 cm**-1
   7:        44.36 cm**-1
   8:        56.43 cm**-1
   9:        62.25 cm**-1
  10:        72.76 cm**-1
  11:        81.22 cm**-1
  12:        92.73 cm**-1
  13:       110.67 cm**-1
  14:       123.65 cm**-1
  15:       149.83 cm**-1
  16:       155.72 cm**-1
  17:       183.68 cm**-1
  18:       184.25 cm**-1
  19:       193.46 cm**-1
  20:       228.30 cm**-1
  21:       259.39 cm**-1
  22:       272.71 cm**-1
  23:       304.42 cm**-1
  24:       356.08 cm**-1
  25:       389.90 cm**-1
  26:       400.43 cm**-1
  27:       426.62 cm**-1
  28:       439.47 cm**-1
  29:       444.77 cm**-1
  30:       448.49 cm**-1
  31:       466.77 cm**-1
  32:       493.07 cm**-1
  33:       578.50 cm**-1
  34:       587.60 cm**-1
  35:       614.26 cm**-1
  36:       635.24 cm**-1
  37:       670.43 cm**-1
  38:       749.37 cm**-1
  39:       779.33 cm**-1
  40:       807.61 cm**-1
  41:       820.62 cm**-1
  42:       832.32 cm**-1
  43:       855.07 cm**-1
  44:       900.31 cm**-1
  45:       926.06 cm**-1
  46:       935.96 cm**-1
  47:       945.51 cm**-1
  48:       955.48 cm**-1
  49:       959.80 cm**-1
  50:       960.57 cm**-1
  51:       973.35 cm**-1
  52:       986.09 cm**-1
  53:      1027.09 cm**-1
  54:      1050.95 cm**-1
  55:      1063.13 cm**-1
  56:      1069.08 cm**-1
  57:      1106.79 cm**-1
  58:      1109.23 cm**-1
  59:      1154.96 cm**-1
  60:      1173.79 cm**-1
  61:      1186.25 cm**-1
  62:      1201.95 cm**-1
  63:      1210.06 cm**-1
  64:      1247.51 cm**-1
  65:      1256.42 cm**-1
  66:      1272.96 cm**-1
  67:      1282.98 cm**-1
  68:      1284.94 cm**-1
  69:      1300.38 cm**-1
  70:      1356.71 cm**-1
  71:      1357.26 cm**-1
  72:      1380.53 cm**-1
  73:      1411.66 cm**-1
  74:      1431.81 cm**-1
  75:      1433.65 cm**-1
  76:      1494.31 cm**-1
  77:      1510.21 cm**-1
  78:      1513.09 cm**-1
  79:      1514.60 cm**-1
  80:      1517.85 cm**-1
  81:      1521.35 cm**-1
  82:      1531.33 cm**-1
  83:      1552.42 cm**-1
  84:      1572.15 cm**-1
  85:      1575.50 cm**-1
  86:      1583.31 cm**-1
  87:      2660.31 cm**-1
  88:      2796.19 cm**-1
  89:      2816.28 cm**-1
  90:      2870.13 cm**-1
  91:      2882.78 cm**-1
  92:      2895.08 cm**-1
  93:      2901.99 cm**-1
  94:      2906.58 cm**-1
  95:      2911.52 cm**-1
  96:      2917.33 cm**-1
  97:      2929.60 cm**-1
  98:      2990.15 cm**-1
  99:      2993.01 cm**-1
 100:      2998.35 cm**-1
 101:      3004.42 cm**-1
 102:      3009.16 cm**-1
 103:      3052.46 cm**-1
 104:      3204.97 cm**-1
 105:      3302.18 cm**-1
 106:      3437.36 cm**-1
 107:      3440.14 cm**-1


------------
NORMAL MODES
------------

These modes are the cartesian displacements weighted by the diagonal matrix
M(i,i)=1/sqrt(m[i]) where m[i] is the mass of the displaced atom
Thus, these vectors are normalized but *not* orthogonal

                  0          1          2          3          4          5    
      0       0.000000   0.000000   0.000000   0.000000   0.000000   0.000000
      1       0.000000   0.000000   0.000000   0.000000   0.000000   0.000000
      2       0.000000   0.000000   0.000000   0.000000   0.000000   0.000000
      3       0.000000   0.000000   0.000000   0.000000   0.000000   0.000000
      4       0.000000   0.000000   0.000000   0.000000   0.000000   0.000000
      5       0.000000   0.000000   0.000000   0.000000   0.000000   0.000000
      6       0.000000   0.000000   0.000000   0.000000   0.000000   0.000000
      7       0.000000   0.000000   0.000000   0.000000   0.000000   0.000000
      8       0.000000   0.000000   0.000000   0.000000   0.000000   0.000000
      9       0.000000   0.000000   0.000000   0.000000   0.000000   0.000000
     10       0.000000   0.000000   0.000000   0.000000   0.000000   0.000000
     11       0.000000   0.000000   0.000000   0.000000   0.000000   0.000000
     12       0.000000   0.000000   0.000000   0.000000   0.000000   0.000000
     13       0.000000   0.000000   0.000000   0.000000   0.000000   0.000000
     14       0.000000   0.000000   0.000000   0.000000   0.000000   0.000000
     15       0.000000   0.000000   0.000000   0.000000   0.000000   0.000000
     16       0.000000   0.000000   0.000000   0.000000   0.000000   0.000000
     17       0.000000   0.000000   0.000000   0.000000   0.000000   0.000000
     18       0.000000   0.000000   0.000000   0.000000   0.000000   0.000000
     19       0.000000   0.000000   0.000000   0.000000   0.000000   0.000000
     20       0.000000   0.000000   0.000000   0.000000   0.000000   0.000000
     21       0.000000   0.000000   0.000000   0.000000   0.000000   0.000000
     22       0.000000   0.000000   0.000000   0.000000   0.000000   0.000000
     23       0.000000   0.000000   0.000000   0.000000   0.000000   0.000000
     24       0.000000   0.000000   0.000000   0.000000   0.000000   0.000000
     25       0.000000   0.000000   0.000000   0.000000   0.000000   0.000000
     26       0.000000   0.000000   0.000000   0.000000   0.000000   0.000000
     27       0.000000   0.000000   0.000000   0.000000   0.000000   0.000000
     28       0.000000   0.000000   0.000000   0.000000   0.000000   0.000000
     29       0.000000   0.000000   0.000000   0.000000   0.000000   0.000000
     30       0.000000   0.000000   0.000000   0.000000   0.000000   0.000000
     31       0.000000   0.000000   0.000000   0.000000   0.000000   0.000000
     32       0.000000   0.000000   0.000000   0.000000   0.000000   0.000000
     33       0.000000   0.000000   0.000000   0.000000   0.000000   0.000000
     34       0.000000   0.000000   0.000000   0.000000   0.000000   0.000000
     35       0.000000   0.000000   0.000000   0.000000   0.000000   0.000000
     36       0.000000   0.000000   0.000000   0.000000   0.000000   0.000000
     37       0.000000   0.000000   0.000000   0.000000   0.000000   0.000000
     38       0.000000   0.000000   0.000000   0.000000   0.000000   0.000000
     39       0.000000   0.000000   0.000000   0.000000   0.000000   0.000000
     40       0.000000   0.000000   0.000000   0.000000   0.000000   0.000000
     41       0.000000   0.000000   0.000000   0.000000   0.000000   0.000000
     42       0.000000   0.000000   0.000000   0.000000   0.000000   0.000000
     43       0.000000   0.000000   0.000000   0.000000   0.000000   0.000000
     44       0.000000   0.000000   0.000000   0.000000   0.000000   0.000000
     45       0.000000   0.000000   0.000000   0.000000   0.000000   0.000000
     46       0.000000   0.000000   0.000000   0.000000   0.000000   0.000000
     47       0.000000   0.000000   0.000000   0.000000   0.000000   0.000000
     48       0.000000   0.000000   0.000000   0.000000   0.000000   0.000000
     49       0.000000   0.000000   0.000000   0.000000   0.000000   0.000000
     50       0.000000   0.000000   0.000000   0.000000   0.000000   0.000000
     51       0.000000   0.000000   0.000000   0.000000   0.000000   0.000000
     52       0.000000   0.000000   0.000000   0.000000   0.000000   0.000000
     53       0.000000   0.000000   0.000000   0.000000   0.000000   0.000000
     54       0.000000   0.000000   0.000000   0.000000   0.000000   0.000000
     55       0.000000   0.000000   0.000000   0.000000   0.000000   0.000000
     56       0.000000   0.000000   0.000000   0.000000   0.000000   0.000000
     57       0.000000   0.000000   0.000000   0.000000   0.000000   0.000000
     58       0.000000   0.000000   0.000000   0.000000   0.000000   0.000000
     59       0.000000   0.000000   0.000000   0.000000   0.000000   0.000000
     60       0.000000   0.000000   0.000000   0.000000   0.000000   0.000000
     61       0.000000   0.000000   0.000000   0.000000   0.000000   0.000000
     62       0.000000   0.000000   0.000000   0.000000   0.000000   0.000000
     63       0.000000   0.000000   0.000000   0.000000   0.000000   0.000000
     64       0.000000   0.000000   0.000000   0.000000   0.000000   0.000000
     65       0.000000   0.000000   0.000000   0.000000   0.000000   0.000000
     66       0.000000   0.000000   0.000000   0.000000   0.000000   0.000000
     67       0.000000   0.000000   0.000000   0.000000   0.000000   0.000000
     68       0.000000   0.000000   0.000000   0.000000   0.000000   0.000000
     69       0.000000   0.000000   0.000000   0.000000   0.000000   0.000000
     70       0.000000   0.000000   0.000000   0.000000   0.000000   0.000000
     71       0.000000   0.000000   0.000000   0.000000   0.000000   0.000000
     72       0.000000   0.000000   0.000000   0.000000   0.000000   0.000000
     73       0.000000   0.000000   0.000000   0.000000   0.000000   0.000000
     74       0.000000   0.000000   0.000000   0.000000   0.000000   0.000000
     75       0.000000   0.000000   0.000000   0.000000   0.000000   0.000000
     76       0.000000   0.000000   0.000000   0.000000   0.000000   0.000000
     77       0.000000   0.000000   0.000000   0.000000   0.000000   0.000000
     78       0.000000   0.000000   0.000000   0.000000   0.000000   0.000000
     79       0.000000   0.000000   0.000000   0.000000   0.000000   0.000000
     80       0.000000   0.000000   0.000000   0.000000   0.000000   0.000000
     81       0.000000   0.000000   0.000000   0.000000   0.000000   0.000000
     82       0.000000   0.000000   0.000000   0.000000   0.000000   0.000000
     83       0.000000   0.000000   0.000000   0.000000   0.000000   0.000000
     84       0.000000   0.000000   0.000000   0.000000   0.000000   0.000000
     85       0.000000   0.000000   0.000000   0.000000   0.000000   0.000000
     86       0.000000   0.000000   0.000000   0.000000   0.000000   0.000000
     87       0.000000   0.000000   0.000000   0.000000   0.000000   0.000000
     88       0.000000   0.000000   0.000000   0.000000   0.000000   0.000000
     89       0.000000   0.000000   0.000000   0.000000   0.000000   0.000000
     90       0.000000   0.000000   0.000000   0.000000   0.000000   0.000000
     91       0.000000   0.000000   0.000000   0.000000   0.000000   0.000000
     92       0.000000   0.000000   0.000000   0.000000   0.000000   0.000000
     93       0.000000   0.000000   0.000000   0.000000   0.000000   0.000000
     94       0.000000   0.000000   0.000000   0.000000   0.000000   0.000000
     95       0.000000   0.000000   0.000000   0.000000   0.000000   0.000000
     96       0.000000   0.000000   0.000000   0.000000   0.000000   0.000000
     97       0.000000   0.000000   0.000000   0.000000   0.000000   0.000000
     98       0.000000   0.000000   0.000000   0.000000   0.000000   0.000000
     99       0.000000   0.000000   0.000000   0.000000   0.000000   0.000000
    100       0.000000   0.000000   0.000000   0.000000   0.000000   0.000000
    101       0.000000   0.000000   0.000000   0.000000   0.000000   0.000000
    102       0.000000   0.000000   0.000000   0.000000   0.000000   0.000000
    103       0.000000   0.000000   0.000000   0.000000   0.000000   0.000000
    104       0.000000   0.000000   0.000000   0.000000   0.000000   0.000000
    105       0.000000   0.000000   0.000000   0.000000   0.000000   0.000000
    106       0.000000   0.000000   0.000000   0.000000   0.000000   0.000000
    107       0.000000   0.000000   0.000000   0.000000   0.000000   0.000000
                  6          7          8          9         10         11    
      0      -0.097907  -0.087382  -0.017671   0.016888  -0.025306  -0.026143
      1      -0.002034   0.042505   0.028745   0.065504  -0.020706  -0.003294
      2      -0.098642   0.002122   0.017863  -0.005187   0.048053   0.105414
      3      -0.102627  -0.100888  -0.059399   0.009134   0.009243   0.001078
      4       0.000920   0.046217   0.042572   0.068025  -0.032216  -0.013207
      5      -0.074022  -0.028700  -0.003232  -0.034951   0.031424   0.001674
      6      -0.104363  -0.109570  -0.092148   0.011376   0.047751   0.033259
      7       0.002102   0.031327   0.012023   0.055903  -0.018144  -0.022234
      8      -0.065118  -0.056562  -0.012228  -0.084819  -0.032790  -0.124569
      9      -0.102345  -0.104628  -0.085049   0.019434   0.052865   0.041287
     10       0.001926   0.012094  -0.032868   0.041205   0.007348  -0.022942
     11      -0.074834  -0.060019  -0.001324  -0.106751  -0.080629  -0.160025
     12      -0.099158  -0.090033  -0.044661   0.027979   0.021428   0.019365
     13       0.000320   0.007248  -0.047120   0.038257   0.018434  -0.015066
     14      -0.094602  -0.036873   0.019714  -0.084904  -0.073293  -0.077562
     15      -0.097159  -0.081647  -0.011247   0.026700  -0.016742  -0.014265
     16      -0.001661   0.022558  -0.017194   0.050497   0.004281  -0.005650
     17      -0.109304  -0.004559   0.029743  -0.036467  -0.012093   0.055962
     18      -0.094800  -0.074752   0.027147   0.018385  -0.068516  -0.056871
     19       0.000652   0.058014   0.068083   0.080702  -0.036004   0.003893
     20      -0.107370   0.033977   0.020807   0.051516   0.121218   0.234027
     21      -0.104077  -0.104000  -0.063950   0.002926   0.005309  -0.005289
     22       0.001599   0.060695   0.076011   0.080103  -0.051516  -0.012945
     23      -0.066365  -0.025698  -0.011277  -0.018363   0.066784   0.028796
     24      -0.093816  -0.072285   0.018496   0.031701  -0.040437  -0.031783
     25      -0.002724   0.019423  -0.027055   0.048929   0.012243   0.000302
     26      -0.125122   0.013664   0.044409  -0.019390  -0.003897   0.121420
     27      -0.103510  -0.111152  -0.109829   0.019508   0.079920   0.063531
     28       0.003009   0.000930  -0.055789   0.031924   0.018373  -0.029292
     29      -0.067301  -0.080072  -0.008632  -0.139463  -0.121785  -0.248030
     30       0.175280   0.072823  -0.064638   0.032598  -0.240396   0.152942
     31       0.096418  -0.154305   0.039713  -0.238330  -0.093525   0.075855
     32       0.269917  -0.208196  -0.031592   0.121976   0.129369  -0.064669
     33      -0.077737  -0.072577   0.075894   0.030816  -0.090042  -0.087398
     34      -0.001422   0.056370   0.056360   0.078250  -0.031079   0.008830
     35      -0.132265   0.075553   0.031383   0.070757   0.116667   0.334129
     36      -0.022299  -0.097362   0.217799   0.039919  -0.014600   0.016254
     37       0.048154   0.036765   0.201875   0.080999   0.021438   0.021362
     38      -0.067992   0.106232  -0.064441   0.087148  -0.059895  -0.088196
     39      -0.000721  -0.126958   0.290767   0.029252   0.046494   0.081469
     40       0.060395   0.025314   0.218343   0.072043   0.032251   0.006496
     41      -0.063971   0.108095  -0.115689   0.068066  -0.114688  -0.251766
     42       0.060718   0.139087  -0.062690   0.091760   0.010260  -0.021225
     43      -0.015758  -0.021626   0.018617  -0.109131   0.102662  -0.070863
     44       0.040033   0.015662   0.092291   0.104380  -0.112796  -0.121363
     45       0.125580   0.101071  -0.097687   0.184597   0.004308  -0.042080
     46      -0.089468  -0.007740   0.047515  -0.124073   0.061633  -0.128438
     47       0.048850   0.015171   0.091782   0.113413  -0.113657  -0.116998
     48      -0.108532  -0.068808   0.017756   0.009825  -0.074893  -0.049177
     49       0.011385   0.067919   0.110264   0.095435  -0.053966  -0.002934
     50      -0.044817  -0.014725  -0.000239   0.069206   0.184280   0.198025
     51       0.185328   0.064634  -0.061722   0.025637  -0.261930   0.163205
     52       0.151855  -0.225445   0.042829  -0.302119  -0.223618   0.192330
     53       0.321042  -0.252358  -0.067829   0.120097   0.209418  -0.034424
     54      -0.107140  -0.119285  -0.122043   0.006821   0.071766   0.050841
     55       0.002964   0.034760   0.022327   0.057496  -0.026430  -0.028337
     56      -0.050701  -0.074875  -0.027134  -0.103844  -0.042626  -0.190065
     57      -0.098005  -0.085810  -0.039719   0.034409   0.025903   0.026921
     58       0.001005  -0.008496  -0.080565   0.026559   0.037823  -0.016102
     59      -0.099936  -0.041983   0.027556  -0.103392  -0.110931  -0.110841
     60       0.104023   0.124823  -0.075556   0.107409   0.001768  -0.024450
     61      -0.053041  -0.016355   0.029728  -0.116423   0.086994  -0.100281
     62       0.069381   0.012747   0.082942   0.110173  -0.099021  -0.097029
     63       0.114083   0.122938  -0.060642   0.067639   0.009931  -0.022792
     64      -0.073093  -0.013178   0.002216  -0.046554   0.076661  -0.104233
     65       0.053046   0.043354   0.081340   0.027602  -0.064374  -0.057464
     66       0.141344   0.103396  -0.071105   0.087902  -0.013984  -0.017411
     67      -0.089822  -0.017364   0.055852  -0.039930   0.080264  -0.158934
     68       0.064574   0.047097   0.042441   0.022199  -0.066156  -0.017807
     69       0.107421   0.122716  -0.078382   0.109926  -0.002141  -0.022769
     70      -0.084941  -0.011958  -0.012099  -0.000831   0.065491  -0.108886
     71       0.021481   0.058780   0.146802  -0.020648  -0.028862  -0.106593
     72       0.095133   0.150763  -0.010784  -0.063133   0.084461  -0.036253
     73      -0.051443  -0.005210  -0.087975  -0.048668   0.069172  -0.022464
     74       0.065439   0.052321   0.027845   0.008624  -0.059962  -0.003644
     75       0.091620   0.166982  -0.048697  -0.088029   0.084685  -0.007422
     76      -0.037073   0.001985  -0.141149  -0.061249   0.073264   0.027845
     77       0.055045   0.045899   0.070546   0.019894  -0.063125  -0.043326
     78       0.088669   0.151197   0.027653  -0.102962   0.116237  -0.055978
     79      -0.057647  -0.006100  -0.045873  -0.091854   0.104861  -0.043089
     80       0.083163   0.036802  -0.016059   0.058632  -0.086335   0.031055
     81       0.088684   0.152423   0.030680  -0.106415   0.122609  -0.062300
     82      -0.040480  -0.005420  -0.163523   0.019580   0.009519   0.023655
     83       0.069182   0.086164  -0.024880  -0.090427  -0.014060   0.055597
     84       0.085052   0.136773   0.075423  -0.086702   0.121918  -0.097802
     85      -0.047777  -0.013152  -0.127050   0.039351   0.006434  -0.011829
     86       0.074815   0.093023  -0.054889  -0.106361  -0.011707   0.084276
     87       0.094502   0.151198  -0.005037  -0.068711   0.088847  -0.039607
     88      -0.034442  -0.006077  -0.203438   0.060736  -0.027569   0.048681
     89       0.061341   0.094964  -0.003539  -0.124725   0.014410   0.037361
     90       0.079128   0.174616   0.056365  -0.217207   0.205729  -0.074021
     91      -0.028105   0.005551  -0.228572   0.002778   0.003175   0.082098
     92       0.076556   0.096317  -0.065134  -0.115629  -0.008409   0.093704
     93       0.071837   0.173141   0.073331  -0.244011   0.229577  -0.085472
     94      -0.035060   0.003466  -0.213437  -0.023273   0.025894   0.072486
     95       0.083839   0.088054  -0.099534  -0.080921  -0.043144   0.122230
     96       0.074527   0.173505   0.068428  -0.234260   0.221047  -0.082067
     97      -0.020007   0.007376  -0.249713   0.033335  -0.024144   0.096141
     98       0.079231   0.115753  -0.086406  -0.178038   0.030133   0.115881
     99       0.083082   0.190082   0.043481  -0.246992   0.223702  -0.063486
    100      -0.021358   0.012099  -0.267509  -0.012389   0.003011   0.117222
    101       0.071667   0.091246  -0.037395  -0.104042  -0.008847   0.068760
    102       0.196507   0.046279  -0.057993   0.003784  -0.305878   0.199684
    103       0.135316  -0.198839   0.037347  -0.269018  -0.156355   0.136219
    104       0.359126  -0.298784  -0.074553   0.122871   0.223553  -0.064520
    105      -0.015662  -0.107371   0.248520   0.036406   0.018514   0.061691
    106       0.065891   0.018056   0.235479   0.070739   0.040943   0.014435
    107      -0.060983   0.101670  -0.090541   0.077302  -0.122429  -0.240150
                 12         13         14         15         16         17    
      0       0.048651   0.017097  -0.007787   0.017903   0.118921   0.025344
      1       0.098375   0.017853   0.019016   0.000951   0.008664  -0.010265
      2       0.023515  -0.030893   0.012909   0.009010   0.021088  -0.122863
      3      -0.077505   0.052319  -0.019140   0.007883   0.056434   0.018364
      4       0.140603   0.005433   0.022759   0.003785   0.026127  -0.007380
      5       0.018840  -0.250959   0.041051   0.000303   0.005597  -0.091134
      6      -0.166941   0.035230  -0.018941  -0.004367  -0.015230  -0.010657
      7       0.055195  -0.003729   0.020624  -0.007681  -0.038101   0.004391
      8      -0.019098  -0.233151   0.030761  -0.003484  -0.004893   0.035197
      9      -0.132417  -0.020093  -0.008891  -0.002905   0.000138  -0.028516
     10      -0.072613   0.001229   0.015430  -0.023706  -0.130546   0.012555
     11      -0.053878   0.012952  -0.009080   0.003983   0.007093   0.108403
     12      -0.008578  -0.056313   0.001282   0.007873   0.070781  -0.005559
     13      -0.116225   0.014091   0.012057  -0.027602  -0.155835   0.004397
     14      -0.051626   0.234991  -0.035386   0.015073   0.024664   0.007883
     15       0.082198  -0.037931   0.001494   0.019400   0.137422   0.021829
     16      -0.030784   0.022722   0.014796  -0.016056  -0.090329  -0.006804
     17      -0.014485   0.212047  -0.024089   0.017443   0.033108  -0.111507
     18       0.136673   0.034690  -0.003295   0.018840   0.096741   0.006703
     19       0.180987   0.025410   0.016935   0.004454   0.013426  -0.002830
     20       0.062802  -0.056257   0.010722   0.002138   0.015464  -0.034281
     21      -0.101697   0.092349  -0.026225   0.007491   0.046480   0.027399
     22       0.237682   0.005254   0.027922   0.012765   0.081389  -0.010809
     23       0.043196  -0.424016   0.067493  -0.005141  -0.002022  -0.127448
     24       0.175160  -0.064410   0.007492   0.031904   0.214857   0.032260
     25      -0.061668   0.032003   0.012643  -0.020075  -0.115543  -0.010451
     26      -0.012318   0.369055  -0.044131   0.025534   0.051909  -0.162923
     27      -0.198361  -0.033539  -0.008373  -0.010859  -0.046863  -0.055198
     28      -0.135740  -0.005178   0.013211  -0.031185  -0.171681   0.023072
     29      -0.080769   0.030428  -0.018469   0.001141   0.000817   0.224146
     30      -0.054320  -0.049042   0.008544   0.175601  -0.049542  -0.111497
     31       0.042281  -0.038264  -0.004156  -0.132584   0.040506   0.071539
     32       0.043501   0.023264   0.010812   0.006420   0.024291  -0.007083
     33       0.220754   0.040210   0.002071   0.007007  -0.007248  -0.025191
     34       0.163681   0.025032   0.017290   0.006425   0.034107   0.003606
     35       0.072107  -0.030010  -0.000779  -0.012614  -0.019070   0.133234
     36       0.005352   0.022435  -0.016892  -0.062524  -0.341746   0.010458
     37      -0.148629  -0.034830  -0.197661   0.070638   0.263209  -0.006627
     38       0.056246  -0.059435  -0.178758   0.010179  -0.105958   0.049289
     39      -0.154439  -0.000460  -0.076084  -0.063866  -0.369776   0.038461
     40      -0.212253  -0.047619  -0.245766   0.075137   0.238039  -0.005007
     41       0.067122  -0.077878  -0.305461   0.039232  -0.162988   0.016145
     42      -0.065310   0.007886   0.125309   0.039533  -0.046146  -0.035532
     43      -0.023897  -0.014724   0.014849  -0.021999   0.065268   0.004957
     44      -0.106742  -0.005301   0.187736  -0.154182   0.039678  -0.027671
     45      -0.076719  -0.006177   0.077657  -0.011092   0.031556   0.055997
     46      -0.020249  -0.029998   0.076317  -0.121668   0.005758  -0.070860
     47      -0.112730  -0.005999   0.178152  -0.141153   0.048230  -0.025916
     48       0.107482   0.043531  -0.004327   0.019005   0.112682   0.015898
     49       0.258156   0.031929   0.020110  -0.003499  -0.059063  -0.001624
     50       0.079338  -0.107283   0.012921   0.007250   0.031031  -0.077589
     51      -0.054730  -0.049547   0.013915   0.167606  -0.047923  -0.102019
     52       0.067385  -0.055967  -0.022557  -0.099604   0.024351   0.065702
     53       0.091551   0.022603  -0.038108   0.051015  -0.003203  -0.035875
     54      -0.258730   0.061780  -0.025099  -0.015308  -0.084229  -0.021020
     55       0.086917  -0.013040   0.022835  -0.003918  -0.014411   0.007978
     56      -0.022083  -0.392702   0.050637  -0.011918  -0.022451   0.084551
     57       0.016350  -0.095685   0.008407   0.008729   0.081495  -0.012162
     58      -0.213117   0.016468   0.006690  -0.037978  -0.216167   0.007459
     59      -0.076534   0.410437  -0.062962   0.020915   0.032426   0.034877
     60      -0.057599  -0.003503   0.073789  -0.033818   0.022632   0.040940
     61      -0.019391  -0.020937   0.046368  -0.069578   0.034030  -0.028772
     62      -0.110738  -0.000181   0.158979  -0.109400   0.064983  -0.001872
     63      -0.033607  -0.008495   0.021950  -0.121976   0.059480   0.102932
     64      -0.061141  -0.010690   0.145411   0.084813  -0.030786  -0.138708
     65      -0.089893   0.020752   0.171385  -0.022089   0.035048  -0.043498
     66      -0.019872  -0.021897  -0.061087  -0.223894   0.117743   0.294475
     67      -0.079389  -0.023431   0.189651   0.031473  -0.044187  -0.322628
     68      -0.076723   0.030337   0.140205   0.019794   0.043045   0.084737
     69      -0.057235  -0.003843   0.072468  -0.049205   0.031089   0.058903
     70      -0.090409  -0.005352   0.214266   0.172093  -0.069839  -0.223064
     71      -0.096163   0.018635   0.234767  -0.033476  -0.004234  -0.321533
     72       0.013777  -0.002221  -0.013149  -0.138975   0.037358  -0.038633
     73      -0.035191   0.009600   0.082233   0.177394  -0.024257   0.108424
     74      -0.066314   0.035281   0.124343   0.037527   0.037168   0.104101
     75       0.029500   0.009267  -0.070750  -0.210741   0.011223  -0.169987
     76      -0.012461   0.021330   0.034809   0.237418  -0.021808   0.261754
     77      -0.084282   0.025548   0.162779  -0.002480   0.036768  -0.001250
     78       0.026168  -0.006436   0.000644  -0.089800   0.033575  -0.029451
     79      -0.020684   0.004887   0.097966   0.239933  -0.025924   0.138079
     80      -0.070095   0.037790   0.121433   0.112276   0.063315   0.334316
     81       0.025168  -0.005414   0.005534  -0.065413   0.028263  -0.016905
     82      -0.050567   0.016911   0.042523   0.053657  -0.012703   0.066426
     83      -0.007754   0.057241  -0.003127   0.047981  -0.012428   0.041463
     84       0.008541  -0.017946   0.056093  -0.072151   0.063659   0.008725
     85      -0.074608   0.010826   0.133458   0.155501  -0.025523   0.142635
     86       0.011159   0.062574  -0.074215  -0.027113  -0.005679  -0.017314
     87       0.015483  -0.002847  -0.011219  -0.140591   0.040499  -0.039614
     88      -0.061522   0.020222   0.026722  -0.021463  -0.002929   0.044264
     89      -0.004200   0.060955   0.039709   0.204825  -0.066080   0.099897
     90       0.067941   0.004645  -0.019948   0.140866  -0.054580   0.007381
     91      -0.017775   0.026358  -0.101539  -0.132080   0.010131  -0.067938
     92       0.019366   0.064739  -0.103345  -0.050147  -0.007975  -0.046073
     93       0.074913   0.005650  -0.015706   0.201413  -0.071065   0.014763
     94      -0.010139   0.027448  -0.103206  -0.085002  -0.002662  -0.068992
     95       0.016671   0.064641  -0.162057  -0.232106   0.043733  -0.130884
     96       0.072034   0.005031  -0.016621   0.177854  -0.063737   0.011333
     97      -0.025338   0.025613  -0.106993  -0.197542   0.026472  -0.074591
     98       0.056737   0.074595  -0.181527  -0.016979  -0.048358  -0.088618
     99       0.085600   0.010287  -0.044991   0.191241  -0.088204   0.013739
    100       0.004647   0.032240  -0.195249  -0.245534   0.022590  -0.158563
    101       0.003066   0.060391  -0.036910   0.027679  -0.015633   0.017115
    102      -0.049658  -0.055521   0.011668   0.170179  -0.048973  -0.099441
    103       0.060562  -0.046144  -0.019097  -0.104806   0.026504   0.063217
    104       0.109603   0.038114  -0.037089   0.048915  -0.007230  -0.020941
    105      -0.060390   0.014131  -0.032197  -0.061268  -0.339045   0.026642
    106      -0.244420  -0.052008  -0.257683   0.072470   0.228201  -0.001602
    107       0.066531  -0.071826  -0.270139   0.022325  -0.144810   0.008669
                 18         19         20         21         22         23    
      0      -0.051571  -0.000045  -0.004460   0.016094  -0.156832   0.002581
      1       0.005939   0.005391  -0.003226   0.015390  -0.138788   0.002404
      2       0.171240   0.013511  -0.002287   0.008840  -0.030077   0.003011
      3      -0.034955  -0.000624  -0.000640   0.006350  -0.061924   0.021162
      4       0.000134   0.005541  -0.004350   0.018830  -0.172376  -0.004886
      5       0.131735   0.014890  -0.004283   0.009033  -0.009377  -0.081975
      6       0.016055   0.000461   0.003875  -0.006801   0.074226   0.013896
      7      -0.009273   0.004246  -0.000471   0.006159  -0.062640  -0.005948
      8      -0.049905   0.007252  -0.003231  -0.000241   0.019081  -0.066759
      9       0.040913   0.002425   0.001924  -0.001592   0.049077  -0.028948
     10      -0.010275   0.002652   0.005268  -0.011126   0.082949   0.007032
     11      -0.161046  -0.000272   0.000709  -0.010283   0.016670   0.115165
     12       0.000377   0.001345  -0.002325   0.008644  -0.068865  -0.001958
     13       0.004037   0.003037   0.006692  -0.014466   0.120811  -0.002127
     14      -0.023189   0.006404   0.000551   0.001932  -0.023985   0.013370
     15      -0.047299   0.000051  -0.005932   0.019027  -0.189737   0.031701
     16       0.011762   0.004488   0.002380   0.000045  -0.006796  -0.009338
     17       0.147617   0.014437  -0.002254   0.015540  -0.054343  -0.112660
     18      -0.019619  -0.000043  -0.003284  -0.002744   0.046454  -0.063329
     19       0.000003   0.001867  -0.000803  -0.004778   0.046945   0.013969
     20       0.053235  -0.001351   0.005475  -0.010135   0.022897   0.264445
     21      -0.047471  -0.001855   0.000002   0.003986  -0.043346   0.030737
     22      -0.002087   0.006815  -0.007530   0.029858  -0.276465  -0.005079
     23       0.187708   0.018699  -0.005459   0.010226   0.000875  -0.123155
     24      -0.071812   0.000521  -0.011021   0.033382  -0.327075   0.049293
     25       0.020065   0.004358   0.004081  -0.004703   0.039090  -0.015412
     26       0.216200   0.017154  -0.002473   0.023873  -0.094102  -0.170385
     27       0.084854   0.004174   0.004064  -0.006615   0.120627  -0.066944
     28      -0.020493   0.001549   0.007821  -0.019318   0.150064   0.019108
     29      -0.326663  -0.009297   0.003449  -0.024409   0.042670   0.269529
     30      -0.077814  -0.032741  -0.031770  -0.206566  -0.036971   0.000216
     31       0.067045   0.017402   0.009840   0.062645   0.018059   0.005337
     32      -0.011946  -0.006575  -0.070497  -0.022780   0.001550  -0.000641
     33       0.049176  -0.003681   0.004687  -0.043854   0.394316   0.013012
     34      -0.014701   0.002878  -0.002588   0.004755  -0.028796  -0.003092
     35      -0.196524  -0.009310   0.001637  -0.004070   0.089424  -0.124305
     36       0.035293  -0.004895  -0.005402  -0.002748  -0.072470   0.011955
     37      -0.014935   0.012393   0.002978   0.012867   0.211175  -0.008601
     38      -0.055487  -0.004305   0.025977   0.048801  -0.014615  -0.030544
     39       0.016192  -0.010082  -0.002445  -0.002445  -0.280273   0.003583
     40      -0.001539   0.011633   0.018331   0.017063   0.119382  -0.006347
     41       0.031742  -0.000366   0.093670   0.056665  -0.068335  -0.007905
     42      -0.043030   0.024875   0.182238   0.308886   0.040202   0.008889
     43       0.014097  -0.018707   0.041057  -0.216565  -0.018753  -0.014005
     44      -0.020697  -0.015866  -0.310301  -0.012127  -0.000406   0.012188
     45       0.045727   0.003119  -0.121779   0.342016   0.086868   0.015978
     46      -0.047747  -0.015778  -0.162064  -0.313354  -0.072063  -0.004901
     47      -0.018770  -0.017393  -0.309956  -0.008187   0.005381   0.011344
     48      -0.042662   0.003756  -0.007554   0.011199  -0.039950  -0.187775
     49       0.015709  -0.003987   0.005077  -0.036478   0.324724   0.039697
     50       0.142222  -0.010660   0.020603  -0.028860   0.012256   0.824425
     51      -0.074157  -0.030125  -0.034131  -0.169169  -0.032033  -0.005570
     52       0.070948   0.028572   0.043239   0.208255   0.041403   0.035226
     53      -0.017304  -0.000261   0.009502  -0.046103   0.032769   0.073299
     54       0.038638   0.000109   0.008549  -0.020016   0.193102   0.023214
     55      -0.017098   0.004355  -0.002103   0.010754  -0.104265  -0.009114
     56      -0.115985   0.005630  -0.004025  -0.004046   0.048643  -0.116261
     57       0.009290   0.002008  -0.003558   0.011561  -0.089959  -0.009059
     58       0.007004   0.002349   0.010621  -0.026422   0.235379  -0.002475
     59      -0.066274   0.004103   0.002523  -0.000081  -0.034421   0.045465
     60       0.032485   0.014926   0.013620   0.174557   0.036270   0.004897
     61      -0.013479  -0.016712  -0.049536  -0.245014  -0.040282  -0.008197
     62       0.000601  -0.017025  -0.224969   0.016156   0.019798   0.007931
     63       0.093164   0.017477  -0.027857  -0.009900   0.002001  -0.001253
     64      -0.120281  -0.021044   0.029154   0.084799   0.021172   0.005344
     65      -0.043307   0.000380   0.118073   0.025715   0.008203  -0.000748
     66       0.270712  -0.029936  -0.278779  -0.239664  -0.038034  -0.009678
     67      -0.280575   0.040817   0.024610   0.178897   0.046634   0.016562
     68       0.068100  -0.042714   0.128774  -0.033915  -0.008413  -0.008519
     69       0.048525   0.015797   0.006090   0.171278   0.036629   0.005090
     70      -0.201570  -0.012929   0.090176   0.315006   0.065411   0.014628
     71      -0.290298   0.092980   0.302993   0.166036   0.037503   0.010695
     72      -0.029951   0.069022   0.120170  -0.077341  -0.014186  -0.000112
     73       0.093485  -0.106620   0.012651   0.004142  -0.005394  -0.006158
     74       0.084244  -0.049643   0.133633  -0.042120  -0.012805  -0.009338
     75      -0.163124   0.312873   0.107787  -0.082352  -0.009919   0.005814
     76       0.229839  -0.187603  -0.016490  -0.048015  -0.023112  -0.010002
     77      -0.008150  -0.007356   0.153154  -0.002531   0.000299  -0.006892
     78      -0.011330  -0.049195   0.137233  -0.069652  -0.016832   0.002648
     79       0.132723  -0.260489   0.030992   0.008276  -0.009928  -0.002997
     80       0.294699  -0.228282   0.081937  -0.075257  -0.025446  -0.014862
     81      -0.001451  -0.075879   0.113840  -0.048536  -0.014098  -0.003830
     82       0.039554   0.148066   0.005206  -0.039765  -0.003698   0.000745
     83       0.015749   0.085814   0.016769  -0.038738  -0.008537  -0.005041
     84       0.049791  -0.370269   0.212874  -0.026970  -0.020743  -0.013718
     85       0.083707   0.318838   0.034339  -0.086443  -0.010832   0.003974
     86      -0.021119  -0.018711  -0.013409  -0.004567  -0.002397  -0.006547
     87      -0.027787   0.043519   0.138331  -0.086988  -0.017655  -0.000491
     88       0.009219   0.315055   0.027120  -0.087919  -0.007688   0.005505
     89       0.028787   0.376319  -0.081095  -0.050788  -0.002748   0.003543
     90      -0.003812   0.016138  -0.150569   0.070593   0.017352   0.003208
     91      -0.045895  -0.066719  -0.047851   0.028372   0.009553  -0.001577
     92      -0.042330  -0.046556  -0.053028   0.022062   0.004125  -0.005875
     93       0.002136  -0.031029  -0.206326   0.124645   0.027277   0.000978
     94      -0.043889  -0.142075  -0.097912   0.087699   0.019844  -0.004996
     95      -0.083910  -0.270419   0.051469   0.023366  -0.002621  -0.014938
     96       0.000638  -0.027035  -0.181548   0.107358   0.023574   0.000960
     97      -0.053458   0.009361   0.007464  -0.036542  -0.001522   0.002364
     98      -0.084543  -0.023602  -0.251946   0.112540   0.030263   0.001862
     99      -0.016068   0.171934  -0.273539   0.080160   0.028316   0.013384
    100      -0.103312  -0.223382  -0.096865   0.087960   0.020773  -0.003406
    101      -0.001771   0.058031  -0.014716  -0.020033  -0.004127  -0.004870
    102      -0.066596  -0.025308  -0.026173  -0.110451  -0.021475   0.008613
    103       0.059705   0.021658   0.031622   0.122802   0.025203   0.011215
    104      -0.038435  -0.000780   0.012405  -0.026770  -0.007217  -0.024816
    105       0.015947  -0.006566  -0.001303   0.003434  -0.137437   0.001861
    106      -0.001483   0.010192   0.012431   0.012144   0.071792  -0.004010
    107       0.030860  -0.003466   0.037126   0.023712  -0.045517   0.009846
                 24         25         26         27         28         29    
      0       0.000676   0.000440   0.006047  -0.001666  -0.105245  -0.036015
      1       0.000172   0.000465  -0.001379   0.001447   0.024426   0.010583
      2       0.000107   0.001040  -0.026965   0.007180   0.003313  -0.020271
      3       0.000133   0.000121  -0.051377   0.001266   0.055639   0.021730
      4       0.000275   0.000564   0.018538   0.000722  -0.058079  -0.021507
      5      -0.000121   0.000957   0.217027  -0.001570   0.008658   0.010138
      6       0.001416   0.001275   0.044299   0.000466   0.110329   0.042017
      7       0.001118   0.000560  -0.015208  -0.000451  -0.049510  -0.018486
      8      -0.000560  -0.001791  -0.182467  -0.003631   0.015882   0.015654
      9       0.001323   0.000728   0.008282  -0.001665   0.112079   0.049206
     10       0.001891   0.000522  -0.003363  -0.000639  -0.108261  -0.046276
     11      -0.000334   0.001021  -0.030891   0.005547   0.058658   0.008340
     12       0.000843   0.000999  -0.051696   0.000120  -0.011218  -0.005837
     13       0.002085   0.000419   0.017411  -0.001269  -0.074385  -0.030252
     14       0.001822   0.000634   0.216373  -0.002323  -0.010896   0.005938
     15       0.000190   0.001397   0.043711   0.000594  -0.073321  -0.026744
     16       0.001411   0.000074  -0.015749  -0.000274  -0.104064  -0.041316
     17       0.001648  -0.002228  -0.184797  -0.001364  -0.013599  -0.005033
     18       0.000189  -0.000347   0.008710  -0.002267  -0.053320  -0.019430
     19      -0.000739   0.000481  -0.001354   0.000887   0.166085   0.066148
     20      -0.000386   0.001812  -0.038867   0.003586  -0.021558  -0.021725
     21      -0.000574  -0.000487  -0.117933   0.002567   0.078467   0.027182
     22       0.000467   0.001541   0.039203   0.000745  -0.186518  -0.072780
     23       0.000455   0.001472   0.488880  -0.006091   0.005208   0.024518
     24      -0.000888   0.002044   0.101571   0.002691  -0.012967  -0.000299
     25       0.001781  -0.000122  -0.035629  -0.000989  -0.120870  -0.048489
     26       0.002345  -0.004738  -0.418047  -0.005547  -0.017066   0.004515
[...]
     75       0.000097  -0.000886  -0.000218   0.000510   0.000268  -0.000362
     76      -0.000086  -0.002332   0.001464  -0.002422  -0.000810   0.000070
     77      -0.000099  -0.001028   0.003419  -0.005148  -0.001498  -0.000113
     78      -0.000025   0.001688  -0.000383  -0.002641  -0.000823  -0.001068
     79       0.000057  -0.001189  -0.000070   0.003252   0.000766   0.001435
     80       0.000140   0.000701  -0.000562  -0.000443  -0.000178  -0.000760
     81       0.000003  -0.000089  -0.000116   0.000065   0.000020   0.000016
     82      -0.000002   0.000080  -0.000022  -0.000008   0.000016  -0.000012
     83      -0.000001  -0.000053  -0.000165   0.000106  -0.000004  -0.000039
     84       0.000039   0.000173   0.000458  -0.000196  -0.000257   0.000107
     85       0.000025   0.000558   0.001625  -0.000552  -0.000291   0.000325
     86       0.000046   0.000782   0.001725  -0.000513  -0.000233   0.000433
     87      -0.000078   0.001112   0.001170  -0.000233  -0.000107  -0.000494
     88       0.000121  -0.000976  -0.000947   0.000143  -0.000070   0.000093
     89      -0.000010   0.000132   0.000147   0.000016  -0.000005  -0.000006
     90      -0.000091  -0.000130  -0.000026   0.000002   0.000027   0.000035
     91       0.000117   0.000113  -0.000047   0.000006   0.000024  -0.000021
     92      -0.000003  -0.000034   0.000009   0.000009   0.000022  -0.000015
     93       0.001776   0.001452  -0.000443  -0.000135  -0.000154  -0.000256
     94      -0.001198  -0.001248   0.000320   0.000257   0.000155   0.000282
     95       0.000173   0.000299  -0.000020  -0.000065  -0.000021  -0.000103
     96      -0.000497   0.000137   0.001133  -0.000442  -0.000231  -0.000151
     97      -0.000107   0.000047   0.000733  -0.000332  -0.000176  -0.000073
     98      -0.000022   0.000057  -0.000072   0.000102   0.000014   0.000057
     99      -0.000002   0.000009  -0.000041   0.000079   0.000033  -0.000043
    100      -0.000010  -0.000158   0.000035  -0.000175  -0.000183   0.000018
    101      -0.000112   0.000109   0.000180  -0.000465  -0.000323   0.000069
    102      -0.000062  -0.000204  -0.001296  -0.000019  -0.003403  -0.051079
    103       0.000041   0.000002   0.001125   0.000232  -0.002212  -0.032866
    104      -0.000039  -0.000179  -0.000191  -0.000148   0.000021   0.000590
    105       0.001394  -0.048072   0.002824   0.000064  -0.019246   0.001375
    106      -0.001033   0.036160  -0.003432   0.000703  -0.056672   0.003759
    107       0.000473  -0.016458   0.001305  -0.000170   0.005455  -0.000345


-----------
IR SPECTRUM  
-----------

 Mode    freq (cm**-1)   T**2         TX         TY         TZ
-------------------------------------------------------------------
   6:        23.53    0.000000  (  0.000000   0.000000   0.000000)
   7:        44.36    0.000000  (  0.000000   0.000000   0.000000)
   8:        56.43    0.000000  (  0.000000   0.000000   0.000000)
   9:        62.25    0.000000  (  0.000000   0.000000   0.000000)
  10:        72.76    0.000000  (  0.000000   0.000000   0.000000)
  11:        81.22    0.000000  (  0.000000   0.000000   0.000000)
  12:        92.73    0.000000  (  0.000000   0.000000   0.000000)
  13:       110.67    0.000000  (  0.000000   0.000000   0.000000)
  14:       123.65    0.000000  (  0.000000   0.000000   0.000000)
  15:       149.83    0.000000  (  0.000000   0.000000   0.000000)
  16:       155.72    0.000000  (  0.000000   0.000000   0.000000)
  17:       183.68    0.000000  (  0.000000   0.000000   0.000000)
  18:       184.25    0.000000  (  0.000000   0.000000   0.000000)
  19:       193.46    0.000000  (  0.000000   0.000000   0.000000)
  20:       228.30    0.000000  (  0.000000   0.000000   0.000000)
  21:       259.39    0.000000  (  0.000000   0.000000   0.000000)
  22:       272.71    0.000000  (  0.000000   0.000000   0.000000)
  23:       304.42    0.000000  (  0.000000   0.000000   0.000000)
  24:       356.08    0.000000  (  0.000000   0.000000   0.000000)
  25:       389.90    0.000000  (  0.000000   0.000000   0.000000)
  26:       400.43    0.000000  (  0.000000   0.000000   0.000000)
  27:       426.62    0.000000  (  0.000000   0.000000   0.000000)
  28:       439.47    0.000000  (  0.000000   0.000000   0.000000)
  29:       444.77    0.000000  (  0.000000   0.000000   0.000000)
  30:       448.49    0.000000  (  0.000000   0.000000   0.000000)
  31:       466.77    0.000000  (  0.000000   0.000000   0.000000)
  32:       493.07    0.000000  (  0.000000   0.000000   0.000000)
  33:       578.50    0.000000  (  0.000000   0.000000   0.000000)
  34:       587.60    0.000000  (  0.000000   0.000000   0.000000)
  35:       614.26    0.000000  (  0.000000   0.000000   0.000000)
  36:       635.24    0.000000  (  0.000000   0.000000   0.000000)
  37:       670.43    0.000000  (  0.000000   0.000000   0.000000)
  38:       749.37    0.000000  (  0.000000   0.000000   0.000000)
  39:       779.33    0.000000  (  0.000000   0.000000   0.000000)
  40:       807.61    0.000000  (  0.000000   0.000000   0.000000)
  41:       820.62    0.000000  (  0.000000   0.000000   0.000000)
  42:       832.32    0.000000  (  0.000000   0.000000   0.000000)
  43:       855.07    0.000000  (  0.000000   0.000000   0.000000)
  44:       900.31    0.000000  (  0.000000   0.000000   0.000000)
  45:       926.06    0.000000  (  0.000000   0.000000   0.000000)
  46:       935.96    0.000000  (  0.000000   0.000000   0.000000)
  47:       945.51    0.000000  (  0.000000   0.000000   0.000000)
  48:       955.48    0.000000  (  0.000000   0.000000   0.000000)
  49:       959.80    0.000000  (  0.000000   0.000000   0.000000)
  50:       960.57    0.000000  (  0.000000   0.000000   0.000000)
  51:       973.35    0.000000  (  0.000000   0.000000   0.000000)
  52:       986.09    0.000000  (  0.000000   0.000000   0.000000)
  53:      1027.09    0.000000  (  0.000000   0.000000   0.000000)
  54:      1050.95    0.000000  (  0.000000   0.000000   0.000000)
  55:      1063.13    0.000000  (  0.000000   0.000000   0.000000)
  56:      1069.08    0.000000  (  0.000000   0.000000   0.000000)
  57:      1106.79    0.000000  (  0.000000   0.000000   0.000000)
  58:      1109.23    0.000000  (  0.000000   0.000000   0.000000)
  59:      1154.96    0.000000  (  0.000000   0.000000   0.000000)
  60:      1173.79    0.000000  (  0.000000   0.000000   0.000000)
  61:      1186.25    0.000000  (  0.000000   0.000000   0.000000)
  62:      1201.95    0.000000  (  0.000000   0.000000   0.000000)
  63:      1210.06    0.000000  (  0.000000   0.000000   0.000000)
  64:      1247.51    0.000000  (  0.000000   0.000000   0.000000)
  65:      1256.42    0.000000  (  0.000000   0.000000   0.000000)
  66:      1272.96    0.000000  (  0.000000   0.000000   0.000000)
  67:      1282.98    0.000000  (  0.000000   0.000000   0.000000)
  68:      1284.94    0.000000  (  0.000000   0.000000   0.000000)
  69:      1300.38    0.000000  (  0.000000   0.000000   0.000000)
  70:      1356.71    0.000000  (  0.000000   0.000000   0.000000)
  71:      1357.26    0.000000  (  0.000000   0.000000   0.000000)
  72:      1380.53    0.000000  (  0.000000   0.000000   0.000000)
  73:      1411.66    0.000000  (  0.000000   0.000000   0.000000)
  74:      1431.81    0.000000  (  0.000000   0.000000   0.000000)
  75:      1433.65    0.000000  (  0.000000   0.000000   0.000000)
  76:      1494.31    0.000000  (  0.000000   0.000000   0.000000)
  77:      1510.21    0.000000  (  0.000000   0.000000   0.000000)
  78:      1513.09    0.000000  (  0.000000   0.000000   0.000000)
  79:      1514.60    0.000000  (  0.000000   0.000000   0.000000)
  80:      1517.85    0.000000  (  0.000000   0.000000   0.000000)
  81:      1521.35    0.000000  (  0.000000   0.000000   0.000000)
  82:      1531.33    0.000000  (  0.000000   0.000000   0.000000)
  83:      1552.42    0.000000  (  0.000000   0.000000   0.000000)
  84:      1572.15    0.000000  (  0.000000   0.000000   0.000000)
  85:      1575.50    0.000000  (  0.000000   0.000000   0.000000)
  86:      1583.31    0.000000  (  0.000000   0.000000   0.000000)
  87:      2660.31    0.000000  (  0.000000   0.000000   0.000000)
  88:      2796.19    0.000000  (  0.000000   0.000000   0.000000)
  89:      2816.28    0.000000  (  0.000000   0.000000   0.000000)
  90:      2870.13    0.000000  (  0.000000   0.000000   0.000000)
  91:      2882.78    0.000000  (  0.000000   0.000000   0.000000)
  92:      2895.08    0.000000  (  0.000000   0.000000   0.000000)
  93:      2901.99    0.000000  (  0.000000   0.000000   0.000000)
  94:      2906.58    0.000000  (  0.000000   0.000000   0.000000)
  95:      2911.52    0.000000  (  0.000000   0.000000   0.000000)
  96:      2917.33    0.000000  (  0.000000   0.000000   0.000000)
  97:      2929.60    0.000000  (  0.000000   0.000000   0.000000)
  98:      2990.15    0.000000  (  0.000000   0.000000   0.000000)
  99:      2993.01    0.000000  (  0.000000   0.000000   0.000000)
 100:      2998.35    0.000000  (  0.000000   0.000000   0.000000)
 101:      3004.42    0.000000  (  0.000000   0.000000   0.000000)
 102:      3009.16    0.000000  (  0.000000   0.000000   0.000000)
 103:      3052.46    0.000000  (  0.000000   0.000000   0.000000)
 104:      3204.97    0.000000  (  0.000000   0.000000   0.000000)
 105:      3302.18    0.000000  (  0.000000   0.000000   0.000000)
 106:      3437.36    0.000000  (  0.000000   0.000000   0.000000)
 107:      3440.14    0.000000  (  0.000000   0.000000   0.000000)

The first frequency considered to be a vibration is 6
The total number of vibrations considered is 102


--------------------------
THERMOCHEMISTRY AT 298.15K
--------------------------

Temperature         ... 298.15 K
Pressure            ... 1.00 atm
Total Mass          ... 215.29 AMU

Throughout the following assumptions are being made:
  (1) The electronic state is orbitally nondegenerate
  (2) There are no thermally accessible electronically excited states
  (3) Hindered rotations indicated by low frequency modes are not
      treated as such but are treated as vibrations and this may
      cause some error
  (4) All equations used are the standard statistical mechanics
      equations for an ideal gas
  (5) All vibrations are strictly harmonic

freq.      23.53  E(vib)   ...       0.56 
freq.      44.36  E(vib)   ...       0.53 
freq.      56.43  E(vib)   ...       0.52 
freq.      62.25  E(vib)   ...       0.51 
freq.      72.76  E(vib)   ...       0.49 
freq.      81.22  E(vib)   ...       0.48 
freq.      92.73  E(vib)   ...       0.47 
freq.     110.67  E(vib)   ...       0.45 
freq.     123.65  E(vib)   ...       0.43 
freq.     149.83  E(vib)   ...       0.40 
freq.     155.72  E(vib)   ...       0.40 
freq.     183.68  E(vib)   ...       0.37 
freq.     184.25  E(vib)   ...       0.37 
freq.     193.46  E(vib)   ...       0.36 
freq.     228.30  E(vib)   ...       0.32 
freq.     259.39  E(vib)   ...       0.30 
freq.     272.71  E(vib)   ...       0.29 
freq.     304.42  E(vib)   ...       0.26 
freq.     356.08  E(vib)   ...       0.22 
freq.     389.90  E(vib)   ...       0.20 
freq.     400.43  E(vib)   ...       0.19 
freq.     426.62  E(vib)   ...       0.18 
freq.     439.47  E(vib)   ...       0.17 
freq.     444.77  E(vib)   ...       0.17 
freq.     448.49  E(vib)   ...       0.17 
freq.     466.77  E(vib)   ...       0.16 
freq.     493.07  E(vib)   ...       0.14 
freq.     578.50  E(vib)   ...       0.11 
freq.     587.60  E(vib)   ...       0.10 
freq.     614.26  E(vib)   ...       0.10 
freq.     635.24  E(vib)   ...       0.09 
freq.     670.43  E(vib)   ...       0.08 
freq.     749.37  E(vib)   ...       0.06 
freq.     779.33  E(vib)   ...       0.05 
freq.     807.61  E(vib)   ...       0.05 
freq.     820.62  E(vib)   ...       0.05 
freq.     832.32  E(vib)   ...       0.04 
freq.     855.07  E(vib)   ...       0.04 
freq.     900.31  E(vib)   ...       0.03 
freq.     926.06  E(vib)   ...       0.03 
freq.     935.96  E(vib)   ...       0.03 
freq.     945.51  E(vib)   ...       0.03 
freq.     955.48  E(vib)   ...       0.03 
freq.     959.80  E(vib)   ...       0.03 
freq.     960.57  E(vib)   ...       0.03 
freq.     973.35  E(vib)   ...       0.03 
freq.     986.09  E(vib)   ...       0.02 
freq.    1027.09  E(vib)   ...       0.02 
freq.    1050.95  E(vib)   ...       0.02 
freq.    1063.13  E(vib)   ...       0.02 
freq.    1069.08  E(vib)   ...       0.02 
freq.    1106.79  E(vib)   ...       0.02 
freq.    1109.23  E(vib)   ...       0.02 
freq.    1154.96  E(vib)   ...       0.01 
freq.    1173.79  E(vib)   ...       0.01 
freq.    1186.25  E(vib)   ...       0.01 
freq.    1201.95  E(vib)   ...       0.01 
freq.    1210.06  E(vib)   ...       0.01 
freq.    1247.51  E(vib)   ...       0.01 
freq.    1256.42  E(vib)   ...       0.01 
freq.    1272.96  E(vib)   ...       0.01 
freq.    1282.98  E(vib)   ...       0.01 
freq.    1284.94  E(vib)   ...       0.01 
freq.    1300.38  E(vib)   ...       0.01 
freq.    1356.71  E(vib)   ...       0.01 
freq.    1357.26  E(vib)   ...       0.01 
freq.    1380.53  E(vib)   ...       0.01 
freq.    1411.66  E(vib)   ...       0.00 
freq.    1431.81  E(vib)   ...       0.00 
freq.    1433.65  E(vib)   ...       0.00 
freq.    1494.31  E(vib)   ...       0.00 
freq.    1510.21  E(vib)   ...       0.00 
freq.    1513.09  E(vib)   ...       0.00 
freq.    1514.60  E(vib)   ...       0.00 
freq.    1517.85  E(vib)   ...       0.00 
freq.    1521.35  E(vib)   ...       0.00 
freq.    1531.33  E(vib)   ...       0.00 
freq.    1552.42  E(vib)   ...       0.00 
freq.    1572.15  E(vib)   ...       0.00 
freq.    1575.50  E(vib)   ...       0.00 
freq.    1583.31  E(vib)   ...       0.00 
freq.    2660.31  E(vib)   ...       0.00 
freq.    2796.19  E(vib)   ...       0.00 
freq.    2816.28  E(vib)   ...       0.00 
freq.    2870.13  E(vib)   ...       0.00 
freq.    2882.78  E(vib)   ...       0.00 
freq.    2895.08  E(vib)   ...       0.00 
freq.    2901.99  E(vib)   ...       0.00 
freq.    2906.58  E(vib)   ...       0.00 
freq.    2911.52  E(vib)   ...       0.00 
freq.    2917.33  E(vib)   ...       0.00 
freq.    2929.60  E(vib)   ...       0.00 
freq.    2990.15  E(vib)   ...       0.00 
freq.    2993.01  E(vib)   ...       0.00 
freq.    2998.35  E(vib)   ...       0.00 
freq.    3004.42  E(vib)   ...       0.00 
freq.    3009.16  E(vib)   ...       0.00 
freq.    3052.46  E(vib)   ...       0.00 
freq.    3204.97  E(vib)   ...       0.00 
freq.    3302.18  E(vib)   ...       0.00 
freq.    3437.36  E(vib)   ...       0.00 
freq.    3440.14  E(vib)   ...       0.00 

------------
INNER ENERGY
------------

The inner energy is: U= E(el) + E(ZPE) + E(vib) + E(rot) + E(trans)
    E(el)   - is the total energy from the electronic structure calculation
              = E(kin-el) + E(nuc-el) + E(el-el) + E(nuc-nuc)
    E(ZPE)  - the the zero temperature vibrational energy from the frequency calculation
    E(vib)  - the the finite temperature correction to E(ZPE) due to population
              of excited vibrational states
    E(rot)  - is the rotational thermal energy
    E(trans)- is the translational thermal energy

Summary of contributions to the inner energy U:
Electronic energy                ...    -49.34857307 Eh
Zero point energy                ...      0.29870122 Eh     187.44 kcal/mol
Thermal vibrational correction   ...      0.01656691 Eh      10.40 kcal/mol
Thermal rotational correction    ...      0.00141627 Eh       0.89 kcal/mol
Thermal translational correction ...      0.00141627 Eh       0.89 kcal/mol
-----------------------------------------------------------------------
Total thermal energy                    -49.03047240 Eh


Summary of corrections to the electronic energy:
(perhaps to be used in another calculation)
Total thermal correction                  0.01939945 Eh      12.17 kcal/mol
Non-thermal (ZPE) correction              0.29870122 Eh     187.44 kcal/mol
-----------------------------------------------------------------------
Total correction                          0.31810067 Eh     199.61 kcal/mol


--------
ENTHALPY
--------

The enthalpy is H = U + kB*T
                kB is Boltzmann's constant
Total free energy                 ...    -49.03047240 Eh 
Thermal Enthalpy correction       ...      0.00094421 Eh       0.59 kcal/mol
-----------------------------------------------------------------------
Total Enthalpy                    ...    -49.02952819 Eh


Note: Only C1 symmetry has been detected, increase convergence thresholds 
      if your molecule has a higher symmetry. Symmetry factor of 1.0 is   
      used for the rotational entropy correction. 
 

Note: Rotational entropy computed according to Herzberg 
Infrared and Raman Spectra, Chapter V,1, Van Nostrand Reinhold, 1945 
Point Group:  C1, Symmetry Number:   1  
Rotational constants in cm-1:     0.021873     0.008397     0.007113 

Vibrational entropy computed according to the QRRHO of S. Grimme
Chem.Eur.J. 2012 18 9955


-------
ENTROPY
-------

The entropy contributions are T*S = T*(S(el)+S(vib)+S(rot)+S(trans))
     S(el)   - electronic entropy
     S(vib)  - vibrational entropy
     S(rot)  - rotational entropy
     S(trans)- translational entropy
The entropies will be listed as mutliplied by the temperature to get
units of energy

Electronic entropy                ...      0.00000000 Eh      0.00 kcal/mol
Vibrational entropy               ...      0.02978302 Eh     18.69 kcal/mol
Rotational entropy                ...      0.01590678 Eh      9.98 kcal/mol
Translational entropy             ...      0.01995728 Eh     12.52 kcal/mol
-----------------------------------------------------------------------
Final entropy term                ...      0.06564708 Eh     41.19 kcal/mol

In case the symmetry of your molecule has not been determined correctly
or in case you have a reason to use a different symmetry number we print 
out the resulting rotational entropy values for sn=1,12 :
 --------------------------------------------------------
|  sn= 1 | S(rot)=       0.01590678 Eh      9.98 kcal/mol|
|  sn= 2 | S(rot)=       0.01525232 Eh      9.57 kcal/mol|
|  sn= 3 | S(rot)=       0.01486949 Eh      9.33 kcal/mol|
|  sn= 4 | S(rot)=       0.01459787 Eh      9.16 kcal/mol|
|  sn= 5 | S(rot)=       0.01438718 Eh      9.03 kcal/mol|
|  sn= 6 | S(rot)=       0.01421503 Eh      8.92 kcal/mol|
|  sn= 7 | S(rot)=       0.01406949 Eh      8.83 kcal/mol|
|  sn= 8 | S(rot)=       0.01394341 Eh      8.75 kcal/mol|
|  sn= 9 | S(rot)=       0.01383220 Eh      8.68 kcal/mol|
|  sn=10 | S(rot)=       0.01373272 Eh      8.62 kcal/mol|
|  sn=11 | S(rot)=       0.01364273 Eh      8.56 kcal/mol|
|  sn=12 | S(rot)=       0.01356058 Eh      8.51 kcal/mol|
 --------------------------------------------------------


-------------------
GIBBS FREE ENERGY
-------------------

The Gibbs free energy is G = H - T*S

Total enthalpy                    ...    -49.02952819 Eh 
Total entropy correction          ...     -0.06564708 Eh    -41.19 kcal/mol
-----------------------------------------------------------------------
Final Gibbs free energy         ...    -49.09517527 Eh

For completeness - the Gibbs free energy minus the electronic energy
G-E(el)                           ...      0.25339780 Eh    159.01 kcal/mol


Total Time for Numerical Frequencies  :       113.228 sec
Time for Reference State(s)           :         0.203 sec
Time for Displacements                :       103.364 sec

Timings for individual modules:

Sum of individual times         ...        0.340 sec (=   0.006 min)
XTB module                      ...        0.340 sec (=   0.006 min) 100.0 %
                             ****ORCA TERMINATED NORMALLY****
TOTAL RUN TIME: 0 days 0 hours 1 minutes 54 seconds 341 msec
(SLURM) EXECUTION TIME: 114.364676836 seconds.
