
                                 *****************
                                 * O   R   C   A *
                                 *****************

           --- An Ab Initio, DFT and Semiempirical electronic structure package ---

                  #######################################################
                  #                        -***-                        #
                  #          Department of theory and spectroscopy      #
                  #               Directorship: Frank Neese             #
                  #        Max Planck Institute fuer Kohlenforschung    #
                  #                Kaiser Wilhelm Platz 1               #
                  #                 D-45470 Muelheim/Ruhr               #
                  #                      Germany                        #
                  #                                                     #
                  #                  All rights reserved                #
                  #                        -***-                        #
                  #######################################################


                         Program Version 4.2.1 -  RELEASE  -


 With contributions from (in alphabetic order):
   Daniel Aravena         : Magnetic Suceptibility
   Michael Atanasov       : Ab Initio Ligand Field Theory (pilot matlab implementation)
   Alexander A. Auer      : GIAO ZORA, VPT2
   Ute Becker             : Parallelization
   Giovanni Bistoni       : ED, misc. LED, open-shell LED, HFLD
   Martin Brehm           : Molecular dynamics
   Dmytro Bykov           : SCF Hessian
   Vijay G. Chilkuri      : MRCI spin determinant printing, contributions to CSF-ICE
   Dipayan Datta          : RHF DLPNO-CCSD density
   Achintya Kumar Dutta   : EOM-CC, STEOM-CC
   Dmitry Ganyushin       : Spin-Orbit,Spin-Spin,Magnetic field MRCI
   Miquel Garcia          : C-PCM Hessian, Gaussian charge scheme
   Yang Guo               : DLPNO-NEVPT2, CIM, IAO-localization
   Andreas Hansen         : Spin unrestricted coupled pair/coupled cluster methods
   Benjamin Helmich-Paris : CASSCF linear response (MC-RPA)
   Lee Huntington         : MR-EOM, pCC
   Robert Izsak           : Overlap fitted RIJCOSX, COSX-SCS-MP3, EOM
   Christian Kollmar      : KDIIS, OOCD, Brueckner-CCSD(T), CCSD density
   Simone Kossmann        : Meta GGA functionals, TD-DFT gradient, OOMP2, MP2 Hessian
   Martin Krupicka        : AUTO-CI
   Lucas Lang             : DCDCAS
   Dagmar Lenk            : GEPOL surface, SMD
   Dimitrios Liakos       : Extrapolation schemes; Compound Job, initial MDCI parallelization
   Dimitrios Manganas     : Further ROCIS development; embedding schemes
   Dimitrios Pantazis     : SARC Basis sets
   Taras Petrenko         : DFT Hessian,TD-DFT gradient, ASA, ECA, R-Raman, ABS, FL, XAS/XES, NRVS
   Peter Pinski           : DLPNO-MP2, DLPNO-MP2 Gradient
   Christoph Reimann      : Effective Core Potentials
   Marius Retegan         : Local ZFS, SOC
   Christoph Riplinger    : Optimizer, TS searches, QM/MM, DLPNO-CCSD(T), (RO)-DLPNO pert. Triples
   Tobias Risthaus        : Range-separated hybrids, TD-DFT gradient, RPA, STAB
   Michael Roemelt        : Original ROCIS implementation
   Masaaki Saitow         : Open-shell DLPNO-CCSD energy and density
   Barbara Sandhoefer     : DKH picture change effects
   Avijit Sen             : IP-ROCIS
   Kantharuban Sivalingam : CASSCF convergence, NEVPT2, FIC-MRCI
   Bernardo de Souza      : ESD, SOC TD-DFT
   Georgi Stoychev        : AutoAux, RI-MP2 NMR
   Willem Van den Heuvel  : Paramagnetic NMR
   Boris Wezisla          : Elementary symmetry handling
   Frank Wennmohs         : Technical directorship


 We gratefully acknowledge several colleagues who have allowed us to
 interface, adapt or use parts of their codes:
   Stefan Grimme, W. Hujo, H. Kruse,             : VdW corrections, initial TS optimization,
                  C. Bannwarth                     DFT functionals, gCP, sTDA/sTD-DF
   Ed Valeev, F. Pavosevic, A. Kumar             : LibInt (2-el integral package), F12 methods
   Garnet Chan, S. Sharma, J. Yang, R. Olivares  : DMRG
   Ulf Ekstrom                                   : XCFun DFT Library
   Mihaly Kallay                                 : mrcc  (arbitrary order and MRCC methods)
   Andreas Klamt, Michael Diedenhofen            : otool_cosmo (COSMO solvation model)
   Jiri Pittner, Ondrej Demel                    : Mk-CCSD
   Frank Weinhold                                : gennbo (NPA and NBO analysis)
   Christopher J. Cramer and Donald G. Truhlar   : smd solvation model
   Lars Goerigk                                  : TD-DFT with DH, B97 family of functionals
   V. Asgeirsson, H. Jonsson                     : NEB implementation
   FAccTs GmbH                                   : IRC, NEB, NEB-TS, Multilevel, MM, QM/MM, CI optimization
   S Lehtola, MJT Oliveira, MAL Marques          : LibXC Library


 Your calculation uses the libint2 library for the computation of 2-el integrals
 For citations please refer to: http://libint.valeyev.net

 Your ORCA version has been built with support for libXC version: 4.2.3
 For citations please refer to: https://tddft.org/programs/libxc/

 This ORCA versions uses:
   CBLAS   interface :  Fast vector & matrix operations
   LAPACKE interface :  Fast linear algebra routines
   SCALAPACK package :  Parallel linear algebra routines




***************************************
The coordinates will be read from file: init.xyz
***************************************


Your calculation utilizes the atom-pairwise dispersion correction
based on tight binding partial charges (D4)
Cite in your paper:
E.Caldeweyher, C.Bannwarth, S.Grimme, J.Chem.Phys., (2017), 147, 034112.
E.Caldeweyher, S.Ehlert, A.Hansen, H.Neugebauer, S.Grimme, J.Chem.Phys., (2018), in progress.
   

Your calculation utilizes the SMD solvation module
Please cite in your paper:
A.V. Marenich, C.J. Cramer, D.G. Truhlar J. Phys. Chem. B, 113, (2009), 6378 

----- Orbital basis set information -----
Your calculation utilizes the basis: def2-TZVP
   F. Weigend and R. Ahlrichs, Phys. Chem. Chem. Phys. 7, 3297 (2005).

----- AuxJ basis set information -----
Your calculation utilizes the auxiliary basis: def2/J
   F. Weigend, Phys. Chem. Chem. Phys. 8, 1057 (2006).

================================================================================
                                        WARNINGS
                       Please study these warnings very carefully!
================================================================================


WARNING: Geometry Optimization
  ===> : Switching off AutoStart
         For restart on a previous wavefunction, please use MOREAD

INFO   : the flag for use of LIBINT has been found!

================================================================================
                                       INPUT FILE
================================================================================
NAME = dioxygen@water.inp
|  1> ! BLYP D4 def2-TZVP RI def2/J Opt TightOpt Freq TightSCF Grid4 FinalGrid5 PrintBasis PrintMOs
|  2> %maxcore 1150
|  3> 
|  4> * xyzfile 0 1 init.xyz
|  5> 
|  6> %cpcm
|  7>  smd true
|  8>  smdsolvent "water"
|  9> end
| 10> 
| 11>                          ****END OF INPUT****
================================================================================

                       *****************************
                       * Geometry Optimization Run *
                       *****************************

Geometry optimization settings:
Update method            Update   .... BFGS
Choice of coordinates    CoordSys .... Z-matrix Internals
Initial Hessian          InHess   .... Almoef's Model

Convergence Tolerances:
Energy Change            TolE     ....  1.0000e-06 Eh
Max. Gradient            TolMAXG  ....  1.0000e-04 Eh/bohr
RMS Gradient             TolRMSG  ....  3.0000e-05 Eh/bohr
Max. Displacement        TolMAXD  ....  1.0000e-03 bohr
RMS Displacement         TolRMSD  ....  6.0000e-04 bohr
Strict Convergence                ....  False
------------------------------------------------------------------------------
                        ORCA OPTIMIZATION COORDINATE SETUP
------------------------------------------------------------------------------

The optimization will be done in new redundant internal coordinates
Making redundant internal coordinates   ...  (new redundants) done
Evaluating the initial hessian          ...  (Almloef) done
Evaluating the coordinates              ...  done
Calculating the B-matrix                .... done
Calculating the G-matrix                .... done
Diagonalizing the G-matrix              .... done
The first mode is                       ....    0
The number of degrees of freedom        ....    1

    -----------------------------------------------------------------
                    Redundant Internal Coordinates


    -----------------------------------------------------------------
         Definition                    Initial Value    Approx d2E/dq
    -----------------------------------------------------------------
      1. B(O   1,O   0)                  1.0000         2.100064   
    -----------------------------------------------------------------

Number of atoms                         .... 2
Number of degrees of freedom            .... 1

         *************************************************************
         *                GEOMETRY OPTIMIZATION CYCLE   1            *
         *************************************************************
---------------------------------
CARTESIAN COORDINATES (ANGSTROEM)
---------------------------------
  O      0.000000    0.000000    0.000000
  O      0.000000    0.000000    1.000000

----------------------------
CARTESIAN COORDINATES (A.U.)
----------------------------
  NO LB      ZA    FRAG     MASS         X           Y           Z
   0 O     8.0000    0    15.999    0.000000    0.000000    0.000000
   1 O     8.0000    0    15.999    0.000000    0.000000    1.889726

--------------------------------
INTERNAL COORDINATES (ANGSTROEM)
--------------------------------
 O      0   0   0     0.000000000000     0.00000000     0.00000000
 O      1   0   0     1.000000000000     0.00000000     0.00000000

---------------------------
INTERNAL COORDINATES (A.U.)
---------------------------
 O      0   0   0     0.000000000000     0.00000000     0.00000000
 O      1   0   0     1.889726133921     0.00000000     0.00000000

---------------------
BASIS SET INFORMATION
---------------------
There are 1 groups of distinct atoms

 Group   1 Type O   : 11s6p2d1f contracted to 5s3p2d1f pattern {62111/411/11/1}

Atom   0O    basis set group =>   1
Atom   1O    basis set group =>   1

-------------------------
BASIS SET IN INPUT FORMAT
-------------------------

 # Basis set for element : O 
 NewGTO O 
 S 6 
   1   27032.3826310000      0.0005722733
   2    4052.3871392000      0.0044353233
   3     922.3272271000      0.0230201076
   4     261.2407098900      0.0928224906
   5      85.3546413510      0.2937850002
   6      31.0350352450      0.6740160450
 S 2 
   1      12.2608607280      0.6383993702
   2       4.9987076005      0.3953458713
 S 1 
   1       1.1703108158      1.0000000000
 S 1 
   1       0.4647474099      1.0000000000
 S 1 
   1       0.1850453636      1.0000000000
 P 4 
   1      63.2749548010      0.0120183321
   2      14.6270493790      0.0830054217
   3       4.4501223456      0.3199174393
   4       1.5275799647      0.7071554292
 P 1 
   1       0.5293511794      1.0000000000
 P 1 
   1       0.1747842127      1.0000000000
 D 1 
   1       2.3140000000      1.0000000000
 D 1 
   1       0.6450000000      1.0000000000
 F 1 
   1       1.4280000000      1.0000000000
  end;

---------------------------------
AUXILIARY/J BASIS SET INFORMATION
---------------------------------
There are 1 groups of distinct atoms

 Group   1 Type O   : 12s5p4d2f1g contracted to 6s4p3d1f1g pattern {711111/2111/211/2/1}

Atom   0O    basis set group =>   1
Atom   1O    basis set group =>   1

-------------------------------------
AUXILIARY/J BASIS SET IN INPUT FORMAT
-------------------------------------

 # Auxiliary/J basis set for element : O 
 NewAuxJGTO O 
 S 7 
   1    2876.8216605000      0.0168151159
   2    1004.7443032000      0.0340137548
   3     369.7579954000      0.1194951309
   4     142.9442404000      0.2664627624
   5      57.8366425000      0.4202764046
   6      24.3864983000      0.2765077335
   7      10.6622662000      0.0057008815
 S 1 
   1       4.8070437000     -1.0000000000
 S 1 
   1       2.2210770000      1.0000000000
 S 1 
   1       1.0447795000      1.0000000000
 S 1 
   1       0.4968425000      1.0000000000
 S 1 
   1       0.2371384000      1.0000000000
 P 2 
   1      64.2613382000     -0.2731534179
   2      16.3006076000     -0.8168011598
 P 1 
   1       4.3550542000      1.0000000000
 P 1 
   1       1.2019554000      1.0000000000
 P 1 
   1       0.3354196000      1.0000000000
 D 2 
   1       9.2146611000     -0.4661230638
   2       2.8435251000     -0.6600908911
 D 1 
   1       0.9955759000     -1.0000000000
 D 1 
   1       0.3649441000     -1.0000000000
 F 2 
   1       2.6420115000      0.5931563945
   2       0.7345613000      0.5931563945
 G 1 
   1       1.3931000000     -1.0000000000
  end;

------------------------------------------------------------------------------
                           ORCA GTO INTEGRAL CALCULATION
                           -- RI-GTO INTEGRALS CHOSEN --
------------------------------------------------------------------------------

                         BASIS SET STATISTICS AND STARTUP INFO

Gaussian basis set:
 # of primitive gaussian shells          ...   40
 # of primitive gaussian functions       ...   92
 # of contracted shells                  ...   22
 # of contracted basis functions         ...   62
 Highest angular momentum                ...    3
 Maximum contraction depth               ...    6
Auxiliary gaussian basis set:
 # of primitive gaussian shells          ...   48
 # of primitive gaussian functions       ...  140
 # of contracted shells                  ...   30
 # of contracted aux-basis functions     ...   98
 Highest angular momentum                ...    4
 Maximum contraction depth               ...    7
Ratio of auxiliary to basis functions    ...  1.58
Integral package used                  ... LIBINT
 One Electron integrals                  ... done
 Ordering auxiliary basis shells         ... done
 Integral threshhold             Thresh  ...  2.500e-11
 Primitive cut-off               TCut    ...  2.500e-12
 Pre-screening matrix                    ... done
 Shell pair data                         ... 
 Ordering of the shell pairs             ... done (   0.000 sec) 252 of 253 pairs
 Determination of significant pairs      ... done (   0.000 sec)
 Creation of shell pair data             ... done (   0.000 sec)
 Storage of shell pair data              ... done (   0.000 sec)
 Shell pair data done in (   0.000 sec)
 Computing two index integrals           ... done
 Cholesky decomposition of the V-matrix  ... done


Timings:
 Total evaluation time                   ...   0.080 sec (  0.001 min)
 One electron matrix time                ...   0.003 sec (  0.000 min) =  3.9%
 Schwartz matrix evaluation time         ...   0.056 sec (  0.001 min) = 70.5%
 Two index repulsion integral time       ...   0.000 sec (  0.000 min) =  0.5%
 Cholesky decomposition of V             ...   0.000 sec (  0.000 min) =  0.4%
 Three index repulsion integral time     ...   0.000 sec (  0.000 min) =  0.0%

-------------------------------------------------------------------------------
                                 ORCA SCF
-------------------------------------------------------------------------------

------------
SCF SETTINGS
------------
Hamiltonian:
 Density Functional     Method          .... DFT(GTOs)
 Exchange Functional    Exchange        .... B88
   X-Alpha parameter    XAlpha          ....  0.666667
   Becke's b parameter  XBeta           ....  0.004200
 Correlation Functional Correlation     .... LYP
 Gradients option       PostSCFGGA      .... off
   Density functional embedding theory  .... OFF
   NL short-range parameter             ....  4.000000
 RI-approximation to the Coulomb term is turned on
   Number of auxiliary basis functions  .... 98


General Settings:
 Integral files         IntName         .... dioxygen@water
 Hartree-Fock type      HFTyp           .... RHF
 Total Charge           Charge          ....    0
 Multiplicity           Mult            ....    1
 Number of Electrons    NEL             ....   16
 Basis Dimension        Dim             ....   62
 Nuclear Repulsion      ENuc            ....     33.8673413312 Eh

Convergence Acceleration:
 DIIS                   CNVDIIS         .... on
   Start iteration      DIISMaxIt       ....    12
   Startup error        DIISStart       ....  0.200000
   # of expansion vecs  DIISMaxEq       ....     5
   Bias factor          DIISBfac        ....   1.050
   Max. coefficient     DIISMaxC        ....  10.000
 Newton-Raphson         CNVNR           .... off
 SOSCF                  CNVSOSCF        .... on
   Start iteration      SOSCFMaxIt      ....   150
   Startup grad/error   SOSCFStart      ....  0.003300
 Level Shifting         CNVShift        .... on
   Level shift para.    LevelShift      ....    0.2500
   Turn off err/grad.   ShiftErr        ....    0.0010
 Zerner damping         CNVZerner       .... off
 Static damping         CNVDamp         .... on
   Fraction old density DampFac         ....    0.7000
   Max. Damping (<1)    DampMax         ....    0.9800
   Min. Damping (>=0)   DampMin         ....    0.0000
   Turn off err/grad.   DampErr         ....    0.1000
 Fernandez-Rico         CNVRico         .... off

SCF Procedure:
 Maximum # iterations   MaxIter         ....   125
 SCF integral mode      SCFMode         .... Direct
   Integral package                     .... LIBINT
 Reset frequency        DirectResetFreq ....    20
 Integral Threshold     Thresh          ....  2.500e-11 Eh
 Primitive CutOff       TCut            ....  2.500e-12 Eh

Convergence Tolerance:
 Convergence Check Mode ConvCheckMode   .... Total+1el-Energy
 Convergence forced     ConvForced      .... 0
 Energy Change          TolE            ....  1.000e-08 Eh
 1-El. energy change                    ....  1.000e-05 Eh
 Orbital Gradient       TolG            ....  1.000e-05
 Orbital Rotation angle TolX            ....  1.000e-05
 DIIS Error             TolErr          ....  5.000e-07


Diagonalization of the overlap matrix:
Smallest eigenvalue                        ... 2.888e-04
Time for diagonalization                   ...    0.001 sec
Threshold for overlap eigenvalues          ... 1.000e-08
Number of eigenvalues below threshold      ... 0
Time for construction of square roots      ...    0.000 sec
Total time needed                          ...    0.001 sec

-------------------
DFT GRID GENERATION
-------------------

General Integration Accuracy     IntAcc      ...  4.670
Radial Grid Type                 RadialGrid  ... Gauss-Chebyshev
Angular Grid (max. acc.)         AngularGrid ... Lebedev-302
Angular grid pruning method      GridPruning ... 3 (G Style)
Weight generation scheme         WeightScheme... Becke
Basis function cutoff            BFCut       ...    1.0000e-11
Integration weight cutoff        WCut        ...    1.0000e-14
Grids for H and He will be reduced by one unit

# of grid points (after initial pruning)     ...  12424 (   0.0 sec)
# of grid points (after weights+screening)   ...  12392 (   0.0 sec)
nearest neighbour list constructed           ...    0.0 sec
Grid point re-assignment to atoms done       ...    0.0 sec
Grid point division into batches done        ...    0.1 sec
Reduced shell lists constructed in    0.1 sec

Total number of grid points                  ...    12392
Total number of batches                      ...      194
Average number of points per batch           ...       63
Average number of grid points per atom       ...     6196
Average number of shells per batch           ...    16.32 (74.17%)
Average number of basis functions per batch  ...    48.22 (77.77%)
Average number of large shells per batch     ...    15.25 (93.46%)
Average number of large basis fcns per batch ...    45.37 (94.11%)
Maximum spatial batch extension              ...  19.94, 19.94, 14.76 au
Average spatial batch extension              ...   3.90,  3.93,  3.23 au

Time for grid setup =    0.087 sec

------------------------------
INITIAL GUESS: MODEL POTENTIAL
------------------------------
Loading Hartree-Fock densities                     ... done
Calculating cut-offs                               ... done
Setting up the integral package                    ... done
Initializing the effective Hamiltonian             ... done
Starting the Coulomb interaction                   ... done (   0.0 sec)
Reading the grid                                   ... done
Mapping shells                                     ... done
Starting the XC term evaluation                    ... done (   0.0 sec)
  promolecular density results
     # of electrons  =     16.000006386
     EX              =    -16.456133217
     EC              =     -0.587885410
     EX+EC           =    -17.044018626
Transforming the Hamiltonian                       ... done (   0.0 sec)
Diagonalizing the Hamiltonian                      ... done (   0.0 sec)
Back transforming the eigenvectors                 ... done (   0.0 sec)
Now organizing SCF variables                       ... done
                      ------------------
                      INITIAL GUESS DONE (   0.2 sec)
                      ------------------

--------------------
CPCM SOLVATION MODEL
--------------------
CPCM parameters:
  Epsilon                                         ...      78.3550
  Refrac                                          ...       1.0000
  Rsolv                                           ...       1.3000
  Surface type                                    ...    GEPOL SES
  Epsilon function type                           ...         CPCM
Solvent:                                     ... WATER
SMD-CDS solvent descriptors:
  Soln                                       ...    1.3328
  Soln25                                     ...    1.3323
  Sola                                       ...    0.0000
  Solb                                       ...    0.0000
  Solg                                       ...    0.0000
  Solc                                       ...    0.0000
  Solh                                       ...    0.0000
Radii:
 Radius for O  used is    2.8724 Bohr (=   1.5200 Ang.)
Calculating surface                               ...        done! (  0.0s)
GEPOL surface points                              ...          100
GEPOL Volume                                      ...     146.5991
GEPOL Surface-area                                ...     137.5649
Calculating surface distance matrix               ...        done! (  0.0s)
Performing Cholesky decomposition & store         ...        done! (  0.0s)
Overall time for CPCM initialization              ...                 0.0s
--------------
SCF ITERATIONS
--------------
ITER       Energy         Delta-E        Max-DP      RMS-DP      [F,P]     Damp
               ***  Starting incremental Fock matrix formation  ***
  0   -150.2007214350   0.000000000000 0.02817922  0.00165858  0.0834170 0.7000
  1   -150.2087374451  -0.008016010049 0.02192072  0.00121662  0.0400187 0.7000
                               ***Turning on DIIS***
  2   -150.2122116847  -0.003474239663 0.03579996  0.00200979  0.0184586 0.0000
  3   -150.2177820046  -0.005570319866 0.01814825  0.00098122  0.0223734 0.0000
  4   -150.2187980271  -0.001016022547 0.00156481  0.00011797  0.0038395 0.0000
                      *** Initiating the SOSCF procedure ***
                           *** Shutting down DIIS ***
                      *** Re-Reading the Fockian *** 
                      *** Removing any level shift *** 
ITER      Energy       Delta-E        Grad      Rot      Max-DP    RMS-DP
  5   -150.21883216  -0.0000341356  0.000334  0.000334  0.000443  0.000026
               *** Restarting incremental Fock matrix formation ***
  6   -150.21883457  -0.0000024089  0.000133  0.000195  0.000338  0.000018
  7   -150.21883454   0.0000000268  0.000149  0.000119  0.000191  0.000010
  8   -150.21883468  -0.0000001319  0.000004  0.000003  0.000006  0.000000
                 **** Energy Check signals convergence ****
              ***Rediagonalizing the Fockian in SOSCF/NRSCF***

               *****************************************************
               *                     SUCCESS                       *
               *           SCF CONVERGED AFTER   9 CYCLES          *
               *****************************************************

Setting up the final grid:

General Integration Accuracy     IntAcc      ...  5.010
Radial Grid Type                 RadialGrid  ... Gauss-Chebyshev
Angular Grid (max. acc.)         AngularGrid ... Lebedev-434
Angular grid pruning method      GridPruning ... 3 (G Style)
Weight generation scheme         WeightScheme... Becke
Basis function cutoff            BFCut       ...    1.0000e-11
Integration weight cutoff        WCut        ...    1.0000e-14
Grids for H and He will be reduced by one unit

# of grid points (after initial pruning)     ...  21684 (   0.0 sec)
# of grid points (after weights+screening)   ...  21584 (   0.0 sec)
nearest neighbour list constructed           ...    0.0 sec
Grid point re-assignment to atoms done       ...    0.0 sec
Grid point division into batches done        ...    0.2 sec
Reduced shell lists constructed in    0.3 sec

Total number of grid points                  ...    21584
Total number of batches                      ...      338
Average number of points per batch           ...       63
Average number of grid points per atom       ...    10792
Average number of shells per batch           ...    16.09 (73.14%)
Average number of basis functions per batch  ...    47.47 (76.56%)
Average number of large shells per batch     ...    14.81 (92.03%)
Average number of large basis fcns per batch ...    44.06 (92.83%)
Maximum spatial batch extension              ...  16.29, 16.29, 19.52 au
Average spatial batch extension              ...   3.06,  3.06,  2.77 au

Final grid set up in    0.3 sec
Final integration                            ... done (   0.1 sec)
Change in XC energy                          ...    -0.000007102
Integrated number of electrons               ...    16.000000162
Previous integrated no of electrons          ...    15.999999110

SMD CDS free energy correction energy :                 0.00000     Kcal/mol
Total Energy after SMD CDS correction =              -150.218841777 Eh

----------------
TOTAL SCF ENERGY
----------------

Total Energy       :         -150.21884178 Eh           -4087.66250 eV

Components:
Nuclear Repulsion  :           33.86734133 Eh             921.57721 eV
Electronic Energy  :         -184.08618311 Eh           -5009.23971 eV
One Electron Energy:         -272.57075773 Eh           -7417.02739 eV
Two Electron Energy:           88.48457463 Eh            2407.78769 eV
CPCM Dielectric    :           -0.00461000 Eh              -0.12544 eV

Virial components:
Potential Energy   :         -301.31258678 Eh           -8199.13232 eV
Kinetic Energy     :          151.09374500 Eh            4111.46982 eV
Virial Ratio       :            1.99420953


DFT components:
N(Alpha)           :        8.000000081183 electrons
N(Beta)            :        8.000000081183 electrons
N(Total)           :       16.000000162365 electrons
E(X)               :      -16.647680027684 Eh       
E(C)               :       -0.588550904338 Eh       
E(XC)              :      -17.236230932022 Eh       
DFET-embed. en.    :        0.000000000000 Eh       
CPCM Solvation Model Properties:
Surface-charge          :           -0.02521541
Charge-correction       :            0.00031696 Eh               0.00862 eV
Free-energy (cav+disp)  :            0.00252038 Eh               0.06858 eV
Corrected G(solv)       :         -150.21600444 Eh           -4087.58529 eV

---------------
SCF CONVERGENCE
---------------

  Last Energy change         ...    1.6339e-09  Tolerance :   1.0000e-08
  Last MAX-Density change    ...    1.3242e-06  Tolerance :   1.0000e-07
  Last RMS-Density change    ...    7.2800e-08  Tolerance :   5.0000e-09
  Last Orbital Gradient      ...    1.5661e-06  Tolerance :   1.0000e-05
  Last Orbital Rotation      ...    9.0756e-07  Tolerance :   1.0000e-05

             **** THE GBW FILE WAS UPDATED (dioxygen@water.gbw) ****
             **** DENSITY FILE WAS UPDATED (dioxygen@water.scfp) ****
             **** ENERGY FILE WAS UPDATED (dioxygen@water.en.tmp) ****
             **** THE GBW FILE WAS UPDATED (dioxygen@water.gbw) ****
             **** DENSITY FILE WAS UPDATED (dioxygen@water.scfp) ****
----------------
ORBITAL ENERGIES
----------------

  NO   OCC          E(Eh)            E(eV) 
   0   2.0000     -18.894341      -514.1411 
   1   2.0000     -18.893431      -514.1164 
   2   2.0000      -1.373663       -37.3793 
   3   2.0000      -0.649548       -17.6751 
   4   2.0000      -0.562113       -15.2959 
   5   2.0000      -0.529184       -14.3998 
   6   2.0000      -0.498735       -13.5713 
   7   2.0000      -0.108032        -2.9397 
   8   0.0000      -0.133764        -3.6399 
   9   0.0000       0.245656         6.6847 
  10   0.0000       0.299100         8.1389 
  11   0.0000       0.325938         8.8692 
  12   0.0000       0.328697         8.9443 
  13   0.0000       0.377913        10.2835 
  14   0.0000       0.469742        12.7823 
  15   0.0000       0.472249        12.8505 
  16   0.0000       0.640604        17.4317 
  17   0.0000       0.809302        22.0222 
  18   0.0000       1.123490        30.5717 
  19   0.0000       1.124955        30.6116 
  20   0.0000       1.379379        37.5348 
  21   0.0000       1.408799        38.3354 
  22   0.0000       1.666472        45.3470 
  23   0.0000       1.668888        45.4128 
  24   0.0000       1.707767        46.4707 
  25   0.0000       2.134185        58.0741 
  26   0.0000       2.148699        58.4691 
  27   0.0000       2.238127        60.9025 
  28   0.0000       2.300728        62.6060 
  29   0.0000       2.319680        63.1217 
  30   0.0000       2.432256        66.1851 
  31   0.0000       2.636006        71.7294 
  32   0.0000       2.734714        74.4154 
  33   0.0000       2.757852        75.0450 
  34   0.0000       3.156525        85.8934 
  35   0.0000       3.715456       101.1027 
  36   0.0000       4.435663       120.7005 
  37   0.0000       4.437499       120.7505 
  38   0.0000       4.653759       126.6352 
  39   0.0000       4.659421       126.7893 
  40   0.0000       4.663260       126.8938 
  41   0.0000       4.689473       127.6071 
  42   0.0000       5.209181       141.7490 
  43   0.0000       5.209571       141.7596 
  44   0.0000       5.398069       146.8889 
  45   0.0000       5.916755       161.0031 
  46   0.0000       5.921994       161.1456 
  47   0.0000       6.050526       164.6432 
  48   0.0000       6.054983       164.7645 
  49   0.0000       6.136742       166.9892 
  50   0.0000       6.158398       167.5785 
  51   0.0000       6.242555       169.8686 
  52   0.0000       6.244395       169.9186 
  53   0.0000       6.578945       179.0222 
  54   0.0000       6.607326       179.7945 
  55   0.0000       6.639136       180.6601 
  56   0.0000       7.828897       213.0351 
  57   0.0000       7.858936       213.8525 
  58   0.0000       7.883884       214.5314 
  59   0.0000       7.965553       216.7537 
  60   0.0000      42.689735      1161.6467 
  61   0.0000      43.487230      1183.3477 
------------------
MOLECULAR ORBITALS
------------------
                      0         1         2         3         4         5   
                 -18.89434 -18.89343  -1.37366  -0.64955  -0.56211  -0.52918
                   2.00000   2.00000   2.00000   2.00000   2.00000   2.00000
                  --------  --------  --------  --------  --------  --------
  0O   1s        -0.307744  0.307832 -0.073607 -0.073114 -0.000001  0.000000
  0O   2s        -0.451579  0.451328 -0.170786 -0.172446 -0.000003  0.000000
  0O   3s        -0.026924  0.029836  0.253438  0.264558  0.000004 -0.000000
  0O   4s         0.012809 -0.037747  0.248183  0.377627  0.000006 -0.000000
  0O   5s        -0.003155  0.021214  0.043604  0.228201  0.000003 -0.000000
  0O   1pz       -0.002734  0.002401  0.192165 -0.144412 -0.000003  0.000000
  0O   1px        0.000000 -0.000000 -0.000000 -0.000005  0.278502 -0.211553
  0O   1py       -0.000000  0.000000  0.000000  0.000003 -0.210844 -0.279438
  0O   2pz        0.001846 -0.015507  0.098711 -0.089469 -0.000001  0.000000
  0O   2px       -0.000000  0.000000 -0.000000 -0.000004  0.214083 -0.158189
  0O   2py        0.000000 -0.000000  0.000000  0.000002 -0.162074 -0.208951
  0O   3pz       -0.000271  0.006437  0.006553 -0.038696 -0.000001  0.000000
  0O   3px        0.000000 -0.000000 -0.000000 -0.000001  0.083113 -0.067742
  0O   3py       -0.000000  0.000000  0.000000  0.000001 -0.062921 -0.089479
  0O   1dz2      -0.000557  0.000773  0.017893 -0.005429 -0.000000 -0.000000
  0O   1dxz      -0.000000  0.000000 -0.000000 -0.000000  0.013545 -0.010405
  0O   1dyz       0.000000 -0.000000  0.000000  0.000000 -0.010254 -0.013744
  0O   1dx2y2    -0.000019  0.000020  0.000366  0.000423  0.000000  0.000001
  0O   1dxy       0.000069 -0.000070 -0.001299 -0.001502 -0.000001  0.000001
  0O   2dz2       0.002017 -0.004648  0.021876 -0.009224  0.000000 -0.000000
  0O   2dxz      -0.000000 -0.000000 -0.000000 -0.000000  0.026333 -0.018389
  0O   2dyz       0.000000  0.000000  0.000000  0.000000 -0.019936 -0.024290
  0O   2dx2y2     0.000004 -0.000006  0.000990  0.001215 -0.000004 -0.000010
  0O   2dxy      -0.000014  0.000020 -0.003512 -0.004309  0.000010 -0.000004
  0O   1f0        0.000971  0.000209  0.007041 -0.001577 -0.000000  0.000000
  0O   1f+1      -0.000000  0.000000  0.000000 -0.000000  0.006663 -0.005203
  0O   1f-1       0.000000 -0.000000 -0.000000  0.000000 -0.005044 -0.006873
  0O   1f+2      -0.000000 -0.000001  0.000387 -0.000174 -0.000000 -0.000000
  0O   1f-2       0.000000  0.000003 -0.001374  0.000617  0.000000 -0.000000
  0O   1f+3       0.000000 -0.000000 -0.000000 -0.000001  0.000783  0.002301
  0O   1f-3       0.000000 -0.000000 -0.000001 -0.000002  0.001999 -0.000901
  1O   1s        -0.307744 -0.307832 -0.073607  0.073114  0.000001 -0.000000
  1O   2s        -0.451579 -0.451328 -0.170786  0.172446  0.000003 -0.000000
  1O   3s        -0.026924 -0.029836  0.253438 -0.264558 -0.000004  0.000000
  1O   4s         0.012809  0.037747  0.248183 -0.377627 -0.000006  0.000000
  1O   5s        -0.003155 -0.021214  0.043604 -0.228201 -0.000003  0.000000
  1O   1pz        0.002734  0.002401 -0.192165 -0.144412 -0.000003  0.000000
  1O   1px       -0.000000 -0.000000  0.000000 -0.000005  0.278502 -0.211553
  1O   1py        0.000000  0.000000 -0.000000  0.000003 -0.210844 -0.279438
  1O   2pz       -0.001846 -0.015507 -0.098711 -0.089469 -0.000001  0.000000
  1O   2px        0.000000  0.000000  0.000000 -0.000004  0.214083 -0.158189
  1O   2py       -0.000000 -0.000000 -0.000000  0.000002 -0.162074 -0.208951
  1O   3pz        0.000271  0.006437 -0.006553 -0.038696 -0.000001  0.000000
  1O   3px       -0.000000 -0.000000  0.000000 -0.000001  0.083113 -0.067742
  1O   3py        0.000000  0.000000 -0.000000  0.000001 -0.062921 -0.089479
  1O   1dz2      -0.000557 -0.000773  0.017893  0.005429  0.000000  0.000000
  1O   1dxz      -0.000000 -0.000000 -0.000000  0.000000 -0.013545  0.010405
  1O   1dyz       0.000000  0.000000  0.000000 -0.000000  0.010254  0.013744
  1O   1dx2y2    -0.000019 -0.000020  0.000366 -0.000423 -0.000000 -0.000001
  1O   1dxy       0.000069  0.000070 -0.001299  0.001502  0.000001 -0.000001
  1O   2dz2       0.002017  0.004648  0.021876  0.009224 -0.000000  0.000000
  1O   2dxz      -0.000000  0.000000 -0.000000  0.000000 -0.026333  0.018389
  1O   2dyz       0.000000 -0.000000  0.000000 -0.000000  0.019936  0.024290
  1O   2dx2y2     0.000004  0.000006  0.000990 -0.001215  0.000004  0.000010
  1O   2dxy      -0.000014 -0.000020 -0.003512  0.004309 -0.000010  0.000004
  1O   1f0       -0.000971  0.000209 -0.007041 -0.001577 -0.000000  0.000000
  1O   1f+1       0.000000  0.000000 -0.000000 -0.000000  0.006663 -0.005203
  1O   1f-1      -0.000000 -0.000000  0.000000  0.000000 -0.005044 -0.006873
  1O   1f+2       0.000000 -0.000001 -0.000387 -0.000174 -0.000000 -0.000000
  1O   1f-2      -0.000000  0.000003  0.001374  0.000617  0.000000 -0.000000
  1O   1f+3      -0.000000 -0.000000  0.000000 -0.000001  0.000783  0.002301
  1O   1f-3      -0.000000 -0.000000  0.000001 -0.000002  0.001999 -0.000901
                      6         7         8         9        10        11   
                  -0.49874  -0.10803  -0.13376   0.24566   0.29910   0.32594
                   2.00000   2.00000   0.00000   0.00000   0.00000   0.00000
                  --------  --------  --------  --------  --------  --------
  0O   1s        -0.029321 -0.000000 -0.000000 -0.036210 -0.039332 -0.000000
  0O   2s        -0.068992 -0.000000 -0.000000 -0.088470 -0.082866 -0.000000
  0O   3s         0.099912  0.000000  0.000001  0.193054 -0.029018  0.000000
  0O   4s         0.156593 -0.000000 -0.000000 -0.030337  1.234772 -0.000001
  0O   5s         0.213859  0.000000  0.000002  4.462459 -1.212842  0.000021
  0O   1pz       -0.351886 -0.000000 -0.000001  0.030684 -0.112011  0.000000
  0O   1px       -0.000001  0.239797  0.318922 -0.000000 -0.000001  0.147422
  0O   1py        0.000001  0.316746 -0.241444  0.000000  0.000000 -0.111521
  0O   2pz       -0.226577 -0.000000 -0.000000 -0.186109 -0.196689  0.000000
  0O   2px       -0.000001  0.197808  0.273370 -0.000001 -0.000001  0.320746
  0O   2py        0.000001  0.261282 -0.206959  0.000000  0.000001 -0.242633
  0O   3pz       -0.102610 -0.000000 -0.000001  2.570145  0.178659  0.000009
  0O   3px       -0.000001  0.250034  0.300876  0.000001  0.000004 -0.559272
  0O   3py        0.000000  0.330268 -0.227783 -0.000001 -0.000003  0.423076
  0O   1dz2      -0.016557  0.000000  0.000000 -0.017952  0.005418 -0.000000
  0O   1dxz       0.000000 -0.003357 -0.004550  0.000000  0.000000  0.009843
  0O   1dyz      -0.000000 -0.004435  0.003445 -0.000000 -0.000000 -0.007446
  0O   1dx2y2     0.000195 -0.000001  0.000000  0.000231  0.000317 -0.000001
  0O   1dxy      -0.000693 -0.000001 -0.000001 -0.000818 -0.001124  0.000003
  0O   2dz2      -0.015544  0.000000  0.000000 -0.036845  0.004386 -0.000000
  0O   2dxz       0.000000 -0.008086 -0.009476 -0.000000  0.000000  0.023173
  0O   2dyz      -0.000000 -0.010681  0.007174  0.000000 -0.000000 -0.017530
  0O   2dx2y2     0.000674  0.000013 -0.000005  0.000813 -0.000403  0.000010
  0O   2dxy      -0.002389  0.000005  0.000013 -0.002885  0.001428 -0.000025
  0O   1f0       -0.004639 -0.000000 -0.000000 -0.009985  0.001555  0.000000
  0O   1f+1       0.000000 -0.001560 -0.002616  0.000000 -0.000000  0.002377
  0O   1f-1      -0.000000 -0.002060  0.001980 -0.000000  0.000000 -0.001799
  0O   1f+2      -0.000440 -0.000001  0.000001  0.000077 -0.000160  0.000001
  0O   1f-2       0.001562 -0.000000 -0.000001 -0.000275  0.000566 -0.000001
  0O   1f+3      -0.000001 -0.002181  0.000713 -0.000000  0.000000  0.000209
  0O   1f-3      -0.000002  0.000854  0.001820 -0.000000  0.000001  0.000536
  1O   1s        -0.029321 -0.000000 -0.000000  0.036210 -0.039332  0.000000
  1O   2s        -0.068992 -0.000000 -0.000000  0.088470 -0.082866  0.000000
  1O   3s         0.099912  0.000000  0.000001 -0.193054 -0.029018 -0.000000
  1O   4s         0.156593 -0.000000 -0.000000  0.030337  1.234772  0.000001
  1O   5s         0.213859  0.000000  0.000002 -4.462459 -1.212842 -0.000021
  1O   1pz        0.351886  0.000000  0.000001  0.030684  0.112011  0.000000
  1O   1px        0.000001 -0.239797 -0.318922 -0.000000  0.000001  0.147422
  1O   1py       -0.000001 -0.316746  0.241444  0.000000 -0.000000 -0.111521
  1O   2pz        0.226577  0.000000  0.000000 -0.186109  0.196689  0.000000
  1O   2px        0.000001 -0.197808 -0.273370 -0.000001  0.000001  0.320746
  1O   2py       -0.000001 -0.261282  0.206959  0.000000 -0.000001 -0.242633
  1O   3pz        0.102610  0.000000  0.000001  2.570145 -0.178659  0.000009
  1O   3px        0.000001 -0.250034 -0.300876  0.000001 -0.000004 -0.559272
  1O   3py       -0.000000 -0.330268  0.227783 -0.000001  0.000003  0.423076
  1O   1dz2      -0.016557  0.000000  0.000000  0.017952  0.005418  0.000000
  1O   1dxz       0.000000 -0.003357 -0.004550 -0.000000  0.000000 -0.009843
  1O   1dyz      -0.000000 -0.004435  0.003445  0.000000 -0.000000  0.007446
  1O   1dx2y2     0.000195 -0.000001  0.000000 -0.000231  0.000317  0.000001
  1O   1dxy      -0.000693 -0.000001 -0.000001  0.000818 -0.001124 -0.000003
  1O   2dz2      -0.015544  0.000000  0.000000  0.036845  0.004386  0.000000
  1O   2dxz       0.000000 -0.008086 -0.009476  0.000000  0.000000 -0.023173
  1O   2dyz      -0.000000 -0.010681  0.007174 -0.000000 -0.000000  0.017530
  1O   2dx2y2     0.000674  0.000013 -0.000005 -0.000813 -0.000403 -0.000010
  1O   2dxy      -0.002389  0.000005  0.000013  0.002885  0.001428  0.000025
  1O   1f0        0.004639  0.000000  0.000000 -0.009985 -0.001555  0.000000
  1O   1f+1      -0.000000  0.001560  0.002616  0.000000  0.000000  0.002377
  1O   1f-1       0.000000  0.002060 -0.001980 -0.000000 -0.000000 -0.001799
  1O   1f+2       0.000440  0.000001 -0.000001  0.000077  0.000160  0.000001
  1O   1f-2      -0.001562  0.000000  0.000001 -0.000275 -0.000566 -0.000001
  1O   1f+3       0.000001  0.002181 -0.000713 -0.000000 -0.000000  0.000209
  1O   1f-3       0.000002 -0.000854 -0.001820 -0.000000 -0.000001  0.000536
                     12        13        14        15        16        17   
                   0.32870   0.37791   0.46974   0.47225   0.64060   0.80930
                   0.00000   0.00000   0.00000   0.00000   0.00000   0.00000
                  --------  --------  --------  --------  --------  --------
  0O   1s         0.000000  0.005966 -0.000000 -0.000000 -0.014873  0.052759
  0O   2s         0.000000  0.013248 -0.000000 -0.000000 -0.044069  0.118621
  0O   3s        -0.000000  0.003661 -0.000000 -0.000001  0.087752 -0.075877
  0O   4s         0.000000 -0.431880  0.000001  0.000006  0.170656 -1.506535
  0O   5s        -0.000002  0.049202 -0.000000 -0.000004  5.086601 11.107499
  0O   1pz       -0.000000 -0.113054 -0.000000 -0.000000  0.396741 -0.259541
  0O   1px       -0.112262  0.000001  0.138757  0.178046  0.000000 -0.000000
  0O   1py       -0.148401 -0.000000  0.183401 -0.134700 -0.000000  0.000000
  0O   2pz       -0.000000 -0.254272  0.000000  0.000000  1.246859  0.240065
  0O   2px       -0.246023  0.000001  0.292004  0.378582 -0.000000 -0.000001
  0O   2py       -0.325217 -0.000000  0.385956 -0.286418  0.000000  0.000000
  0O   3pz       -0.000001  1.220950 -0.000000 -0.000003  1.531644  4.177468
  0O   3px        0.423187 -0.000003 -0.961493 -1.275270  0.000001  0.000000
  0O   3py        0.559418  0.000002 -1.270873  0.964825 -0.000000 -0.000000
  0O   1dz2       0.000000 -0.031479  0.000000  0.000000 -0.018132  0.007500
  0O   1dxz      -0.007321  0.000000  0.004909  0.006482 -0.000000  0.000000
  0O   1dyz      -0.009678 -0.000000  0.006489 -0.004904  0.000000 -0.000000
  0O   1dx2y2    -0.000003 -0.000082  0.000002 -0.000001  0.000121 -0.000403
  0O   1dxy      -0.000001  0.000291  0.000001  0.000003 -0.000429  0.001430
  0O   2dz2       0.000000  0.025263 -0.000000 -0.000000  0.106982  0.301498
  0O   2dxz      -0.017641 -0.000000 -0.011881 -0.013117 -0.000000  0.000000
  0O   2dyz      -0.023320  0.000000 -0.015702  0.009923  0.000000 -0.000000
  0O   2dx2y2     0.000024  0.001637 -0.000025  0.000010  0.001630 -0.001189
  0O   2dxy       0.000010 -0.005808 -0.000010 -0.000025 -0.005782  0.004219
  0O   1f0        0.000000  0.001300 -0.000000 -0.000000  0.024374  0.023926
  0O   1f+1      -0.001632  0.000000  0.000930  0.000924  0.000000 -0.000000
  0O   1f-1      -0.002158 -0.000000  0.001229 -0.000699 -0.000000  0.000000
  0O   1f+2       0.000001  0.000005  0.000001 -0.000000  0.000510 -0.000327
  0O   1f-2       0.000001 -0.000017  0.000000  0.000001 -0.001808  0.001159
  0O   1f+3       0.000671 -0.000000 -0.000964  0.000294 -0.000001 -0.000000
  0O   1f-3      -0.000262 -0.000001  0.000377  0.000752 -0.000002 -0.000001
  1O   1s        -0.000000  0.005966 -0.000000 -0.000000  0.014873 -0.052759
  1O   2s        -0.000000  0.013248 -0.000000 -0.000000  0.044069 -0.118621
  1O   3s         0.000000  0.003661 -0.000000 -0.000001 -0.087752  0.075877
  1O   4s        -0.000000 -0.431880  0.000001  0.000006 -0.170656  1.506535
  1O   5s         0.000002  0.049202 -0.000000 -0.000004 -5.086601-11.107499
  1O   1pz       -0.000000  0.113054  0.000000  0.000000  0.396741 -0.259541
  1O   1px       -0.112262 -0.000001 -0.138757 -0.178046  0.000000 -0.000000
  1O   1py       -0.148401  0.000000 -0.183401  0.134700 -0.000000  0.000000
  1O   2pz       -0.000000  0.254272  0.000000 -0.000000  1.246859  0.240065
  1O   2px       -0.246023 -0.000001 -0.292004 -0.378582 -0.000000 -0.000001
  1O   2py       -0.325217  0.000000 -0.385956  0.286418  0.000000  0.000000
  1O   3pz       -0.000001 -1.220950  0.000000  0.000003  1.531644  4.177468
  1O   3px        0.423187  0.000003  0.961493  1.275270  0.000001  0.000000
  1O   3py        0.559418 -0.000002  1.270873 -0.964825 -0.000000 -0.000000
  1O   1dz2      -0.000000 -0.031479  0.000000  0.000000  0.018132 -0.007500
  1O   1dxz       0.007321  0.000000  0.004909  0.006482  0.000000 -0.000000
  1O   1dyz       0.009678 -0.000000  0.006489 -0.004904 -0.000000  0.000000
  1O   1dx2y2     0.000003 -0.000082  0.000002 -0.000001 -0.000121  0.000403
  1O   1dxy       0.000001  0.000291  0.000001  0.000003  0.000429 -0.001430
  1O   2dz2      -0.000000  0.025263 -0.000000 -0.000000 -0.106982 -0.301498
  1O   2dxz       0.017641 -0.000000 -0.011881 -0.013117  0.000000 -0.000000
  1O   2dyz       0.023320  0.000000 -0.015702  0.009923 -0.000000  0.000000
  1O   2dx2y2    -0.000024  0.001637 -0.000025  0.000010 -0.001630  0.001189
  1O   2dxy      -0.000010 -0.005808 -0.000010 -0.000025  0.005782 -0.004219
  1O   1f0        0.000000 -0.001300  0.000000  0.000000  0.024374  0.023926
  1O   1f+1      -0.001632 -0.000000 -0.000930 -0.000924  0.000000 -0.000000
  1O   1f-1      -0.002158  0.000000 -0.001229  0.000699 -0.000000  0.000000
  1O   1f+2       0.000001 -0.000005 -0.000001  0.000000  0.000510 -0.000327
  1O   1f-2       0.000001  0.000017 -0.000000 -0.000001 -0.001808  0.001159
  1O   1f+3       0.000671  0.000000  0.000964 -0.000294 -0.000001 -0.000000
  1O   1f-3      -0.000262  0.000001 -0.000377 -0.000752 -0.000002 -0.000001
                     18        19        20        21        22        23   
                   1.12349   1.12496   1.37938   1.40880   1.66647   1.66889
                   0.00000   0.00000   0.00000   0.00000   0.00000   0.00000
                  --------  --------  --------  --------  --------  --------
  0O   1s         0.000000  0.001480 -0.000000  0.000000  0.000000 -0.002011
  0O   2s         0.000000  0.004322 -0.000000  0.000000  0.000000 -0.005477
  0O   3s        -0.000001 -0.022533  0.000001 -0.000000 -0.000000  0.022778
  0O   4s         0.000001  0.044436  0.000002 -0.000000  0.000000 -0.006593
  0O   5s        -0.000001 -0.020277  0.000008 -0.000001 -0.000001  0.083285
  0O   1pz       -0.000000 -0.003590 -0.000000  0.000000 -0.000000  0.008064
  0O   1px       -0.000005  0.000010  0.082996 -0.058197 -0.000012 -0.000021
  0O   1py       -0.000009 -0.000006 -0.062834 -0.076872 -0.000020  0.000013
  0O   2pz        0.000000  0.013229  0.000003 -0.000000 -0.000000  0.015032
  0O   2px        0.000020 -0.000033  0.203713 -0.158187  0.000006  0.000013
  0O   2py        0.000033  0.000021 -0.154224 -0.208948  0.000011 -0.000008
  0O   3pz       -0.000001 -0.029935  0.000003 -0.000000 -0.000000  0.029338
  0O   3px       -0.000044  0.000072 -0.085079  0.066381 -0.000012 -0.000020
  0O   3py       -0.000072 -0.000045  0.064410  0.087682 -0.000019  0.000013
  0O   1dz2      -0.000000 -0.000609 -0.000000  0.000000  0.000000 -0.000327
  0O   1dxz       0.000000 -0.000000 -0.017862  0.013159  0.000002  0.000003
  0O   1dyz       0.000000  0.000000  0.013523  0.017381  0.000003 -0.000002
  0O   1dx2y2     0.003453  0.000915  0.000001  0.000001 -0.000427  0.000188
  0O   1dxy       0.000973 -0.003246 -0.000001  0.000001 -0.000120 -0.000665
  0O   2dz2      -0.000000 -0.015594  0.000001 -0.000000 -0.000000  0.011496
  0O   2dxz       0.000005 -0.000008 -0.495873  0.376058  0.000022  0.000033
  0O   2dyz       0.000008  0.000005  0.375407  0.496732  0.000036 -0.000020
  0O   2dx2y2     0.589658  0.166177 -0.000021 -0.000057  0.822537 -0.231886
  0O   2dxy       0.166216 -0.589520  0.000053 -0.000022  0.231874  0.822579
  0O   1f0       -0.000000 -0.001462 -0.000000  0.000000  0.000000 -0.000519
  0O   1f+1       0.000001 -0.000001  0.009272 -0.007747 -0.000002 -0.000003
  0O   1f-1       0.000001  0.000001 -0.007019 -0.010234 -0.000003  0.000002
  0O   1f+2       0.011456  0.003272  0.000001  0.000001 -0.002187  0.000597
  0O   1f-2       0.003229 -0.011609 -0.000002  0.000001 -0.000617 -0.002118
  0O   1f+3       0.000003  0.000001 -0.000172 -0.000245  0.000003 -0.000001
  0O   1f-3      -0.000001  0.000002 -0.000439  0.000096 -0.000001 -0.000003
  1O   1s         0.000000  0.001480  0.000000 -0.000000 -0.000000  0.002011
  1O   2s         0.000000  0.004322  0.000000 -0.000000 -0.000000  0.005477
  1O   3s        -0.000001 -0.022533 -0.000001  0.000000  0.000000 -0.022778
  1O   4s         0.000001  0.044436 -0.000002  0.000000 -0.000000  0.006593
  1O   5s        -0.000001 -0.020277 -0.000008  0.000001  0.000001 -0.083285
  1O   1pz        0.000000  0.003590 -0.000000  0.000000 -0.000000  0.008064
  1O   1px        0.000005 -0.000010  0.082996 -0.058197 -0.000012 -0.000021
  1O   1py        0.000009  0.000006 -0.062834 -0.076872 -0.000020  0.000013
  1O   2pz       -0.000000 -0.013229  0.000003 -0.000000 -0.000000  0.015032
  1O   2px       -0.000020  0.000033  0.203713 -0.158187  0.000006  0.000013
  1O   2py       -0.000033 -0.000021 -0.154224 -0.208948  0.000011 -0.000008
  1O   3pz        0.000001  0.029935  0.000003 -0.000000 -0.000000  0.029338
  1O   3px        0.000044 -0.000072 -0.085079  0.066381 -0.000012 -0.000020
  1O   3py        0.000072  0.000045  0.064410  0.087682 -0.000019  0.000013
  1O   1dz2      -0.000000 -0.000609  0.000000 -0.000000 -0.000000  0.000327
  1O   1dxz       0.000000 -0.000000  0.017862 -0.013159 -0.000002 -0.000003
  1O   1dyz       0.000000  0.000000 -0.013523 -0.017381 -0.000003  0.000002
  1O   1dx2y2     0.003453  0.000915 -0.000001 -0.000001  0.000427 -0.000188
  1O   1dxy       0.000973 -0.003246  0.000001 -0.000001  0.000120  0.000665
  1O   2dz2      -0.000000 -0.015594 -0.000001  0.000000  0.000000 -0.011496
  1O   2dxz       0.000005 -0.000008  0.495873 -0.376058 -0.000022 -0.000033
  1O   2dyz       0.000008  0.000005 -0.375407 -0.496732 -0.000036  0.000020
  1O   2dx2y2     0.589658  0.166177  0.000021  0.000057 -0.822537  0.231886
  1O   2dxy       0.166216 -0.589520 -0.000053  0.000022 -0.231874 -0.822579
  1O   1f0        0.000000  0.001462 -0.000000  0.000000  0.000000 -0.000519
  1O   1f+1      -0.000001  0.000001  0.009272 -0.007747 -0.000002 -0.000003
  1O   1f-1      -0.000001 -0.000001 -0.007019 -0.010234 -0.000003  0.000002
  1O   1f+2      -0.011456 -0.003272  0.000001  0.000001 -0.002187  0.000597
  1O   1f-2      -0.003229  0.011609 -0.000002  0.000001 -0.000617 -0.002118
  1O   1f+3      -0.000003 -0.000001 -0.000172 -0.000245  0.000003 -0.000001
  1O   1f-3       0.000001 -0.000002 -0.000439  0.000096 -0.000001 -0.000003
                     24        25        26        27        28        29   
                   1.70777   2.13418   2.14870   2.23813   2.30073   2.31968
                   0.00000   0.00000   0.00000   0.00000   0.00000   0.00000
                  --------  --------  --------  --------  --------  --------
  0O   1s         0.017682 -0.000000  0.000000  0.004148 -0.000000 -0.000000
  0O   2s         0.054805 -0.000001  0.000000  0.003065 -0.000000 -0.000000
  0O   3s        -0.335999  0.000004 -0.000001  0.021844  0.000001  0.000000
  0O   4s         1.225154 -0.000006  0.000001 -0.189777  0.000013  0.000002
  0O   5s        -0.533801  0.000003 -0.000000 -2.316836  0.000021  0.000003
  0O   1pz       -0.213392 -0.000001  0.000000 -0.733337  0.000001 -0.000000
  0O   1px       -0.000000 -0.360525  0.275521 -0.000001 -0.670977 -0.508082
  0O   1py        0.000000  0.272950  0.363923  0.000001  0.507947 -0.671155
  0O   2pz        0.533598  0.000001 -0.000000  0.560330  0.000015  0.000002
  0O   2px        0.000000 -0.012406  0.004726  0.000002  0.845847  0.639134
  0O   2py       -0.000000  0.009392  0.006242 -0.000001 -0.640328  0.844270
  0O   3pz       -0.908779  0.000000  0.000000 -1.230158  0.000007  0.000001
  0O   3px       -0.000002 -0.651064  0.491032 -0.000001 -0.352796 -0.265232
  0O   3py        0.000001  0.492913  0.648579  0.000001  0.267076 -0.350361
  0O   1dz2      -0.011743 -0.000000  0.000000  0.034827 -0.000000 -0.000000
  0O   1dxz       0.000000  0.007216 -0.006201  0.000000 -0.008926 -0.006112
  0O   1dyz      -0.000000 -0.005464 -0.008190 -0.000000  0.006757 -0.008074
  0O   1dx2y2     0.000059  0.000000  0.000000  0.000061  0.000001 -0.000001
  0O   1dxy      -0.000209 -0.000001  0.000000 -0.000217 -0.000001 -0.000000
  0O   2dz2      -0.810341  0.000001 -0.000000 -0.599129  0.000007  0.000001
  0O   2dxz      -0.000001 -0.972646  0.733572 -0.000000 -0.049250 -0.034938
  0O   2dyz       0.000001  0.736379  0.968938  0.000000  0.037284 -0.046152
  0O   2dx2y2    -0.003729  0.000001  0.000002 -0.002036  0.000007 -0.000016
  0O   2dxy       0.013228 -0.000002  0.000001  0.007221 -0.000018 -0.000006
  0O   1f0       -0.048736 -0.000000  0.000000  0.070832  0.000000  0.000000
  0O   1f+1       0.000000 -0.032253  0.024337  0.000000 -0.037830 -0.028457
  0O   1f-1      -0.000000  0.024419  0.032145 -0.000000  0.028639 -0.037591
  0O   1f+2       0.000110  0.000001  0.000003 -0.000007  0.000000 -0.000000
  0O   1f-2      -0.000389 -0.000003  0.000001  0.000024 -0.000000 -0.000000
  0O   1f+3      -0.000001  0.000015  0.000051 -0.000001  0.000798 -0.002083
  0O   1f-3      -0.000003  0.000039 -0.000020 -0.000002  0.002037  0.000815
  1O   1s         0.017682 -0.000000  0.000000 -0.004148  0.000000  0.000000
  1O   2s         0.054805 -0.000001  0.000000 -0.003065  0.000000  0.000000
  1O   3s        -0.335999  0.000004 -0.000001 -0.021844 -0.000001 -0.000000
  1O   4s         1.225154 -0.000006  0.000001  0.189777 -0.000013 -0.000002
  1O   5s        -0.533801  0.000003 -0.000000  2.316836 -0.000021 -0.000003
  1O   1pz        0.213392  0.000001 -0.000000 -0.733337  0.000001 -0.000000
  1O   1px        0.000000  0.360525 -0.275521 -0.000001 -0.670977 -0.508082
  1O   1py       -0.000000 -0.272950 -0.363923  0.000001  0.507947 -0.671155
  1O   2pz       -0.533598 -0.000001  0.000000  0.560330  0.000015  0.000002
  1O   2px       -0.000000  0.012406 -0.004726  0.000002  0.845847  0.639134
  1O   2py        0.000000 -0.009392 -0.006242 -0.000001 -0.640328  0.844270
  1O   3pz        0.908779 -0.000000 -0.000000 -1.230158  0.000007  0.000001
  1O   3px        0.000002  0.651064 -0.491032 -0.000001 -0.352796 -0.265232
  1O   3py       -0.000001 -0.492913 -0.648579  0.000001  0.267076 -0.350361
  1O   1dz2      -0.011743 -0.000000  0.000000 -0.034827  0.000000  0.000000
  1O   1dxz       0.000000  0.007216 -0.006201 -0.000000  0.008926  0.006112
  1O   1dyz      -0.000000 -0.005464 -0.008190  0.000000 -0.006757  0.008074
  1O   1dx2y2     0.000059  0.000000  0.000000 -0.000061 -0.000001  0.000001
  1O   1dxy      -0.000209 -0.000001  0.000000  0.000217  0.000001  0.000000
  1O   2dz2      -0.810341  0.000001 -0.000000  0.599129 -0.000007 -0.000001
  1O   2dxz      -0.000001 -0.972646  0.733572  0.000000  0.049250  0.034938
  1O   2dyz       0.000001  0.736379  0.968938 -0.000000 -0.037284  0.046152
  1O   2dx2y2    -0.003729  0.000001  0.000002  0.002036 -0.000007  0.000016
  1O   2dxy       0.013228 -0.000002  0.000001 -0.007221  0.000018  0.000006
  1O   1f0        0.048736  0.000000 -0.000000  0.070832  0.000000  0.000000
  1O   1f+1      -0.000000  0.032253 -0.024337  0.000000 -0.037830 -0.028457
  1O   1f-1       0.000000 -0.024419 -0.032145 -0.000000  0.028639 -0.037591
  1O   1f+2      -0.000110 -0.000001 -0.000003 -0.000007  0.000000 -0.000000
  1O   1f-2       0.000389  0.000003 -0.000001  0.000024 -0.000000 -0.000000
  1O   1f+3       0.000001 -0.000015 -0.000051 -0.000001  0.000798 -0.002083
  1O   1f-3       0.000003 -0.000039  0.000020 -0.000002  0.002037  0.000815
                     30        31        32        33        34        35   
                   2.43226   2.63601   2.73471   2.75785   3.15652   3.71546
                   0.00000   0.00000   0.00000   0.00000   0.00000   0.00000
                  --------  --------  --------  --------  --------  --------
  0O   1s         0.081099 -0.074600  0.000000 -0.000000  0.035640 -0.060035
  0O   2s         0.273464 -0.222916  0.000000 -0.000000  0.124677 -0.250639
  0O   3s        -1.752350  0.014858 -0.000003  0.000000 -0.967374  4.888867
  0O   4s         2.286512  8.457531  0.000004 -0.000000  0.428668-24.549307
  0O   5s        -0.913976  7.106749 -0.000001  0.000000  0.029264  2.325557
  0O   1pz        0.419809 -0.278713  0.000000 -0.000000 -0.653554  0.302351
  0O   1px       -0.000000  0.000002 -0.580951  0.437851  0.000000  0.000000
  0O   1py        0.000000 -0.000001  0.439817  0.578354 -0.000000 -0.000000
  0O   2pz       -0.571763  8.734626 -0.000000  0.000000  0.735038-16.491119
  0O   2px       -0.000002 -0.000002  1.593539 -1.207753 -0.000001 -0.000000
  0O   2py        0.000001  0.000001 -1.206411 -1.595312  0.000001  0.000000
  0O   3pz        0.214136  2.111414 -0.000000  0.000000 -0.096604  0.847290
  0O   3px       -0.000001  0.000001 -0.379651  0.283573  0.000000  0.000000
  0O   3py        0.000001 -0.000001  0.287420  0.374569 -0.000000 -0.000000
  0O   1dz2      -0.014027  0.015986 -0.000000  0.000000 -0.014921 -0.036502
  0O   1dxz      -0.000000  0.000000 -0.018978  0.014825 -0.000000 -0.000000
  0O   1dyz       0.000000 -0.000000  0.014368  0.019582  0.000000  0.000000
  0O   1dx2y2    -0.000511  0.000424  0.000001  0.000002 -0.000303  0.000274
  0O   1dxy       0.001814 -0.001505 -0.000003  0.000001  0.001075 -0.000973
  0O   2dz2       0.019379  3.388675  0.000000 -0.000000  0.651905 -5.827857
  0O   2dxz      -0.000004  0.000000  0.962484 -0.733456 -0.000000 -0.000000
  0O   2dyz       0.000002 -0.000000 -0.728662 -0.968816  0.000000  0.000000
  0O   2dx2y2    -0.000672  0.001977  0.000002  0.000006 -0.000839  0.000379
  0O   2dxy       0.002384 -0.007013 -0.000006  0.000002  0.002974 -0.001343
  0O   1f0       -0.002058  0.230013 -0.000000  0.000000 -0.203363 -0.397365
  0O   1f+1      -0.000000  0.000000  0.053783 -0.041354 -0.000000 -0.000000
  0O   1f-1       0.000000 -0.000000 -0.040717 -0.054625  0.000000  0.000000
  0O   1f+2      -0.000049  0.000231  0.000001  0.000002  0.002691 -0.000996
  0O   1f-2       0.000175 -0.000819 -0.000002  0.000001 -0.009547  0.003532
  0O   1f+3      -0.000001  0.000002  0.000951  0.002607  0.000001  0.000001
  0O   1f-3      -0.000004  0.000006  0.002429 -0.001021  0.000005  0.000004
  1O   1s         0.081099  0.074600  0.000000 -0.000000  0.035640  0.060035
  1O   2s         0.273464  0.222916  0.000000 -0.000000  0.124677  0.250639
  1O   3s        -1.752350 -0.014858 -0.000003  0.000000 -0.967374 -4.888867
  1O   4s         2.286512 -8.457531  0.000004 -0.000000  0.428667 24.549307
  1O   5s        -0.913976 -7.106749 -0.000001  0.000000  0.029265 -2.325557
  1O   1pz       -0.419809 -0.278713 -0.000000  0.000000  0.653554  0.302351
  1O   1px        0.000000  0.000002  0.580951 -0.437851 -0.000000  0.000000
  1O   1py       -0.000000 -0.000001 -0.439817 -0.578354  0.000000 -0.000000
  1O   2pz        0.571763  8.734625  0.000000 -0.000000 -0.735037-16.491119
  1O   2px        0.000002 -0.000002 -1.593539  1.207753  0.000001 -0.000000
  1O   2py       -0.000001  0.000001  1.206411  1.595312 -0.000001  0.000000
  1O   3pz       -0.214136  2.111414  0.000000 -0.000000  0.096604  0.847290
  1O   3px        0.000001  0.000001  0.379651 -0.283573 -0.000000  0.000000
  1O   3py       -0.000001 -0.000001 -0.287420 -0.374569  0.000000 -0.000000
  1O   1dz2      -0.014027 -0.015986 -0.000000  0.000000 -0.014921  0.036502
  1O   1dxz      -0.000000 -0.000000 -0.018978  0.014825 -0.000000  0.000000
  1O   1dyz       0.000000  0.000000  0.014368  0.019582  0.000000 -0.000000
  1O   1dx2y2    -0.000511 -0.000424  0.000001  0.000002 -0.000303 -0.000274
  1O   1dxy       0.001814  0.001505 -0.000003  0.000001  0.001075  0.000973
  1O   2dz2       0.019379 -3.388675  0.000000 -0.000000  0.651905  5.827857
  1O   2dxz      -0.000004 -0.000000  0.962484 -0.733456 -0.000000  0.000000
  1O   2dyz       0.000002  0.000000 -0.728662 -0.968816  0.000000 -0.000000
  1O   2dx2y2    -0.000672 -0.001977  0.000002  0.000006 -0.000839 -0.000379
  1O   2dxy       0.002384  0.007013 -0.000006  0.000002  0.002974  0.001343
  1O   1f0        0.002058  0.230013  0.000000 -0.000000  0.203363 -0.397365
  1O   1f+1       0.000000  0.000000 -0.053783  0.041354  0.000000 -0.000000
  1O   1f-1      -0.000000 -0.000000  0.040717  0.054625 -0.000000  0.000000
  1O   1f+2       0.000049  0.000231 -0.000001 -0.000002 -0.002691 -0.000996
  1O   1f-2      -0.000175 -0.000819  0.000002 -0.000001  0.009547  0.003532
  1O   1f+3       0.000001  0.000002 -0.000951 -0.002607 -0.000001  0.000001
  1O   1f-3       0.000004  0.000006 -0.002429  0.001021 -0.000005  0.000004
                     36        37        38        39        40        41   
                   4.43566   4.43750   4.65376   4.65942   4.66326   4.68947
                   0.00000   0.00000   0.00000   0.00000   0.00000   0.00000
                  --------  --------  --------  --------  --------  --------
  0O   1s         0.000000  0.000635  0.000000  0.000000 -0.000001  0.000000
  0O   2s         0.000000  0.002180  0.000001  0.000000 -0.000003  0.000000
  0O   3s        -0.000001 -0.017540 -0.000014 -0.000003  0.000024 -0.000001
  0O   4s         0.000001  0.010178  0.000034  0.000007 -0.000059  0.000001
  0O   5s        -0.000000 -0.000431 -0.000026 -0.000005  0.000040 -0.000001
  0O   1pz       -0.000001 -0.011145 -0.000001 -0.000000  0.000001  0.000000
  0O   1px       -0.000002 -0.000003  0.094955  0.016348  0.054233 -0.080562
  0O   1py       -0.000003  0.000002 -0.071886  0.021597 -0.041059 -0.106414
  0O   2pz        0.000001  0.015186  0.000012  0.000002 -0.000021  0.000000
  0O   2px        0.000003  0.000005 -0.047732 -0.010190 -0.023937  0.038109
  0O   2py        0.000005 -0.000003  0.036136 -0.013462  0.018122  0.050338
  0O   3pz       -0.000000 -0.004215 -0.000008 -0.000001  0.000012 -0.000000
  0O   3px        0.000000 -0.000000 -0.003883  0.000227 -0.003751  0.004248
  0O   3py        0.000000  0.000000  0.002940  0.000299  0.002840  0.005611
  0O   1dz2       0.000000  0.003119 -0.000000 -0.000000  0.000001 -0.000000
  0O   1dxz      -0.000000 -0.000000 -0.284026 -0.046905 -0.166738  0.246104
  0O   1dyz      -0.000001  0.000000  0.215024 -0.061965  0.126234  0.325075
  0O   1dx2y2     0.094205 -0.026581 -0.000001  0.000003  0.000001 -0.000002
  0O   1dxy       0.026564  0.094264  0.000004  0.000001 -0.000002 -0.000001
  0O   2dz2       0.000000  0.007764  0.000001  0.000000 -0.000003  0.000000
  0O   2dxz      -0.000001 -0.000002  0.186572  0.030513  0.109856 -0.160579
  0O   2dyz      -0.000001  0.000001 -0.141246  0.040310 -0.083170 -0.212107
  0O   2dx2y2    -0.153636  0.043353  0.000000  0.000001  0.000000  0.000000
  0O   2dxy      -0.043323 -0.153745 -0.000000  0.000000 -0.000000  0.000000
  0O   1f0       -0.000000 -0.001397 -0.000000  0.000000 -0.000000  0.000000
  0O   1f+1       0.000000 -0.000000 -0.334171 -0.055350 -0.195886  0.287284
  0O   1f-1       0.000000  0.000000  0.252987 -0.073121  0.148302  0.379470
  0O   1f+2       0.595679 -0.167944  0.000000 -0.000003 -0.000002 -0.000003
  0O   1f-2       0.167971  0.595584 -0.000000 -0.000001  0.000004 -0.000001
  0O   1f+3      -0.000001  0.000000  0.125576 -0.622739 -0.214201 -0.119631
  0O   1f-3       0.000000  0.000001  0.320728  0.243837 -0.547037  0.046847
  1O   1s         0.000000  0.000635 -0.000000 -0.000000  0.000001 -0.000000
  1O   2s         0.000000  0.002180 -0.000001 -0.000000  0.000003 -0.000000
  1O   3s        -0.000001 -0.017540  0.000014  0.000003 -0.000024  0.000001
  1O   4s         0.000001  0.010178 -0.000034 -0.000007  0.000059 -0.000001
  1O   5s        -0.000000 -0.000431  0.000026  0.000005 -0.000040  0.000001
  1O   1pz        0.000001  0.011145 -0.000001 -0.000000  0.000001  0.000000
  1O   1px        0.000002  0.000003  0.094955  0.016348  0.054233 -0.080562
  1O   1py        0.000003 -0.000002 -0.071886  0.021597 -0.041059 -0.106414
  1O   2pz       -0.000001 -0.015186  0.000012  0.000002 -0.000021  0.000000
  1O   2px       -0.000003 -0.000005 -0.047732 -0.010190 -0.023937  0.038109
  1O   2py       -0.000005  0.000003  0.036136 -0.013462  0.018122  0.050338
  1O   3pz        0.000000  0.004215 -0.000008 -0.000001  0.000012 -0.000000
  1O   3px       -0.000000  0.000000 -0.003883  0.000227 -0.003751  0.004248
  1O   3py       -0.000000 -0.000000  0.002940  0.000299  0.002840  0.005611
  1O   1dz2       0.000000  0.003119  0.000000  0.000000 -0.000001  0.000000
  1O   1dxz      -0.000000 -0.000000  0.284026  0.046905  0.166738 -0.246104
  1O   1dyz      -0.000001  0.000000 -0.215024  0.061965 -0.126234 -0.325075
  1O   1dx2y2     0.094205 -0.026581  0.000001 -0.000003 -0.000001  0.000002
  1O   1dxy       0.026564  0.094264 -0.000004 -0.000001  0.000002  0.000001
  1O   2dz2       0.000000  0.007764 -0.000001 -0.000000  0.000003 -0.000000
  1O   2dxz      -0.000001 -0.000002 -0.186572 -0.030513 -0.109856  0.160579
  1O   2dyz      -0.000001  0.000001  0.141246 -0.040310  0.083170  0.212107
  1O   2dx2y2    -0.153636  0.043353 -0.000000 -0.000001 -0.000000 -0.000000
  1O   2dxy      -0.043323 -0.153745  0.000000 -0.000000  0.000000 -0.000000
  1O   1f0        0.000000  0.001397 -0.000000  0.000000 -0.000000  0.000000
  1O   1f+1      -0.000000  0.000000 -0.334171 -0.055350 -0.195886  0.287284
  1O   1f-1      -0.000000 -0.000000  0.252987 -0.073121  0.148302  0.379470
  1O   1f+2      -0.595679  0.167944  0.000000 -0.000003 -0.000002 -0.000003
  1O   1f-2      -0.167971 -0.595584 -0.000000 -0.000001  0.000004 -0.000001
  1O   1f+3       0.000001 -0.000000  0.125576 -0.622739 -0.214201 -0.119631
  1O   1f-3      -0.000000 -0.000001  0.320728  0.243837 -0.547037  0.046847
                     42        43        44        45        46        47   
                   5.20918   5.20957   5.39807   5.91676   5.92199   6.05053
                   0.00000   0.00000   0.00000   0.00000   0.00000   0.00000
                  --------  --------  --------  --------  --------  --------
  0O   1s        -0.000000  0.000001  0.022925 -0.000000  0.001207 -0.000000
  0O   2s        -0.000000  0.000001  0.059892 -0.000001  0.002766 -0.000000
  0O   3s         0.000000 -0.000005 -0.311148  0.000005 -0.017307 -0.000003
  0O   4s        -0.000001  0.000008  0.617978 -0.000005  0.017556  0.000025
  0O   5s         0.000000 -0.000004 -0.237792  0.000001 -0.004888 -0.000002
  0O   1pz        0.000001 -0.000010 -0.201906  0.000002 -0.007017  0.000000
  0O   1px        0.000871 -0.001185 -0.000000 -0.000001  0.000002 -0.000001
  0O   1py        0.001151  0.000897  0.000000 -0.000001 -0.000001 -0.000002
  0O   2pz       -0.000001  0.000011  0.189680 -0.000002  0.007112  0.000019
  0O   2px       -0.009525  0.010782 -0.000001 -0.000003  0.000005  0.000000
  0O   2py       -0.012581 -0.008162  0.000001 -0.000005 -0.000003  0.000000
  0O   3pz        0.000001 -0.000010 -0.311733  0.000001 -0.005371 -0.000001
  0O   3px        0.001590 -0.001877 -0.000000  0.000002 -0.000003  0.000001
  0O   3py        0.002101  0.001421  0.000000  0.000003  0.000002  0.000002
  0O   1dz2      -0.000002  0.000024  0.713696 -0.000004  0.013465  0.000001
  0O   1dxz       0.000472 -0.000579  0.000000  0.000002 -0.000003 -0.000003
  0O   1dyz       0.000623  0.000438 -0.000000  0.000003  0.000002 -0.000005
  0O   1dx2y2     0.000005  0.000002 -0.004434  0.782247  0.220704  0.736528
  0O   1dxy       0.000002 -0.000007  0.015729  0.220752 -0.782076  0.207830
  0O   2dz2       0.000001 -0.000011 -0.513615  0.000002 -0.005720  0.000006
  0O   2dxz      -0.006714  0.007487 -0.000001 -0.000004  0.000008  0.000001
  0O   2dyz      -0.008868 -0.005667  0.000001 -0.000007 -0.000005  0.000001
  0O   2dx2y2     0.000000 -0.000000  0.001838 -0.342690 -0.096643 -0.357637
  0O   2dxy      -0.000000  0.000001 -0.006520 -0.096708  0.342461 -0.100917
  0O   1f0       -0.000000  0.000003  0.182103 -0.000001  0.005094  0.000002
  0O   1f+1      -0.002817  0.002891 -0.000001 -0.000003  0.000006  0.000003
  0O   1f-1      -0.003720 -0.002188  0.000000 -0.000005 -0.000004  0.000005
  0O   1f+2      -0.000001 -0.000000  0.001346 -0.076936 -0.021694  0.315045
  0O   1f-2      -0.000000  0.000001 -0.004773 -0.021711  0.076874  0.088896
  0O   1f+3      -0.685740 -0.268514  0.000006  0.000005  0.000002  0.000001
  0O   1f-3       0.268513 -0.685744  0.000023 -0.000001  0.000007 -0.000000
  1O   1s        -0.000000  0.000001  0.022925 -0.000000  0.001207  0.000000
  1O   2s        -0.000000  0.000001  0.059892 -0.000001  0.002766  0.000000
  1O   3s         0.000000 -0.000005 -0.311148  0.000005 -0.017307  0.000003
  1O   4s        -0.000001  0.000008  0.617978 -0.000005  0.017556 -0.000025
  1O   5s         0.000000 -0.000004 -0.237792  0.000001 -0.004888  0.000002
  1O   1pz       -0.000001  0.000010  0.201906 -0.000002  0.007017  0.000000
  1O   1px       -0.000871  0.001185  0.000000  0.000001 -0.000002 -0.000001
  1O   1py       -0.001151 -0.000897 -0.000000  0.000001  0.000001 -0.000002
  1O   2pz        0.000001 -0.000011 -0.189680  0.000002 -0.007112  0.000019
  1O   2px        0.009525 -0.010782  0.000001  0.000003 -0.000005  0.000000
  1O   2py        0.012581  0.008162 -0.000001  0.000005  0.000003  0.000000
  1O   3pz       -0.000001  0.000010  0.311733 -0.000001  0.005371 -0.000001
  1O   3px       -0.001590  0.001877  0.000000 -0.000002  0.000003  0.000001
  1O   3py       -0.002101 -0.001421 -0.000000 -0.000003 -0.000002  0.000002
  1O   1dz2      -0.000002  0.000024  0.713696 -0.000004  0.013465 -0.000001
  1O   1dxz       0.000472 -0.000579  0.000000  0.000002 -0.000003  0.000003
  1O   1dyz       0.000623  0.000438 -0.000000  0.000003  0.000002  0.000005
  1O   1dx2y2     0.000005  0.000002 -0.004434  0.782247  0.220704 -0.736528
  1O   1dxy       0.000002 -0.000007  0.015729  0.220752 -0.782076 -0.207830
  1O   2dz2       0.000001 -0.000011 -0.513615  0.000002 -0.005720 -0.000006
  1O   2dxz      -0.006714  0.007487 -0.000001 -0.000004  0.000008 -0.000001
  1O   2dyz      -0.008868 -0.005667  0.000001 -0.000007 -0.000005 -0.000001
  1O   2dx2y2     0.000000 -0.000000  0.001838 -0.342690 -0.096643  0.357637
  1O   2dxy      -0.000000  0.000001 -0.006520 -0.096708  0.342461  0.100917
  1O   1f0        0.000000 -0.000003 -0.182103  0.000001 -0.005094  0.000002
  1O   1f+1       0.002817 -0.002891  0.000001  0.000003 -0.000006  0.000003
  1O   1f-1       0.003720  0.002188 -0.000000  0.000005  0.000004  0.000005
  1O   1f+2       0.000001  0.000000 -0.001346  0.076936  0.021694  0.315045
  1O   1f-2       0.000000 -0.000001  0.004773  0.021711 -0.076874  0.088896
  1O   1f+3       0.685740  0.268514 -0.000006 -0.000005 -0.000002  0.000001
  1O   1f-3      -0.268513  0.685744 -0.000023  0.000001 -0.000007 -0.000000
                     48        49        50        51        52        53   
                   6.05498   6.13674   6.15840   6.24256   6.24439   6.57895
                   0.00000   0.00000   0.00000   0.00000   0.00000   0.00000
                  --------  --------  --------  --------  --------  --------
  0O   1s        -0.000652  0.000000 -0.000000  0.000000  0.000513 -0.000000
  0O   2s        -0.000954  0.000000 -0.000000  0.000000  0.000956 -0.000000
  0O   3s        -0.012491 -0.000000  0.000000 -0.000038 -0.107507  0.000009
  0O   4s         0.111438 -0.000000  0.000000  0.000274  0.765945 -0.000067
  0O   5s        -0.008730  0.000000 -0.000000  0.000025  0.070531 -0.000010
  0O   1pz        0.001677  0.000000 -0.000000  0.000003  0.007128 -0.000000
  0O   1px       -0.000003  0.035658 -0.027016  0.000001  0.000002  0.079427
  0O   1py        0.000002 -0.026995 -0.035685  0.000001 -0.000001 -0.060132
  0O   2pz        0.082261 -0.000000  0.000000  0.000200  0.560695 -0.000050
  0O   2px        0.000001 -0.941551  0.712460  0.000001  0.000003  0.082042
  0O   2py       -0.000000  0.712821  0.941074  0.000002 -0.000002 -0.062111
  0O   3pz       -0.005036  0.000000 -0.000000  0.000008  0.021535 -0.000004
  0O   3px        0.000002 -0.142645  0.107554 -0.000001 -0.000003 -0.035706
  0O   3py       -0.000001  0.107993  0.142066 -0.000002  0.000002  0.027032
  0O   1dz2       0.006107 -0.000000  0.000000 -0.000005 -0.013872  0.000002
  0O   1dxz      -0.000005  0.573723 -0.434000  0.000006  0.000013  0.597823
  0O   1dyz       0.000003 -0.434349 -0.573262  0.000010 -0.000008 -0.452592
  0O   1dx2y2    -0.207245  0.000002  0.000005 -0.323426  0.092523 -0.000005
  0O   1dxy       0.734460 -0.000005  0.000002 -0.091303 -0.327740  0.000013
  0O   2dz2       0.027517  0.000000 -0.000000  0.000079  0.220830 -0.000021
  0O   2dxz       0.000001 -1.218410  0.921350 -0.000003 -0.000007 -0.320925
  0O   2dyz      -0.000001  0.922423  1.216992 -0.000006  0.000005  0.242962
  0O   2dx2y2     0.100041 -0.000001 -0.000002  0.465101 -0.131774  0.000006
  0O   2dxy      -0.354541  0.000002 -0.000001  0.131299  0.466779 -0.000014
  0O   1f0        0.006526 -0.000000  0.000000  0.000018  0.051134 -0.000005
  0O   1f+1       0.000005 -0.505575  0.383478 -0.000003 -0.000007 -0.361410
  0O   1f-1      -0.000003  0.382757  0.506528 -0.000005  0.000005  0.273612
  0O   1f+2      -0.090338 -0.000000 -0.000001  0.813821 -0.228969  0.000005
  0O   1f-2       0.320143  0.000001 -0.000000  0.229745  0.811072 -0.000012
  0O   1f+3      -0.000000 -0.000553 -0.001735 -0.000003  0.000001 -0.000092
  0O   1f-3      -0.000001 -0.001412  0.000680  0.000001  0.000004 -0.000236
  1O   1s         0.000652  0.000000 -0.000000 -0.000000 -0.000513  0.000000
  1O   2s         0.000954  0.000000 -0.000000 -0.000000 -0.000956  0.000000
  1O   3s         0.012491 -0.000000  0.000000  0.000038  0.107507 -0.000009
  1O   4s        -0.111438 -0.000000  0.000000 -0.000274 -0.765945  0.000067
  1O   5s         0.008730  0.000000 -0.000000 -0.000025 -0.070531  0.000010
  1O   1pz        0.001677 -0.000000  0.000000  0.000003  0.007128 -0.000000
  1O   1px       -0.000003 -0.035658  0.027016  0.000001  0.000002  0.079427
  1O   1py        0.000002  0.026995  0.035685  0.000001 -0.000001 -0.060132
  1O   2pz        0.082261  0.000000 -0.000000  0.000200  0.560695 -0.000050
  1O   2px        0.000001  0.941551 -0.712460  0.000001  0.000003  0.082042
  1O   2py       -0.000000 -0.712821 -0.941074  0.000002 -0.000002 -0.062111
  1O   3pz       -0.005036 -0.000000  0.000000  0.000008  0.021535 -0.000004
  1O   3px        0.000002  0.142645 -0.107554 -0.000001 -0.000003 -0.035706
  1O   3py       -0.000001 -0.107993 -0.142066 -0.000002  0.000002  0.027032
  1O   1dz2      -0.006107 -0.000000  0.000000  0.000005  0.013872 -0.000002
  1O   1dxz       0.000005  0.573723 -0.434000 -0.000006 -0.000013 -0.597823
  1O   1dyz      -0.000003 -0.434349 -0.573262 -0.000010  0.000008  0.452592
  1O   1dx2y2     0.207245  0.000002  0.000005  0.323426 -0.092523  0.000005
  1O   1dxy      -0.734460 -0.000005  0.000002  0.091303  0.327740 -0.000013
  1O   2dz2      -0.027517  0.000000 -0.000000 -0.000079 -0.220830  0.000021
  1O   2dxz      -0.000001 -1.218410  0.921350  0.000003  0.000007  0.320925
  1O   2dyz       0.000001  0.922423  1.216992  0.000006 -0.000005 -0.242962
  1O   2dx2y2    -0.100041 -0.000001 -0.000002 -0.465101  0.131774 -0.000006
  1O   2dxy       0.354541  0.000002 -0.000001 -0.131299 -0.466779  0.000014
  1O   1f0        0.006526  0.000000 -0.000000  0.000018  0.051134 -0.000005
  1O   1f+1       0.000005  0.505575 -0.383478 -0.000003 -0.000007 -0.361410
  1O   1f-1      -0.000003 -0.382757 -0.506528 -0.000005  0.000005  0.273612
  1O   1f+2      -0.090338  0.000000  0.000001  0.813821 -0.228969  0.000005
  1O   1f-2       0.320143 -0.000001  0.000000  0.229745  0.811072 -0.000012
  1O   1f+3      -0.000000  0.000553  0.001735 -0.000003  0.000001 -0.000092
  1O   1f-3      -0.000001  0.001412 -0.000680  0.000001  0.000004 -0.000236
                     54        55        56        57        58        59   
                   6.60733   6.63914   7.82890   7.85894   7.88388   7.96555
                   0.00000   0.00000   0.00000   0.00000   0.00000   0.00000
                  --------  --------  --------  --------  --------  --------
  0O   1s        -0.000000  0.005728 -0.000000 -0.000000  0.037790  0.018182
  0O   2s        -0.000000  0.002547 -0.000001 -0.000000  0.150738  0.024138
  0O   3s         0.000001 -1.830808  0.000016  0.000004 -1.629155  1.935738
  0O   4s        -0.000009 13.986176 -0.000005 -0.000002  0.544846-13.939923
  0O   5s        -0.000001  1.936394 -0.000001 -0.000000  0.121208  1.240915
  0O   1pz       -0.000000  0.139899  0.000009  0.000002 -0.887540 -0.283397
  0O   1px        0.060583  0.000000  0.043607  0.032967  0.000001  0.000000
  0O   1py        0.080024 -0.000000 -0.033013  0.043546 -0.000000 -0.000000
  0O   2pz       -0.000007 10.363580 -0.000008 -0.000002  0.832936 -9.926472
  0O   2px        0.061752  0.000000 -1.201303 -0.908254 -0.000014  0.000000
  0O   2py        0.081568 -0.000000  0.909470 -1.199697  0.000006  0.000000
  0O   3pz       -0.000000  0.638054 -0.000002 -0.000001  0.186054  0.600538
  0O   3px       -0.027015 -0.000000  0.110168  0.082962  0.000001 -0.000000
  0O   3py       -0.035683  0.000000 -0.083405  0.109583 -0.000001  0.000000
  0O   1dz2       0.000000 -0.429512  0.000005  0.000001 -0.556464 -0.908860
  0O   1dxz       0.451951  0.000003 -0.393234 -0.298178 -0.000005  0.000000
  0O   1dyz       0.596976 -0.000001  0.297705 -0.393858  0.000002 -0.000000
  0O   1dx2y2     0.000012 -0.004118  0.000001 -0.000002 -0.000471 -0.000872
  0O   1dxy       0.000005  0.014607 -0.000002 -0.000001  0.001670  0.003092
  0O   2dz2      -0.000003  4.219329 -0.000011 -0.000003  1.172176 -3.402249
  0O   2dxz      -0.242728 -0.000001 -0.970921 -0.734392 -0.000011 -0.000000
  0O   2dyz      -0.320616  0.000001  0.735055 -0.970046  0.000005  0.000000
  0O   2dx2y2    -0.000012  0.005575 -0.000000  0.000001  0.000117  0.000006
  0O   2dxy      -0.000005 -0.019774  0.000001  0.000000 -0.000413 -0.000022
[...]
-------------------------------
  0 O s       :     3.660708  s :     3.660708
      pz      :     1.266093  p :     4.178517
      px      :     1.586105
      py      :     1.326319
      dz2     :     0.065921  d :     0.144524
      dxz     :     0.044374
      dyz     :     0.034109
      dx2y2   :     0.000009
      dxy     :     0.000111
      f0      :     0.007148  f :     0.016252
      f+1     :     0.005166
      f-1     :     0.003896
      f+2     :     0.000001
      f-2     :     0.000011
      f+3     :     0.000010
      f-3     :     0.000020
  1 O s       :     3.660708  s :     3.660708
      pz      :     1.266093  p :     4.178517
      px      :     1.586105
      py      :     1.326319
      dz2     :     0.065921  d :     0.144524
      dxz     :     0.044374
      dyz     :     0.034109
      dx2y2   :     0.000009
      dxy     :     0.000111
      f0      :     0.007148  f :     0.016252
      f+1     :     0.005166
      f-1     :     0.003896
      f+2     :     0.000001
      f-2     :     0.000011
      f+3     :     0.000010
      f-3     :     0.000020


                      *****************************
                      * MAYER POPULATION ANALYSIS *
                      *****************************

  NA   - Mulliken gross atomic population
  ZA   - Total nuclear charge
  QA   - Mulliken gross atomic charge
  VA   - Mayer's total valence
  BVA  - Mayer's bonded valence
  FA   - Mayer's free valence

  ATOM       NA         ZA         QA         VA         BVA        FA
  0 O      8.0000     8.0000    -0.0000     1.8216     1.8216    -0.0000
  1 O      8.0000     8.0000     0.0000     1.8216     1.8216    -0.0000

  Mayer bond orders larger than 0.100000
B(  0-O ,  1-O ) :   1.8216 

-------
TIMINGS
-------

Total SCF time: 0 days 0 hours 0 min 1 sec 

Total time                  ....       1.390 sec
Sum of individual times     ....       1.310 sec  ( 94.2%)

Fock matrix formation       ....       0.938 sec  ( 67.5%)
  Split-RI-J                ....       0.225 sec  ( 24.0% of F)
  XC integration            ....       0.290 sec  ( 30.9% of F)
    Basis function eval.    ....       0.085 sec  ( 29.4% of XC)
    Density eval.           ....       0.081 sec  ( 28.0% of XC)
    XC-Functional eval.     ....       0.030 sec  ( 10.2% of XC)
    XC-Potential eval.      ....       0.082 sec  ( 28.2% of XC)
Diagonalization             ....       0.001 sec  (  0.1%)
Density matrix formation    ....       0.000 sec  (  0.0%)
Population analysis         ....       0.001 sec  (  0.1%)
Initial guess               ....       0.001 sec  (  0.1%)
Orbital Transformation      ....       0.000 sec  (  0.0%)
Orbital Orthonormalization  ....       0.000 sec  (  0.0%)
DIIS solution               ....       0.000 sec  (  0.0%)
SOSCF solution              ....       0.028 sec  (  2.0%)
Grid generation             ....       0.340 sec  ( 24.5%)


-------------------------------------------------------------------------------
                          DFT DISPERSION CORRECTION                            
                                                                               
                                 DFTD4 V2.0                                    
-------------------------------------------------------------------------------
The BLYP functional is recognized
Active option DFTDOPT                   ...         5   

-------------------------   ----------------
Dispersion correction           -0.000667508
-------------------------   ----------------


-------------------------   --------------------
FINAL SINGLE POINT ENERGY      -150.332353686759
-------------------------   --------------------

                                *** OPTIMIZATION RUN DONE ***

                            ***************************************
                            *     ORCA property calculations      *
                            ***************************************

                                    ---------------------
                                    Active property flags
                                    ---------------------
   (+) Dipole Moment


------------------------------------------------------------------------------
                       ORCA ELECTRIC PROPERTIES CALCULATION
------------------------------------------------------------------------------

Dipole Moment Calculation                       ... on
Quadrupole Moment Calculation                   ... off
Polarizability Calculation                      ... off
GBWName                                         ... dioxygen@water.gbw
Electron density file                           ... dioxygen@water.scfp
The origin for moment calculation is the CENTER OF MASS  = ( 0.000000,  0.000000  0.944863)

-------------
DIPOLE MOMENT
-------------
                                X             Y             Z
Electronic contribution:      0.00000       0.00000       0.00000
Nuclear contribution   :      0.00000       0.00000       0.00000
                        -----------------------------------------
Total Dipole Moment    :      0.00000       0.00000       0.00000
                        -----------------------------------------
Magnitude (a.u.)       :      0.00000
Magnitude (Debye)      :      0.00000



--------------------
Rotational spectrum 
--------------------
 
Rotational constants in cm-1:     0.000000     1.395586     1.395586 
Rotational constants in MHz :     0.000000 41838.618775 41838.618775 

 Dipole components along the rotational axes: 
x,y,z [a.u.] :     0.000000     0.000000     0.000000 
x,y,z [Debye]:     0.000000     0.000000     0.000000 

 

-------------------------------------------------------------------------------
                               ORCA SCF HESSIAN
-------------------------------------------------------------------------------

Hessian of the Kohn-Sham DFT energy:
Kohn-Sham wavefunction type                      ... RKS
Hartree-Fock exchange scaling                    ...    0.000
Number of operators                              ...    1
Number of atoms                                  ...    2
Basis set dimensions                             ...   62
Integral neglect threshold                       ... 2.5e-11
Integral primitive cutoff                        ... 2.5e-12

Setting up DFT Hessian calculations              ... 
Electron density on the grid                     ... found on disk
Electron density on the final grid               ... found on disk
Building xc-kernel on the grid                   ... done   (      0.0 sec)
Building xc-kernel on the final grid             ... done   (      0.0 sec)
                                                     done   (      0.1 sec)

Nuclear repulsion Hessian                        ... done   (      0.0 sec)

----------------------------------------------
Forming right-hand sides of CP-SCF equations     ...
----------------------------------------------
One electron integral derivatives                ... done   (      0.8 sec)
Transforming the overlap derivative matrices     ... done   (      0.0 sec)
Adding tr(S(x)F(y) C-PCM term to the hessian     ... done   (      0.1 sec)
Making the Q(x) pseudodensities                  ... done   (      0.0 sec)
Adding the E*S(x)*S(y) terms to the Hessian      ... done   (      0.0 sec)
Calculating energy weighted overlap derivatives  ... done   (      0.0 sec)
Two electron integral derivatives (RI)           ... done   (      0.2 sec)
Exchange-correlation integral derivatives        ... done   (      1.3 sec)
tr(F(y)Q(x)) contribution to the Hessian         ... done   (      0.0 sec)
Response fock operator R(S(x)) (RI)              ... done   (      0.2 sec)
XC Response fock operator R(S(x))                ... done   (      0.3 sec)
tr(F(y)S(x)) contribution to the Hessian         ... done   (      0.0 sec)
Transforming and finalizing RHSs                 ... done   (      0.0 sec)

----------------------------------------------
Solving the CP-SCF equations (RI)                ...
----------------------------------------------
     CP-SCF ITERATION   0: 
     CP-SCF ITERATION   1:      0.000028866716
     CP-SCF ITERATION   2:      0.000004909115
     CP-SCF ITERATION   3:      0.000000381840
     CP-SCF ITERATION   4:      0.000001830079
     CP-SCF ITERATION   5:      0.000101778838
     CP-SCF ITERATION   6:      0.076802444701
     CP-SCF ITERATION   7:      0.002180260852
     CP-SCF ITERATION   8:      0.000006487985
     CP-SCF ITERATION   9:      0.000000188506
     CP-SCF ITERATION  10:      0.000001606828
     CP-SCF ITERATION  11:      0.000001340401
     CP-SCF ITERATION  12:      0.000000794927
     CP-SCF ITERATION  13:      0.000045770532
     CP-SCF ITERATION  14:      0.000022101873
     CP-SCF ITERATION  15:      0.000002398970
     CP-SCF ITERATION  16:      0.000000203078
     CP-SCF ITERATION  17:      0.000000339859
     CP-SCF ITERATION  18:      0.000000678044
     CP-SCF ITERATION  19:      0.000003310204
     CP-SCF ITERATION  20:      0.000000363334
     CP-SCF ITERATION  21:      0.001431451552
     CP-SCF ITERATION  22:      0.000006949783
     CP-SCF ITERATION  23:      0.000000064279
     CP-SCF ITERATION  24:      0.000000011822
     CP-SCF ITERATION  25:      0.000000009142

                                                 ... done   (     12.2 sec)
Forming perturbed density Hessian contributions  ... done   (      0.0 sec)
Making the perturbed densities                   ... done   (      0.0 sec)
Calculating [Q*(d^2 A/dXdY)*Q  ] C-PCM term      ... done   (      0.0 sec)
Calculating [d^2(V_N)/(dXdY)*Q ] C-PCM term      ... done   (      0.0 sec)
Calculating [d^2(V_el)/(dXdY)*Q] C-PCM term      ... done   (      0.1 sec)
Calculating C-PCM term that depends on dQ/dX     ... done   (      0.0 sec)
2nd integral derivative contribs (RI)            ... done   (      0.4 sec)
Exchange-correlation Hessian                     ... done   (      1.3 sec)
Dispersion correction in the Hessian             ... 

------------------- 
Dispersion Gradient 
------------------- 
   1  :    0.000000006    0.000000000   -0.000002892
   2  :   -0.000000006    0.000000000    0.000002892

  |G| =    0.000005796



------------------- 
Dispersion Gradient 
------------------- 
   1  :   -0.000000006    0.000000000   -0.000002892
   2  :    0.000000006    0.000000000    0.000002892

  |G| =    0.000005796



------------------- 
Dispersion Gradient 
------------------- 
   1  :    0.000000000    0.000000006   -0.000002892
   2  :    0.000000000   -0.000000006    0.000002892

  |G| =    0.000005796



------------------- 
Dispersion Gradient 
------------------- 
   1  :    0.000000000   -0.000000006   -0.000002892
   2  :    0.000000000    0.000000006    0.000002892

  |G| =    0.000005796



------------------- 
Dispersion Gradient 
------------------- 
   1  :    0.000000000    0.000000000   -0.000002859
   2  :    0.000000000    0.000000000    0.000002859

  |G| =    0.000005717



------------------- 
Dispersion Gradient 
------------------- 
   1  :    0.000000000    0.000000000   -0.000002925
   2  :    0.000000000    0.000000000    0.000002925

  |G| =    0.000005851



------------------- 
Dispersion Gradient 
------------------- 
   1  :   -0.000000006    0.000000000   -0.000002892
   2  :    0.000000006    0.000000000    0.000002892

  |G| =    0.000005796



------------------- 
Dispersion Gradient 
------------------- 
   1  :    0.000000006    0.000000000   -0.000002892
   2  :   -0.000000006    0.000000000    0.000002892

  |G| =    0.000005796



------------------- 
Dispersion Gradient 
------------------- 
   1  :    0.000000000   -0.000000006   -0.000002892
   2  :    0.000000000    0.000000006    0.000002892

  |G| =    0.000005796



------------------- 
Dispersion Gradient 
------------------- 
   1  :    0.000000000    0.000000006   -0.000002892
   2  :    0.000000000   -0.000000006    0.000002892

  |G| =    0.000005796



------------------- 
Dispersion Gradient 
------------------- 
   1  :    0.000000000    0.000000000   -0.000002925
   2  :    0.000000000    0.000000000    0.000002925

  |G| =    0.000005851



------------------- 
Dispersion Gradient 
------------------- 
   1  :    0.000000000    0.000000000   -0.000002859
   2  :    0.000000000    0.000000000    0.000002859

  |G| =    0.000005717

done   (      0.3 sec)
Dipol derivatives                                ... done   (      0.1 sec)

Total SCF Hessian time: 0 days 0 hours 0 min 17 sec 

Writing the Hessian file to the disk             ... done


Maximum memory used throughout the entire calculation: 181.6 MB
Warning: T+R mode no 5 is zero 

-----------------------
VIBRATIONAL FREQUENCIES
-----------------------

Scaling factor for frequencies =  1.000000000  (already applied!)

   0:         0.00 cm**-1
   1:         0.00 cm**-1
   2:         0.00 cm**-1
   3:         0.00 cm**-1
   4:         0.00 cm**-1
   5:      1476.08 cm**-1


------------
NORMAL MODES
------------

These modes are the Cartesian displacements weighted by the diagonal matrix
M(i,i)=1/sqrt(m[i]) where m[i] is the mass of the displaced atom
Thus, these vectors are normalized but *not* orthogonal

                  0          1          2          3          4          5    
      0       0.000000   0.000000   0.000000   0.000000   0.000000   0.000000
      1       0.000000   0.000000   0.000000   0.000000   0.000000   0.000000
      2       0.000000   0.000000   0.000000   0.000000   0.000000   0.707107
      3       0.000000   0.000000   0.000000   0.000000   0.000000   0.000000
      4       0.000000   0.000000   0.000000   0.000000   0.000000   0.000000
      5       0.000000   0.000000   0.000000   0.000000   0.000000  -0.707107


-----------
IR SPECTRUM
-----------

 Mode    freq (cm**-1)   T**2         TX         TY         TZ
-------------------------------------------------------------------
   5:      1476.08    0.000000  ( -0.000001  -0.000001  -0.000001)

The first frequency considered to be a vibration is 5
The total number of vibrations considered is 1


--------------------------
THERMOCHEMISTRY AT 298.15K
--------------------------

Temperature         ... 298.15 K
Pressure            ... 1.00 atm
Total Mass          ... 32.00 AMU
The molecule is recognized as being linear

Throughout the following assumptions are being made:
  (1) The electronic state is orbitally nondegenerate
  (2) There are no thermally accessible electronically excited states
  (3) Hindered rotations indicated by low frequency modes are not
      treated as such but are treated as vibrations and this may
      cause some error
  (4) All equations used are the standard statistical mechanics
      equations for an ideal gas
  (5) All vibrations are strictly harmonic

freq.    1476.08  E(vib)   ...       0.00 

------------
INNER ENERGY
------------

The inner energy is: U= E(el) + E(ZPE) + E(vib) + E(rot) + E(trans)
    E(el)   - is the total energy from the electronic structure calculation
              = E(kin-el) + E(nuc-el) + E(el-el) + E(nuc-nuc)
    E(ZPE)  - the the zero temperature vibrational energy from the frequency calculation
    E(vib)  - the the finite temperature correction to E(ZPE) due to population
              of excited vibrational states
    E(rot)  - is the rotational thermal energy
    E(trans)- is the translational thermal energy

Summary of contributions to the inner energy U:
Electronic energy                ...   -150.33235369 Eh
Zero point energy                ...      0.00336276 Eh       2.11 kcal/mol
Thermal vibrational correction   ...      0.00000543 Eh       0.00 kcal/mol
Thermal rotational correction    ...      0.00094418 Eh       0.59 kcal/mol
Thermal translational correction ...      0.00141627 Eh       0.89 kcal/mol
-----------------------------------------------------------------------
Total thermal energy                   -150.32662505 Eh


Summary of corrections to the electronic energy:
(perhaps to be used in another calculation)
Total thermal correction                  0.00236588 Eh       1.48 kcal/mol
Non-thermal (ZPE) correction              0.00336276 Eh       2.11 kcal/mol
-----------------------------------------------------------------------
Total correction                          0.00572864 Eh       3.59 kcal/mol


--------
ENTHALPY
--------

The enthalpy is H = U + kB*T
                kB is Boltzmann's constant
Total free energy                 ...   -150.32662505 Eh 
Thermal Enthalpy correction       ...      0.00094421 Eh       0.59 kcal/mol
-----------------------------------------------------------------------
Total Enthalpy                    ...   -150.32568084 Eh


Note: Rotational entropy computed according to Herzberg 
Infrared and Raman Spectra, Chapter V,1, Van Nostrand Reinhold, 1945 
Point Group:  Dinfh, Symmetry Number:   2  
Rotational constants in cm-1:     0.000000     1.395586     1.395586 

Vibrational entropy computed according to the QRRHO of S. Grimme
Chem.Eur.J. 2012 18 9955


-------
ENTROPY
-------

The entropy contributions are T*S = T*(S(el)+S(vib)+S(rot)+S(trans))
     S(el)   - electronic entropy
     S(vib)  - vibrational entropy
     S(rot)  - rotational entropy
     S(trans)- translational entropy
The entropies will be listed as mutliplied by the temperature to get
units of energy

Electronic entropy                ...      0.00000000 Eh      0.00 kcal/mol
Vibrational entropy               ...      0.00000619 Eh      0.00 kcal/mol
Rotational entropy                ...      0.00501110 Eh      3.14 kcal/mol
Translational entropy             ...      0.01725741 Eh     10.83 kcal/mol
-----------------------------------------------------------------------
Final entropy term                ...      0.02227469 Eh     13.98 kcal/mol

In case the symmetry of your molecule has not been determined correctly
or in case you have a reason to use a different symmetry number we print 
out the resulting rotational entropy values for sn=1,12 :
 --------------------------------------------------------
|  sn= 1 | S(rot)=             -inf Eh      -inf kcal/mol|
|  sn= 2 | S(rot)=             -inf Eh      -inf kcal/mol|
|  sn= 3 | S(rot)=             -inf Eh      -inf kcal/mol|
|  sn= 4 | S(rot)=             -inf Eh      -inf kcal/mol|
|  sn= 5 | S(rot)=             -inf Eh      -inf kcal/mol|
|  sn= 6 | S(rot)=             -inf Eh      -inf kcal/mol|
|  sn= 7 | S(rot)=             -inf Eh      -inf kcal/mol|
|  sn= 8 | S(rot)=             -inf Eh      -inf kcal/mol|
|  sn= 9 | S(rot)=             -inf Eh      -inf kcal/mol|
|  sn=10 | S(rot)=             -inf Eh      -inf kcal/mol|
|  sn=11 | S(rot)=             -inf Eh      -inf kcal/mol|
|  sn=12 | S(rot)=             -inf Eh      -inf kcal/mol|
 --------------------------------------------------------


-------------------
GIBBS FREE ENERGY
-------------------

The Gibbs free energy is G = H - T*S

Total enthalpy                    ...   -150.32568084 Eh 
Total entropy correction          ...     -0.02227469 Eh    -13.98 kcal/mol
-----------------------------------------------------------------------
Final Gibbs free energy         ...   -150.34795553 Eh

For completeness - the Gibbs free energy minus the electronic energy
G-E(el)                           ...     -0.01560184 Eh     -9.79 kcal/mol


Timings for individual modules:

Sum of individual times         ...       40.312 sec (=   0.672 min)
GTO integral calculation        ...        0.695 sec (=   0.012 min)   1.7 %
SCF iterations                  ...       17.604 sec (=   0.293 min)  43.7 %
SCF Gradient evaluation         ...        4.157 sec (=   0.069 min)  10.3 %
Geometry relaxation             ...        0.123 sec (=   0.002 min)   0.3 %
Analytical frequency calculation...       17.733 sec (=   0.296 min)  44.0 %
                             ****ORCA TERMINATED NORMALLY****
TOTAL RUN TIME: 0 days 0 hours 0 minutes 40 seconds 872 msec
