(SLURM) JOB ID:         128

                                 *****************
                                 * O   R   C   A *
                                 *****************

           --- An Ab Initio, DFT and Semiempirical electronic structure package ---

                  #######################################################
                  #                        -***-                        #
                  #          Department of theory and spectroscopy      #
                  #               Directorship: Frank Neese             #
                  #        Max Planck Institute fuer Kohlenforschung    #
                  #                Kaiser Wilhelm Platz 1               #
                  #                 D-45470 Muelheim/Ruhr               #
                  #                      Germany                        #
                  #                                                     #
                  #                  All rights reserved                #
                  #                        -***-                        #
                  #######################################################


                         Program Version 4.2.1 -  RELEASE  -


 With contributions from (in alphabetic order):
   Daniel Aravena         : Magnetic Suceptibility
   Michael Atanasov       : Ab Initio Ligand Field Theory (pilot matlab implementation)
   Alexander A. Auer      : GIAO ZORA, VPT2
   Ute Becker             : Parallelization
   Giovanni Bistoni       : ED, misc. LED, open-shell LED, HFLD
   Martin Brehm           : Molecular dynamics
   Dmytro Bykov           : SCF Hessian
   Vijay G. Chilkuri      : MRCI spin determinant printing, contributions to CSF-ICE
   Dipayan Datta          : RHF DLPNO-CCSD density
   Achintya Kumar Dutta   : EOM-CC, STEOM-CC
   Dmitry Ganyushin       : Spin-Orbit,Spin-Spin,Magnetic field MRCI
   Miquel Garcia          : C-PCM Hessian, Gaussian charge scheme
   Yang Guo               : DLPNO-NEVPT2, CIM, IAO-localization
   Andreas Hansen         : Spin unrestricted coupled pair/coupled cluster methods
   Benjamin Helmich-Paris : CASSCF linear response (MC-RPA)
   Lee Huntington         : MR-EOM, pCC
   Robert Izsak           : Overlap fitted RIJCOSX, COSX-SCS-MP3, EOM
   Christian Kollmar      : KDIIS, OOCD, Brueckner-CCSD(T), CCSD density
   Simone Kossmann        : Meta GGA functionals, TD-DFT gradient, OOMP2, MP2 Hessian
   Martin Krupicka        : AUTO-CI
   Lucas Lang             : DCDCAS
   Dagmar Lenk            : GEPOL surface, SMD
   Dimitrios Liakos       : Extrapolation schemes; Compound Job, initial MDCI parallelization
   Dimitrios Manganas     : Further ROCIS development; embedding schemes
   Dimitrios Pantazis     : SARC Basis sets
   Taras Petrenko         : DFT Hessian,TD-DFT gradient, ASA, ECA, R-Raman, ABS, FL, XAS/XES, NRVS
   Peter Pinski           : DLPNO-MP2, DLPNO-MP2 Gradient
   Christoph Reimann      : Effective Core Potentials
   Marius Retegan         : Local ZFS, SOC
   Christoph Riplinger    : Optimizer, TS searches, QM/MM, DLPNO-CCSD(T), (RO)-DLPNO pert. Triples
   Tobias Risthaus        : Range-separated hybrids, TD-DFT gradient, RPA, STAB
   Michael Roemelt        : Original ROCIS implementation
   Masaaki Saitow         : Open-shell DLPNO-CCSD energy and density
   Barbara Sandhoefer     : DKH picture change effects
   Avijit Sen             : IP-ROCIS
   Kantharuban Sivalingam : CASSCF convergence, NEVPT2, FIC-MRCI
   Bernardo de Souza      : ESD, SOC TD-DFT
   Georgi Stoychev        : AutoAux, RI-MP2 NMR
   Willem Van den Heuvel  : Paramagnetic NMR
   Boris Wezisla          : Elementary symmetry handling
   Frank Wennmohs         : Technical directorship


 We gratefully acknowledge several colleagues who have allowed us to
 interface, adapt or use parts of their codes:
   Stefan Grimme, W. Hujo, H. Kruse,             : VdW corrections, initial TS optimization,
                  C. Bannwarth                     DFT functionals, gCP, sTDA/sTD-DF
   Ed Valeev, F. Pavosevic, A. Kumar             : LibInt (2-el integral package), F12 methods
   Garnet Chan, S. Sharma, J. Yang, R. Olivares  : DMRG
   Ulf Ekstrom                                   : XCFun DFT Library
   Mihaly Kallay                                 : mrcc  (arbitrary order and MRCC methods)
   Andreas Klamt, Michael Diedenhofen            : otool_cosmo (COSMO solvation model)
   Jiri Pittner, Ondrej Demel                    : Mk-CCSD
   Frank Weinhold                                : gennbo (NPA and NBO analysis)
   Christopher J. Cramer and Donald G. Truhlar   : smd solvation model
   Lars Goerigk                                  : TD-DFT with DH, B97 family of functionals
   V. Asgeirsson, H. Jonsson                     : NEB implementation
   FAccTs GmbH                                   : IRC, NEB, NEB-TS, Multilevel, MM, QM/MM, CI optimization
   S Lehtola, MJT Oliveira, MAL Marques          : LibXC Library


 Your calculation uses the libint2 library for the computation of 2-el integrals
 For citations please refer to: http://libint.valeyev.net

 Your ORCA version has been built with support for libXC version: 4.2.3
 For citations please refer to: https://tddft.org/programs/libxc/

 This ORCA versions uses:
   CBLAS   interface :  Fast vector & matrix operations
   LAPACKE interface :  Fast linear algebra routines
   SCALAPACK package :  Parallel linear algebra routines




***************************************
The coordinates will be read from file: init.xyz
***************************************


Your calculation utilizes the SMD solvation module
Please cite in your paper:
A.V. Marenich, C.J. Cramer, D.G. Truhlar J. Phys. Chem. B, 113, (2009), 6378 

Your calculation utilizes the semiempirical GFN2-xTB method
Please cite in your paper:
C. Bannwarth, Ehlert S., S. Grimme,  J. Chem. Theory Comput., 15, (2019), 1652.
   

----- Orbital basis set information -----
Your calculation utilizes the basis: def2-SVP
   F. Weigend and R. Ahlrichs, Phys. Chem. Chem. Phys. 7, 3297 (2005).

================================================================================
                                        WARNINGS
                       Please study these warnings very carefully!
================================================================================

WARNING: Gradients needed for Numerical Frequencies
  ===> : Setting RunTyp to EnGrad

WARNING: The environment variable RSH_COMMAND is not set!
  ===> : All Displacements for the Numerical Hessian calculation
         will be started on localhost

WARNING: Found dipole moment calculation with XTB calculation
  ===> : Switching off dipole moment calculation


INFO   : the flag for use of LIBINT has been found!

================================================================================
                                       INPUT FILE
================================================================================
NAME = /tmp/slurm-scratch/freq.128/freq.inp
|  1> ! XTB2 NumFreq
|  2> %maxcore 1450
|  3> 
|  4> * xyzfile 0 1 init.xyz
|  5> 
|  6> %cpcm
|  7>  smd true
|  8>  smdsolvent "ch2cl2"
|  9> end
| 10> %pal nprocs 8 end
| 11> 
| 12>                          ****END OF INPUT****
================================================================================

                     *******************************
                     * Energy+Gradient Calculation *
                     *******************************

      -----------------------------------------------------------      
     |                   =====================                   |     
     |                           x T B                           |     
     |                   =====================                   |     
     |                         S. Grimme                         |     
     |          Mulliken Center for Theoretical Chemistry        |     
     |                    University of Bonn                     |     
      -----------------------------------------------------------      

   * xtb version 6.3.0 (preview) compiled by 'ehlert@majestix' on 2020-01-15

   This program is distributed in the hope that it will be useful,
   but WITHOUT ANY WARRANTY; without even the implied warranty of
   MERCHANTABILITY or FITNESS FOR A PARTICULAR PURPOSE.
   
   FOR NON-COMMERCIAL, ACADEMIA USE ONLY.
   
   Cite this work as:
   * S. Grimme, C. Bannwarth, P. Shushkov, J. Chem. Theory Comput., 2017,
     13, 1989-2009. DOI: 10.1021/acs.jctc.7b00118
   * C. Bannwarth, S. Ehlert and S. Grimme., J. Chem. Theory Comput., 2019,
     15, 1652-1671. DOI: 10.1021/acs.jctc.8b01176
   * P. Pracht, E. Caldeweyher, S. Ehlert, S. Grimme, ChemRxiv, 2019, preprint.
     DOI: 10.26434/chemrxiv.8326202.v1
   * S. Grimme, S. Spicher unpublished
   
   for DFT-D4:
   * E. Caldeweyher, C. Bannwarth and S. Grimme, J. Chem. Phys., 2017,
     147, 034112. DOI: 10.1063/1.4993215
   * E. Caldeweyher, S. Ehlert, A. Hansen, H. Neugebauer, S. Spicher,
     C. Bannwarth and S. Grimme, J. Chem. Phys., 2019, 150, 154122.
     DOI: 10.1063/1.5090222
   
   for sTDA-xTB:
   * S. Grimme and C. Bannwarth, J. Chem. Phys., 2016, 145, 054103.
     DOI: 10.1063/1.4959605
   
   in the mass-spec context:
   * V. Asgeirsson, C. Bauer and S. Grimme, Chem. Sci., 2017, 8, 4879.
     DOI: 10.1039/c7sc00601b
   
   for metadynamics refer to:
   * S. Grimme, J. Chem. Theory Comput., 2019, 155, 2847-2862
     DOI: 10.1021/acs.jctc.9b00143
   
   with help from (in alphabetical order)
   C. Bannwarth, F. Bohle, G. Brandenburg, E. Caldeweyher, M. Checinski,
   S. Dohm, S. Ehlert, S. Ehrlich, F. März, H. Neugebauer, J. Pisarek,
   P. Pracht, P. Shushkov, and S. Spicher.
   
 * started run on 2020/08/23 at 04:22:05.994     

           -------------------------------------------------
          |                Calculation Setup                |
           -------------------------------------------------

          program call               : /opt/orca/otool_xtb /tmp/slurm-scratch/freq.128/freq_XTB.xyz --grad -c 0 -u 0 -P 8 --namespace /tmp/slurm-scratch/freq.128/freq --gbsa CH2Cl2
          hostname                   : headnode-pbs
          calculation namespace      : /tmp/slurm-scratch/freq.128/freq
          coordinate file            : /tmp/slurm-scratch/freq.128/freq_XTB.xyz
          omp threads                :                     8
          number of atoms            :                    43
          number of electrons        :                    96
          charge                     :                     0
          spin                       :                   0.0
          first test random number   :      0.90245894887904


molecular fragmentation (1/2 indicates fragments):
1111111111111221111111111222222222222221111
# atoms in fragment 1/2:    27    16
 fragment masses (1/2) :      161.24       73.14
CMA distance (Bohr)    :   9.618
constraining FC (au)   :  0.0500

########################################################################
# WARNING! Please study the warnings concerning your input carefully
#  - Process number higher than OMP_NUM_THREADS, I hope you know what you are doing.
########################################################################

           ------------------------------------------------- 
          |                 G F N 2 - x T B                 |
          | Geometry, Frequencies, Noncovalent interactions |
          |            JCTC 2019 parametrisation            |
           ------------------------------------------------- 
             k(s)              :                1.8500
             k(p)              :                2.2300
             k(d)              :                2.2300
             k(f)              :                2.0000
             kEN (H0ij)        :               -2.0000
             D4 a1             :                0.5200
             D4 a2             :                5.0000
             D4 s6             :                1.0000
             D4 s8             :                2.7000
             D4 s9             :                5.0000
             alphaj            :                2.0000

  Z AO/shell   Hii/eV     exponent
  1     Wed Apr 25 08:07:45 CEST 2018   EN: 2.200 GM2: 0.406  GM3: 0.0800  RAES: 1.40
     1s    -10.707211    1.230000
  6     Wed Apr 25 08:07:45 CEST 2018   EN: 2.550 GM2: 0.538  GM3: 0.1500  RAES: 3.00
     2s    -13.970922    2.096432
     2p    -10.063292    1.800000
  7     Wed Apr 25 08:07:45 CEST 2018   EN: 3.040 GM2: 0.461  GM3:-0.0640  RAES: 1.90
     2s    -16.686243    2.339881
     2p    -12.523956    2.014332

 Solvent             : CH2Cl2
 Using internal parameter file: .param_gbsa2_CH2Cl2
 Gsolv ref. state (COSMO-RS): gsolv [1 M gas/solution]
 temperature (mdtemp)       :    298.150000000000     
 dielectric constant        :    8.93000000000000     
 rho                        :    1.33000000000000     
 mass                       :    84.9300000000000     
 surface tension            :    15.5689454083859     
 probe radius               :   0.719875900000000     
 Gshift (Eh)                :   4.440829173451759E-003
 c1                         :    1.49173776000000     
 soset                      :   0.000000000000000E+000
 HB correction              :  F
           ------------------------------------------------- 
          |        Self-Consistent Charge Iterations        |
           ------------------------------------------------- 

          ...................................................
          :                      SETUP                      :
          :.................................................:
          :  # basis functions                  94          :
          :  # atomic orbitals                  94          :
          :  # shells                           60          :
          :  # electrons                        96          :
          :  max. iterations                   250          :
          :  Hamiltonian                  GFN2-xTB          :
          :  GBSA solvation                   true          :
          :  PC potential                    false          :
          :  electronic temp.          300.0000000     K    :
          :  accuracy                    1.0000000          :
          :  -> integral cutoff          0.2500000E+02      :
          :  -> integral neglect         0.1000000E-07      :
          :  -> SCF convergence          0.1000000E-05 Eh   :
          :  -> wf. convergence          0.1000000E-03 e    :
          :  Broyden damping             0.4000000          :
          ...................................................
  Checking positiv definite overlap ...  done.
 

 iter      E             dE          RMSdq      gap      omega  full diag
   1    -51.8690154 -0.518690E+02  0.362E+00    2.94       0.0  T
   2    -51.9331345 -0.641192E-01  0.215E+00    2.81       1.0  T
   3    -51.9304813  0.265318E-02  0.782E-01    2.41       1.0  T
   4    -51.9348190 -0.433767E-02  0.371E-01    2.46       1.0  T
   5    -51.9384980 -0.367900E-02  0.718E-02    2.40       1.0  T
   6    -51.9385140 -0.159482E-04  0.367E-02    2.42       1.0  T
   7    -51.9385276 -0.136393E-04  0.155E-02    2.42       1.0  T
   8    -51.9385299 -0.228536E-05  0.394E-03    2.42       3.9  T
   9    -51.9385301 -0.213839E-06  0.156E-03    2.42       9.8  T
  10    -51.9385301 -0.662379E-08  0.931E-04    2.42      16.4  T
  11    -51.9385301 -0.958867E-08  0.320E-04    2.42      47.6  T

   *** convergence criteria satisfied after 11 iterations ***

         #    Occupation            Energy/Eh            Energy/eV
      -------------------------------------------------------------
         1        2.0000           -0.6486816             -17.6515
       ...           ...                  ...                  ...
        42        2.0000           -0.4267321             -11.6120
        43        2.0000           -0.4242461             -11.5443
        44        2.0000           -0.4201635             -11.4332
        45        2.0000           -0.4072748             -11.0825
        46        2.0000           -0.3991233             -10.8607
        47        2.0000           -0.3841426             -10.4531
        48        2.0000           -0.3645787              -9.9207 (HOMO)
        49                         -0.2756935              -7.5020 (LUMO)
        50                         -0.2302992              -6.2668
        51                         -0.1940851              -5.2813
        52                         -0.0942884              -2.5657
        53                          0.0156342               0.4254
       ...                                ...                  ...
        94                          0.6222100              16.9312
      -------------------------------------------------------------
                  HL-Gap            0.0888853 Eh            2.4187 eV
             Fermi-level           -0.3201361 Eh           -8.7113 eV

 SCC (total)                   0 d,  0 h,  0 min,  0.059 sec
 SCC setup                      ...        0 min,  0.002 sec (  3.212%)
 Dispersion                     ...        0 min,  0.001 sec (  1.355%)
 integral evaluation            ...        0 min,  0.011 sec ( 18.575%)
 zeroth order Hamiltonian       ...        0 min,  0.000 sec (  0.047%)
 iterations                     ...        0 min,  0.033 sec ( 56.096%)
 molecular gradient             ...        0 min,  0.011 sec ( 19.478%)
 printout                       ...        0 min,  0.001 sec (  1.085%)

         :::::::::::::::::::::::::::::::::::::::::::::::::::::
         ::                     SUMMARY                     ::
         :::::::::::::::::::::::::::::::::::::::::::::::::::::
         :: total energy             -51.207278585003 Eh    ::
         :: total w/o Gsasa/hb       -51.185134400867 Eh    ::
         :: gradient norm              0.047444172592 Eh/a0 ::
         :: HOMO-LUMO gap              2.418691178679 eV    ::
         ::.................................................::
         :: SCC energy               -51.960674297913 Eh    ::
         :: -> isotropic ES            0.026507264305 Eh    ::
         :: -> anisotropic ES          0.009661932495 Eh    ::
         :: -> anisotropic XC          0.042607004952 Eh    ::
         :: -> dispersion             -0.034417425512 Eh    ::
         :: -> Gsolv                  -0.025285515940 Eh    ::
         ::    -> Gborn               -0.003141331804 Eh    ::
         ::    -> Gsasa               -0.026585013309 Eh    ::
         ::    -> Ghb                  0.000000000000 Eh    ::
         ::    -> Gshift               0.004440829173 Eh    ::
         :: repulsion energy           0.753128005397 Eh    ::
         :: add. restraining           0.000000000000 Eh    ::
         :::::::::::::::::::::::::::::::::::::::::::::::::::::

           -------------------------------------------------
          |                Property Printout                |
           -------------------------------------------------

    * Orbital Energies and Occupations

         #    Occupation            Energy/Eh            Energy/eV
      -------------------------------------------------------------
         1        2.0000           -0.6486816             -17.6515
       ...           ...                  ...                  ...
        36        2.0000           -0.4477136             -12.1829
        37        2.0000           -0.4408332             -11.9957
        38        2.0000           -0.4399351             -11.9712
        39        2.0000           -0.4346156             -11.8265
        40        2.0000           -0.4336941             -11.8014
        41        2.0000           -0.4298220             -11.6961
        42        2.0000           -0.4267321             -11.6120
        43        2.0000           -0.4242461             -11.5443
        44        2.0000           -0.4201635             -11.4332
        45        2.0000           -0.4072748             -11.0825
        46        2.0000           -0.3991233             -10.8607
        47        2.0000           -0.3841426             -10.4531
        48        2.0000           -0.3645787              -9.9207 (HOMO)
        49                         -0.2756935              -7.5020 (LUMO)
        50                         -0.2302992              -6.2668
        51                         -0.1940851              -5.2813
        52                         -0.0942884              -2.5657
        53                          0.0156342               0.4254
        54                          0.0245593               0.6683
        55                          0.0680981               1.8530
        56                          0.0784355               2.1343
        57                          0.0836611               2.2765
        58                          0.0884004               2.4055
        59                          0.1074757               2.9246
       ...                                ...                  ...
        94                          0.6222100              16.9312
      -------------------------------------------------------------
                  HL-Gap            0.0888853 Eh            2.4187 eV
             Fermi-level           -0.3201361 Eh           -8.7113 eV

     #   Z        covCN         q      C6AA      α(0)
     1   6 C      2.907    -0.029    28.722     8.788
     2   6 C      2.914    -0.030    28.744     8.792
     3   6 C      2.963     0.004    27.932     8.669
     4   6 C      2.910    -0.027    28.676     8.781
     5   6 C      2.908    -0.027    28.668     8.780
     6   6 C      2.909    -0.024    28.606     8.770
     7   1 H      0.925     0.036     2.507     2.476
     8   1 H      0.925     0.062     2.171     2.304
     9   1 H      0.925     0.043     2.404     2.425
    10   7 N      1.823    -0.267    27.788     7.811
    11   6 C      3.756     0.025    20.197     6.408
    12   1 H      0.922     0.006     2.956     2.689
    13   1 H      0.923     0.035     2.516     2.481
    14   1 H      0.859     0.169     1.282     1.774
    15   1 H      0.859     0.131     1.540     1.944
    16   6 C      2.848     0.078    26.256     8.398
    17   1 H      0.922     0.001     3.037     2.725
    18   6 C      3.797    -0.056    21.577     6.614
    19   1 H      0.923     0.030     2.582     2.513
    20   1 H      0.923     0.047     2.361     2.403
    21   6 C      3.796    -0.049    21.461     6.597
    22   1 H      0.923     0.030     2.592     2.518
    23   1 H      0.923     0.029     2.607     2.525
    24   1 H      0.925     0.041     2.438     2.442
    25   1 H      0.925     0.045     2.384     2.415
    26   6 C      3.727     0.016    20.412     6.451
    27   1 H      0.923     0.028     2.621     2.532
    28   1 H      0.923     0.028     2.614     2.528
    29   6 C      3.795    -0.065    21.760     6.643
    30   1 H      0.923     0.023     2.693     2.566
    31   1 H      0.923     0.032     2.559     2.502
    32   6 C      3.795    -0.051    21.491     6.601
    33   1 H      0.923     0.028     2.613     2.528
    34   1 H      0.923     0.028     2.619     2.531
    35   7 N      2.624    -0.379    29.797     8.107
    36   6 C      3.745    -0.098    22.440     6.757
    37   1 H      0.923     0.034     2.526     2.486
    38   1 H      0.923     0.034     2.530     2.487
    39   1 H      0.923     0.032     2.565     2.505
    40   6 C      3.745    -0.099    22.469     6.762
    41   1 H      0.923     0.037     2.491     2.468
    42   1 H      0.923     0.037     2.484     2.465
    43   1 H      0.923     0.034     2.534     2.489

 Mol. C6AA /au·bohr⁶  :      15760.338683
 Mol. C8AA /au·bohr⁸  :     348700.801267
 Mol. α(0) /au        :        193.446696


Wiberg/Mayer (AO) data.
largest (>0.10) Wiberg bond orders for each atom
          total WBO             WBO to atom ...
     1  C   3.990        C    2 1.452    C    6 1.435    H   24 0.970    C    4 0.106
     2  C   3.986        C    1 1.452    C    3 1.376    H    7 0.968    C    5 0.105
     3  C   3.987        C    2 1.376    C    4 1.364    C   16 1.089
     4  C   3.987        C    5 1.465    C    3 1.364    H    8 0.963    C    1 0.106
     5  C   3.990        C    4 1.465    C    6 1.423    H   25 0.970    C    2 0.105
     6  C   3.986        C    1 1.435    C    5 1.423    H    9 0.971
     7  H   0.999        C    2 0.968
     8  H   0.996        C    4 0.963
     9  H   0.998        C    6 0.971
    10  N   3.072        C   16 1.832    C   11 1.022
    11  C   3.984        N   10 1.022    C   18 0.986    H   12 0.966    H   13 0.958
    12  H   1.000        C   11 0.966
    13  H   0.996        C   11 0.958
    14  H   0.972        N   35 0.941
    15  H   0.983        N   35 0.970
    16  C   3.967        N   10 1.832    C    3 1.089    H   17 0.940
    17  H   1.000        C   16 0.940
    18  C   3.990        C   21 1.005    C   11 0.986    H   19 0.978    H   20 0.973
    19  H   0.999        C   18 0.978
    20  H   0.998        C   18 0.973
    21  C   3.996        C   40 1.018    C   18 1.005    H   23 0.979    H   22 0.976
    22  H   0.999        C   21 0.976
    23  H   0.999        C   21 0.979
    24  H   0.998        C    1 0.970
    25  H   0.998        C    5 0.970
    26  C   3.985        N   35 1.024    C   29 0.995    H   27 0.976    H   28 0.975
    27  H   0.999        C   26 0.976
    28  H   0.999        C   26 0.975
    29  C   3.996        C   32 1.006    C   26 0.995    H   30 0.978    H   31 0.973
    30  H   0.999        C   29 0.978
    31  H   0.999        C   29 0.973
    32  C   3.997        C   36 1.018    C   29 1.006    H   34 0.979    H   33 0.978
    33  H   0.999        C   32 0.978
    34  H   0.999        C   32 0.979
    35  N   2.995        C   26 1.024    H   15 0.970    H   14 0.941
    36  C   3.997        C   32 1.018    H   39 0.988    H   37 0.987    H   38 0.987
    37  H   0.998        C   36 0.987
    38  H   0.999        C   36 0.987
    39  H   0.999        C   36 0.988
    40  C   3.995        C   21 1.018    H   43 0.988    H   42 0.987    H   41 0.987
    41  H   0.998        C   40 0.987
    42  H   0.999        C   40 0.987
    43  H   0.999        C   40 0.988

molecular dipole:
                 x           y           z       tot (Debye)
 q only:        0.157       0.287       0.047
   full:       -0.213       0.794      -0.235       2.172
molecular quadrupole (traceless):
                xx          xy          yy          xz          yz          zz
 q only:        8.590       1.783      -4.807      -1.963      -0.393      -3.783
  q+dip:       10.239       1.340      -2.069       1.041       1.102      -8.170
   full:        9.545       1.493      -4.966       0.432       1.579      -4.579

           -------------------------------------------------
          |                Property Printout                |
           -------------------------------------------------

    * Orbital Energies and Occupations

         #    Occupation            Energy/Eh            Energy/eV
      -------------------------------------------------------------
         1        2.0000           -0.6486816             -17.6515
       ...           ...                  ...                  ...
        36        2.0000           -0.4477136             -12.1829
        37        2.0000           -0.4408332             -11.9957
        38        2.0000           -0.4399351             -11.9712
        39        2.0000           -0.4346156             -11.8265
        40        2.0000           -0.4336941             -11.8014
        41        2.0000           -0.4298220             -11.6961
        42        2.0000           -0.4267321             -11.6120
        43        2.0000           -0.4242461             -11.5443
        44        2.0000           -0.4201635             -11.4332
        45        2.0000           -0.4072748             -11.0825
        46        2.0000           -0.3991233             -10.8607
        47        2.0000           -0.3841426             -10.4531
        48        2.0000           -0.3645787              -9.9207 (HOMO)
        49                         -0.2756935              -7.5020 (LUMO)
        50                         -0.2302992              -6.2668
        51                         -0.1940851              -5.2813
        52                         -0.0942884              -2.5657
        53                          0.0156342               0.4254
        54                          0.0245593               0.6683
        55                          0.0680981               1.8530
        56                          0.0784355               2.1343
        57                          0.0836611               2.2765
        58                          0.0884004               2.4055
        59                          0.1074757               2.9246
       ...                                ...                  ...
        94                          0.6222100              16.9312
      -------------------------------------------------------------
                  HL-Gap            0.0888853 Eh            2.4187 eV
             Fermi-level           -0.3201361 Eh           -8.7113 eV

     #   Z        covCN         q      C6AA      α(0)
     1   6 C      2.907    -0.029    28.722     8.788
     2   6 C      2.914    -0.030    28.744     8.792
     3   6 C      2.963     0.004    27.932     8.669
     4   6 C      2.910    -0.027    28.676     8.781
     5   6 C      2.908    -0.027    28.668     8.780
     6   6 C      2.909    -0.024    28.606     8.770
     7   1 H      0.925     0.036     2.507     2.476
     8   1 H      0.925     0.062     2.171     2.304
     9   1 H      0.925     0.043     2.404     2.425
    10   7 N      1.823    -0.267    27.788     7.811
    11   6 C      3.756     0.025    20.197     6.408
    12   1 H      0.922     0.006     2.956     2.689
    13   1 H      0.923     0.035     2.516     2.481
    14   1 H      0.859     0.169     1.282     1.774
    15   1 H      0.859     0.131     1.540     1.944
    16   6 C      2.848     0.078    26.256     8.398
    17   1 H      0.922     0.001     3.037     2.725
    18   6 C      3.797    -0.056    21.577     6.614
    19   1 H      0.923     0.030     2.582     2.513
    20   1 H      0.923     0.047     2.361     2.403
    21   6 C      3.796    -0.049    21.461     6.597
    22   1 H      0.923     0.030     2.592     2.518
    23   1 H      0.923     0.029     2.607     2.525
    24   1 H      0.925     0.041     2.438     2.442
    25   1 H      0.925     0.045     2.384     2.415
    26   6 C      3.727     0.016    20.412     6.451
    27   1 H      0.923     0.028     2.621     2.532
    28   1 H      0.923     0.028     2.614     2.528
    29   6 C      3.795    -0.065    21.760     6.643
    30   1 H      0.923     0.023     2.693     2.566
    31   1 H      0.923     0.032     2.559     2.502
    32   6 C      3.795    -0.051    21.491     6.601
    33   1 H      0.923     0.028     2.613     2.528
    34   1 H      0.923     0.028     2.619     2.531
    35   7 N      2.624    -0.379    29.797     8.107
    36   6 C      3.745    -0.098    22.440     6.757
    37   1 H      0.923     0.034     2.526     2.486
    38   1 H      0.923     0.034     2.530     2.487
    39   1 H      0.923     0.032     2.565     2.505
    40   6 C      3.745    -0.099    22.469     6.762
    41   1 H      0.923     0.037     2.491     2.468
    42   1 H      0.923     0.037     2.484     2.465
    43   1 H      0.923     0.034     2.534     2.489

 Mol. C6AA /au·bohr⁶  :      15760.338683
 Mol. C8AA /au·bohr⁸  :     348700.801267
 Mol. α(0) /au        :        193.446696


Wiberg/Mayer (AO) data.
largest (>0.10) Wiberg bond orders for each atom
          total WBO             WBO to atom ...
     1  C   3.990        C    2 1.452    C    6 1.435    H   24 0.970    C    4 0.106
     2  C   3.986        C    1 1.452    C    3 1.376    H    7 0.968    C    5 0.105
     3  C   3.987        C    2 1.376    C    4 1.364    C   16 1.089
     4  C   3.987        C    5 1.465    C    3 1.364    H    8 0.963    C    1 0.106
     5  C   3.990        C    4 1.465    C    6 1.423    H   25 0.970    C    2 0.105
     6  C   3.986        C    1 1.435    C    5 1.423    H    9 0.971
     7  H   0.999        C    2 0.968
     8  H   0.996        C    4 0.963
     9  H   0.998        C    6 0.971
    10  N   3.072        C   16 1.832    C   11 1.022
    11  C   3.984        N   10 1.022    C   18 0.986    H   12 0.966    H   13 0.958
    12  H   1.000        C   11 0.966
    13  H   0.996        C   11 0.958
    14  H   0.972        N   35 0.941
    15  H   0.983        N   35 0.970
    16  C   3.967        N   10 1.832    C    3 1.089    H   17 0.940
    17  H   1.000        C   16 0.940
    18  C   3.990        C   21 1.005    C   11 0.986    H   19 0.978    H   20 0.973
    19  H   0.999        C   18 0.978
    20  H   0.998        C   18 0.973
    21  C   3.996        C   40 1.018    C   18 1.005    H   23 0.979    H   22 0.976
    22  H   0.999        C   21 0.976
    23  H   0.999        C   21 0.979
    24  H   0.998        C    1 0.970
    25  H   0.998        C    5 0.970
    26  C   3.985        N   35 1.024    C   29 0.995    H   27 0.976    H   28 0.975
    27  H   0.999        C   26 0.976
    28  H   0.999        C   26 0.975
    29  C   3.996        C   32 1.006    C   26 0.995    H   30 0.978    H   31 0.973
    30  H   0.999        C   29 0.978
    31  H   0.999        C   29 0.973
    32  C   3.997        C   36 1.018    C   29 1.006    H   34 0.979    H   33 0.978
    33  H   0.999        C   32 0.978
    34  H   0.999        C   32 0.979
    35  N   2.995        C   26 1.024    H   15 0.970    H   14 0.941
    36  C   3.997        C   32 1.018    H   39 0.988    H   37 0.987    H   38 0.987
    37  H   0.998        C   36 0.987
    38  H   0.999        C   36 0.987
    39  H   0.999        C   36 0.988
    40  C   3.995        C   21 1.018    H   43 0.988    H   42 0.987    H   41 0.987
    41  H   0.998        C   40 0.987
    42  H   0.999        C   40 0.987
    43  H   0.999        C   40 0.988

molecular dipole:
                 x           y           z       tot (Debye)
 q only:        0.157       0.287       0.047
   full:       -0.213       0.794      -0.235       2.172
molecular quadrupole (traceless):
                xx          xy          yy          xz          yz          zz
 q only:        8.590       1.783      -4.807      -1.963      -0.393      -3.783
  q+dip:       10.239       1.340      -2.069       1.041       1.102      -8.170
   full:        9.545       1.493      -4.966       0.432       1.579      -4.579


           -------------------------------------------------
          | TOTAL ENERGY              -51.207278585003 Eh   |
          | GRADIENT NORM               0.047444172592 Eh/α |
          | HOMO-LUMO GAP               2.418691178679 eV   |
           -------------------------------------------------

------------------------------------------------------------------------
 * finished run on 2020/08/23 at 04:22:06.120     
------------------------------------------------------------------------
 total:
 * wall-time:     0 d,  0 h,  0 min,  0.126 sec
 *  cpu-time:     0 d,  0 h,  0 min,  0.867 sec
 * ratio c/w:     6.879 speedup
 SCF:
 * wall-time:     0 d,  0 h,  0 min,  0.060 sec
 *  cpu-time:     0 d,  0 h,  0 min,  0.406 sec
 * ratio c/w:     6.811 speedup


-------------------------   --------------------
FINAL SINGLE POINT ENERGY       -51.207278585000
-------------------------   --------------------


----------------------------------------------------------------------------
                           ORCA NUMERICAL FREQUENCIES
                              (8-process run)
----------------------------------------------------------------------------

Number of atoms                ... 43
Central differences            ... used
Number of displacements        ... 258
Numerical increment            ... 5.000e-03 bohr
IR-spectrum generation         ... on
Raman-spectrum generation      ... off
Surface Crossing Hessian       ... off
List of participating nodes    ...  /tmp/slurm-scratch/freq.128/freq.hostnames

The output will be reduced. Please look at the following files:
SCF program output             ... >/tmp/slurm-scratch/freq.128/freq.lastscf
Integral program output        ... >/tmp/slurm-scratch/freq.128/freq.lastint
Gradient program output        ... >/tmp/slurm-scratch/freq.128/freq.lastgrad
Dipole moment program output   ... >/tmp/slurm-scratch/freq.128/freq.lastmom
AutoCI program output          ... >/tmp/slurm-scratch/freq.128/freq.lastautoci


         <<< Energy and Gradient at the input geometry >>>

        <<< Energy and Gradient at displaced geometries >>>
             <<<Displacing   3/coordinate 1 (+)>>>
             <<<Displacing   3/coordinate 2 (+)>>>
             <<<Displacing   2/coordinate 2 (+)>>>
             <<<Displacing   1/coordinate 3 (+)>>>
             <<<Displacing   2/coordinate 3 (+)>>>
             <<<Displacing   3/coordinate 1 (-)>>>
             <<<Displacing   3/coordinate 2 (-)>>>
             <<<Displacing   1/coordinate 1 (+)>>>
             <<<Displacing   2/coordinate 2 (-)>>>
             <<<Displacing   1/coordinate 3 (-)>>>
             <<<Displacing   1/coordinate 1 (-)>>>
             <<<Displacing   2/coordinate 3 (-)>>>
             <<<Displacing   1/coordinate 2 (+)>>>
             <<<Displacing   2/coordinate 1 (+)>>>
             <<<Displacing   1/coordinate 2 (-)>>>
             <<<Displacing   2/coordinate 1 (-)>>>
             <<<Displacing   3/coordinate 3 (+)>>>
             <<<Displacing   3/coordinate 3 (-)>>>
             <<<Displacing   4/coordinate 3 (+)>>>
             <<<Displacing   4/coordinate 1 (+)>>>
             <<<Displacing   5/coordinate 2 (+)>>>
             <<<Displacing   4/coordinate 3 (-)>>>
             <<<Displacing   4/coordinate 1 (-)>>>
             <<<Displacing   5/coordinate 2 (-)>>>
             <<<Displacing   4/coordinate 2 (+)>>>
             <<<Displacing   4/coordinate 2 (-)>>>
             <<<Displacing   5/coordinate 1 (+)>>>
             <<<Displacing   5/coordinate 3 (+)>>>
             <<<Displacing   6/coordinate 1 (+)>>>
             <<<Displacing   5/coordinate 1 (-)>>>
             <<<Displacing   5/coordinate 3 (-)>>>
             <<<Displacing   6/coordinate 1 (-)>>>
             <<<Displacing   7/coordinate 2 (+)>>>
             <<<Displacing   7/coordinate 2 (-)>>>
             <<<Displacing   7/coordinate 3 (+)>>>
             <<<Displacing   6/coordinate 2 (+)>>>
             <<<Displacing   7/coordinate 3 (-)>>>
             <<<Displacing   8/coordinate 1 (+)>>>
             <<<Displacing   6/coordinate 2 (-)>>>
             <<<Displacing   8/coordinate 1 (-)>>>
             <<<Displacing   7/coordinate 1 (+)>>>
             <<<Displacing   7/coordinate 1 (-)>>>
             <<<Displacing   6/coordinate 3 (+)>>>
             <<<Displacing   6/coordinate 3 (-)>>>
             <<<Displacing   8/coordinate 3 (+)>>>
             <<<Displacing   8/coordinate 2 (+)>>>
             <<<Displacing   8/coordinate 3 (-)>>>
             <<<Displacing   8/coordinate 2 (-)>>>
             <<<Displacing   9/coordinate 2 (+)>>>
             <<<Displacing   9/coordinate 1 (+)>>>
             <<<Displacing  10/coordinate 2 (+)>>>
             <<<Displacing   9/coordinate 2 (-)>>>
             <<<Displacing  10/coordinate 2 (-)>>>
             <<<Displacing   9/coordinate 1 (-)>>>
             <<<Displacing  10/coordinate 1 (+)>>>
             <<<Displacing  10/coordinate 3 (+)>>>
             <<<Displacing  10/coordinate 1 (-)>>>
             <<<Displacing  10/coordinate 3 (-)>>>
             <<<Displacing   9/coordinate 3 (+)>>>
             <<<Displacing   9/coordinate 3 (-)>>>
             <<<Displacing  11/coordinate 1 (+)>>>
             <<<Displacing  11/coordinate 2 (+)>>>
             <<<Displacing  11/coordinate 1 (-)>>>
             <<<Displacing  11/coordinate 2 (-)>>>
             <<<Displacing  11/coordinate 3 (+)>>>
             <<<Displacing  11/coordinate 3 (-)>>>
             <<<Displacing  12/coordinate 2 (+)>>>
             <<<Displacing  12/coordinate 2 (-)>>>
             <<<Displacing  12/coordinate 1 (+)>>>
             <<<Displacing  12/coordinate 1 (-)>>>
             <<<Displacing  14/coordinate 1 (+)>>>
             <<<Displacing  13/coordinate 3 (+)>>>
             <<<Displacing  12/coordinate 3 (+)>>>
             <<<Displacing  14/coordinate 1 (-)>>>
             <<<Displacing  13/coordinate 2 (+)>>>
             <<<Displacing  13/coordinate 3 (-)>>>
             <<<Displacing  13/coordinate 1 (+)>>>
             <<<Displacing  12/coordinate 3 (-)>>>
             <<<Displacing  13/coordinate 2 (-)>>>
             <<<Displacing  13/coordinate 1 (-)>>>
             <<<Displacing  14/coordinate 2 (+)>>>
             <<<Displacing  14/coordinate 2 (-)>>>
             <<<Displacing  14/coordinate 3 (+)>>>
             <<<Displacing  14/coordinate 3 (-)>>>
             <<<Displacing  15/coordinate 3 (+)>>>
             <<<Displacing  15/coordinate 1 (+)>>>
             <<<Displacing  15/coordinate 3 (-)>>>
             <<<Displacing  15/coordinate 1 (-)>>>
             <<<Displacing  16/coordinate 1 (+)>>>
             <<<Displacing  16/coordinate 3 (+)>>>
             <<<Displacing  16/coordinate 1 (-)>>>
             <<<Displacing  16/coordinate 3 (-)>>>
             <<<Displacing  15/coordinate 2 (+)>>>
             <<<Displacing  15/coordinate 2 (-)>>>
             <<<Displacing  16/coordinate 2 (+)>>>
             <<<Displacing  16/coordinate 2 (-)>>>
             <<<Displacing  17/coordinate 1 (+)>>>
             <<<Displacing  17/coordinate 1 (-)>>>
             <<<Displacing  17/coordinate 2 (+)>>>
             <<<Displacing  17/coordinate 2 (-)>>>
             <<<Displacing  17/coordinate 3 (+)>>>
             <<<Displacing  17/coordinate 3 (-)>>>
             <<<Displacing  18/coordinate 2 (+)>>>
             <<<Displacing  18/coordinate 2 (-)>>>
             <<<Displacing  18/coordinate 3 (+)>>>
             <<<Displacing  18/coordinate 1 (+)>>>
             <<<Displacing  19/coordinate 1 (+)>>>
             <<<Displacing  18/coordinate 3 (-)>>>
             <<<Displacing  18/coordinate 1 (-)>>>
             <<<Displacing  19/coordinate 1 (-)>>>
             <<<Displacing  19/coordinate 3 (+)>>>
             <<<Displacing  19/coordinate 3 (-)>>>
             <<<Displacing  19/coordinate 2 (+)>>>
             <<<Displacing  19/coordinate 2 (-)>>>
             <<<Displacing  20/coordinate 1 (+)>>>
             <<<Displacing  20/coordinate 1 (-)>>>
             <<<Displacing  20/coordinate 2 (+)>>>
             <<<Displacing  21/coordinate 1 (+)>>>
             <<<Displacing  21/coordinate 1 (-)>>>
             <<<Displacing  20/coordinate 2 (-)>>>
             <<<Displacing  21/coordinate 2 (+)>>>
             <<<Displacing  20/coordinate 3 (+)>>>
             <<<Displacing  21/coordinate 2 (-)>>>
             <<<Displacing  20/coordinate 3 (-)>>>
             <<<Displacing  21/coordinate 3 (+)>>>
             <<<Displacing  21/coordinate 3 (-)>>>
             <<<Displacing  22/coordinate 1 (+)>>>
             <<<Displacing  22/coordinate 1 (-)>>>
             <<<Displacing  22/coordinate 3 (+)>>>
             <<<Displacing  22/coordinate 3 (-)>>>
             <<<Displacing  22/coordinate 2 (+)>>>
             <<<Displacing  22/coordinate 2 (-)>>>
             <<<Displacing  23/coordinate 3 (+)>>>
             <<<Displacing  23/coordinate 3 (-)>>>
             <<<Displacing  23/coordinate 1 (+)>>>
             <<<Displacing  23/coordinate 2 (+)>>>
             <<<Displacing  24/coordinate 2 (+)>>>
             <<<Displacing  23/coordinate 1 (-)>>>
             <<<Displacing  23/coordinate 2 (-)>>>
             <<<Displacing  24/coordinate 2 (-)>>>
             <<<Displacing  24/coordinate 1 (+)>>>
             <<<Displacing  24/coordinate 1 (-)>>>
             <<<Displacing  25/coordinate 1 (+)>>>
             <<<Displacing  25/coordinate 1 (-)>>>
             <<<Displacing  24/coordinate 3 (+)>>>
             <<<Displacing  24/coordinate 3 (-)>>>
             <<<Displacing  25/coordinate 2 (+)>>>
             <<<Displacing  25/coordinate 2 (-)>>>
             <<<Displacing  25/coordinate 3 (+)>>>
             <<<Displacing  25/coordinate 3 (-)>>>
             <<<Displacing  26/coordinate 1 (+)>>>
             <<<Displacing  26/coordinate 1 (-)>>>
             <<<Displacing  26/coordinate 3 (+)>>>
             <<<Displacing  26/coordinate 2 (+)>>>
             <<<Displacing  26/coordinate 3 (-)>>>
             <<<Displacing  27/coordinate 1 (+)>>>
             <<<Displacing  26/coordinate 2 (-)>>>
             <<<Displacing  27/coordinate 1 (-)>>>
             <<<Displacing  27/coordinate 2 (+)>>>
             <<<Displacing  27/coordinate 2 (-)>>>
             <<<Displacing  27/coordinate 3 (+)>>>
             <<<Displacing  27/coordinate 3 (-)>>>
             <<<Displacing  28/coordinate 1 (+)>>>
             <<<Displacing  28/coordinate 1 (-)>>>
             <<<Displacing  28/coordinate 2 (+)>>>
             <<<Displacing  28/coordinate 2 (-)>>>
             <<<Displacing  28/coordinate 3 (+)>>>
             <<<Displacing  28/coordinate 3 (-)>>>
             <<<Displacing  29/coordinate 1 (+)>>>
             <<<Displacing  29/coordinate 1 (-)>>>
             <<<Displacing  29/coordinate 2 (+)>>>
             <<<Displacing  29/coordinate 2 (-)>>>
             <<<Displacing  29/coordinate 3 (+)>>>
             <<<Displacing  29/coordinate 3 (-)>>>
             <<<Displacing  30/coordinate 1 (+)>>>
             <<<Displacing  30/coordinate 1 (-)>>>
             <<<Displacing  30/coordinate 3 (+)>>>
             <<<Displacing  30/coordinate 3 (-)>>>
             <<<Displacing  30/coordinate 2 (+)>>>
             <<<Displacing  30/coordinate 2 (-)>>>
             <<<Displacing  31/coordinate 1 (+)>>>
             <<<Displacing  31/coordinate 1 (-)>>>
             <<<Displacing  31/coordinate 2 (+)>>>
             <<<Displacing  31/coordinate 3 (+)>>>
             <<<Displacing  31/coordinate 2 (-)>>>
             <<<Displacing  31/coordinate 3 (-)>>>
             <<<Displacing  32/coordinate 1 (+)>>>
             <<<Displacing  32/coordinate 1 (-)>>>
             <<<Displacing  32/coordinate 2 (+)>>>
             <<<Displacing  32/coordinate 2 (-)>>>
             <<<Displacing  32/coordinate 3 (+)>>>
             <<<Displacing  32/coordinate 3 (-)>>>
             <<<Displacing  33/coordinate 1 (+)>>>
             <<<Displacing  33/coordinate 1 (-)>>>
             <<<Displacing  33/coordinate 2 (+)>>>
             <<<Displacing  33/coordinate 3 (+)>>>
             <<<Displacing  33/coordinate 2 (-)>>>
             <<<Displacing  33/coordinate 3 (-)>>>
             <<<Displacing  34/coordinate 1 (+)>>>
             <<<Displacing  34/coordinate 1 (-)>>>
             <<<Displacing  34/coordinate 2 (+)>>>
             <<<Displacing  34/coordinate 2 (-)>>>
             <<<Displacing  34/coordinate 3 (+)>>>
             <<<Displacing  34/coordinate 3 (-)>>>
             <<<Displacing  35/coordinate 1 (+)>>>
             <<<Displacing  35/coordinate 1 (-)>>>
             <<<Displacing  35/coordinate 2 (+)>>>
             <<<Displacing  35/coordinate 2 (-)>>>
             <<<Displacing  36/coordinate 2 (+)>>>
             <<<Displacing  35/coordinate 3 (+)>>>
             <<<Displacing  36/coordinate 2 (-)>>>
             <<<Displacing  35/coordinate 3 (-)>>>
             <<<Displacing  36/coordinate 3 (+)>>>
             <<<Displacing  36/coordinate 1 (+)>>>
             <<<Displacing  36/coordinate 3 (-)>>>
             <<<Displacing  36/coordinate 1 (-)>>>
             <<<Displacing  37/coordinate 1 (+)>>>
             <<<Displacing  37/coordinate 1 (-)>>>
             <<<Displacing  37/coordinate 2 (+)>>>
             <<<Displacing  37/coordinate 2 (-)>>>
             <<<Displacing  37/coordinate 3 (+)>>>
             <<<Displacing  37/coordinate 3 (-)>>>
             <<<Displacing  38/coordinate 1 (+)>>>
             <<<Displacing  38/coordinate 1 (-)>>>
             <<<Displacing  38/coordinate 3 (+)>>>
             <<<Displacing  39/coordinate 1 (+)>>>
             <<<Displacing  38/coordinate 3 (-)>>>
             <<<Displacing  39/coordinate 1 (-)>>>
             <<<Displacing  38/coordinate 2 (+)>>>
             <<<Displacing  39/coordinate 2 (+)>>>
             <<<Displacing  38/coordinate 2 (-)>>>
             <<<Displacing  39/coordinate 2 (-)>>>
             <<<Displacing  39/coordinate 3 (+)>>>
             <<<Displacing  39/coordinate 3 (-)>>>
             <<<Displacing  40/coordinate 1 (+)>>>
             <<<Displacing  40/coordinate 2 (+)>>>
             <<<Displacing  40/coordinate 1 (-)>>>
             <<<Displacing  40/coordinate 2 (-)>>>
             <<<Displacing  40/coordinate 3 (+)>>>
             <<<Displacing  40/coordinate 3 (-)>>>
             <<<Displacing  41/coordinate 1 (+)>>>
             <<<Displacing  41/coordinate 2 (+)>>>
             <<<Displacing  41/coordinate 1 (-)>>>
             <<<Displacing  41/coordinate 3 (+)>>>
             <<<Displacing  41/coordinate 2 (-)>>>
             <<<Displacing  41/coordinate 3 (-)>>>
             <<<Displacing  42/coordinate 1 (+)>>>
             <<<Displacing  42/coordinate 1 (-)>>>
             <<<Displacing  42/coordinate 2 (+)>>>
             <<<Displacing  42/coordinate 2 (-)>>>
             <<<Displacing  43/coordinate 1 (+)>>>
             <<<Displacing  43/coordinate 1 (-)>>>
             <<<Displacing  42/coordinate 3 (+)>>>
             <<<Displacing  42/coordinate 3 (-)>>>
             <<<Displacing  43/coordinate 2 (+)>>>
             <<<Displacing  43/coordinate 2 (-)>>>
             <<<Displacing  43/coordinate 3 (+)>>>
             <<<Displacing  43/coordinate 3 (-)>>>

-----------------------
VIBRATIONAL FREQUENCIES
-----------------------

Scaling factor for frequencies =  1.000000000 (already applied!)

   0:         0.00 cm**-1
   1:         0.00 cm**-1
   2:         0.00 cm**-1
   3:         0.00 cm**-1
   4:         0.00 cm**-1
   5:         0.00 cm**-1
   6:        38.52 cm**-1
   7:        48.38 cm**-1
   8:        67.90 cm**-1
   9:        78.75 cm**-1
  10:        85.14 cm**-1
  11:       103.04 cm**-1
  12:       108.99 cm**-1
  13:       150.33 cm**-1
  14:       160.73 cm**-1
  15:       167.12 cm**-1
  16:       182.51 cm**-1
  17:       193.13 cm**-1
  18:       205.17 cm**-1
  19:       209.41 cm**-1
  20:       226.39 cm**-1
  21:       249.32 cm**-1
  22:       288.15 cm**-1
  23:       296.62 cm**-1
  24:       350.46 cm**-1
  25:       352.38 cm**-1
  26:       387.12 cm**-1
  27:       394.55 cm**-1
  28:       401.43 cm**-1
  29:       427.88 cm**-1
  30:       429.34 cm**-1
  31:       469.51 cm**-1
  32:       484.09 cm**-1
  33:       519.26 cm**-1
  34:       588.96 cm**-1
  35:       626.27 cm**-1
  36:       676.27 cm**-1
  37:       786.43 cm**-1
  38:       788.88 cm**-1
  39:       798.80 cm**-1
  40:       835.65 cm**-1
  41:       839.74 cm**-1
  42:       865.65 cm**-1
  43:       901.01 cm**-1
  44:       923.59 cm**-1
  45:       935.36 cm**-1
  46:       936.25 cm**-1
  47:       943.50 cm**-1
  48:       945.41 cm**-1
  49:       951.88 cm**-1
  50:       959.68 cm**-1
  51:       965.14 cm**-1
  52:       969.18 cm**-1
  53:       973.89 cm**-1
  54:      1003.33 cm**-1
  55:      1035.05 cm**-1
  56:      1040.89 cm**-1
  57:      1041.66 cm**-1
  58:      1055.76 cm**-1
  59:      1066.72 cm**-1
  60:      1075.85 cm**-1
  61:      1089.25 cm**-1
  62:      1111.03 cm**-1
  63:      1119.15 cm**-1
  64:      1134.77 cm**-1
  65:      1145.77 cm**-1
  66:      1183.67 cm**-1
  67:      1187.58 cm**-1
  68:      1206.82 cm**-1
  69:      1211.78 cm**-1
  70:      1216.13 cm**-1
  71:      1243.06 cm**-1
  72:      1257.50 cm**-1
  73:      1267.80 cm**-1
  74:      1274.23 cm**-1
  75:      1277.70 cm**-1
  76:      1281.57 cm**-1
  77:      1282.24 cm**-1
  78:      1285.64 cm**-1
  79:      1320.76 cm**-1
  80:      1329.19 cm**-1
  81:      1340.21 cm**-1
  82:      1355.66 cm**-1
  83:      1368.86 cm**-1
  84:      1372.60 cm**-1
  85:      1408.38 cm**-1
  86:      1432.82 cm**-1
  87:      1434.81 cm**-1
  88:      1438.87 cm**-1
  89:      1477.88 cm**-1
  90:      1499.36 cm**-1
  91:      1500.19 cm**-1
  92:      1507.52 cm**-1
  93:      1510.39 cm**-1
  94:      1510.64 cm**-1
  95:      1513.55 cm**-1
  96:      1516.68 cm**-1
  97:      1517.10 cm**-1
  98:      1519.46 cm**-1
  99:      1523.37 cm**-1
 100:      1531.74 cm**-1
 101:      1579.48 cm**-1
 102:      1602.89 cm**-1
 103:      2778.24 cm**-1
 104:      2805.15 cm**-1
 105:      2863.45 cm**-1
 106:      2869.76 cm**-1
 107:      2869.93 cm**-1
 108:      2872.65 cm**-1
 109:      2877.04 cm**-1
 110:      2889.64 cm**-1
 111:      2892.84 cm**-1
 112:      2896.15 cm**-1
 113:      2898.52 cm**-1
 114:      2908.34 cm**-1
 115:      2911.83 cm**-1
 116:      2914.05 cm**-1
 117:      2916.52 cm**-1
 118:      2917.81 cm**-1
 119:      2924.04 cm**-1
 120:      2928.68 cm**-1
 121:      2932.35 cm**-1
 122:      2978.84 cm**-1
 123:      2985.40 cm**-1
 124:      2991.46 cm**-1
 125:      3001.27 cm**-1
 126:      3017.31 cm**-1
 127:      3206.59 cm**-1
 128:      3291.17 cm**-1


------------
NORMAL MODES
------------

These modes are the cartesian displacements weighted by the diagonal matrix
M(i,i)=1/sqrt(m[i]) where m[i] is the mass of the displaced atom
Thus, these vectors are normalized but *not* orthogonal

                  0          1          2          3          4          5    
      0       0.000000   0.000000   0.000000   0.000000   0.000000   0.000000
      1       0.000000   0.000000   0.000000   0.000000   0.000000   0.000000
      2       0.000000   0.000000   0.000000   0.000000   0.000000   0.000000
      3       0.000000   0.000000   0.000000   0.000000   0.000000   0.000000
      4       0.000000   0.000000   0.000000   0.000000   0.000000   0.000000
      5       0.000000   0.000000   0.000000   0.000000   0.000000   0.000000
      6       0.000000   0.000000   0.000000   0.000000   0.000000   0.000000
      7       0.000000   0.000000   0.000000   0.000000   0.000000   0.000000
      8       0.000000   0.000000   0.000000   0.000000   0.000000   0.000000
      9       0.000000   0.000000   0.000000   0.000000   0.000000   0.000000
     10       0.000000   0.000000   0.000000   0.000000   0.000000   0.000000
     11       0.000000   0.000000   0.000000   0.000000   0.000000   0.000000
     12       0.000000   0.000000   0.000000   0.000000   0.000000   0.000000
     13       0.000000   0.000000   0.000000   0.000000   0.000000   0.000000
     14       0.000000   0.000000   0.000000   0.000000   0.000000   0.000000
     15       0.000000   0.000000   0.000000   0.000000   0.000000   0.000000
     16       0.000000   0.000000   0.000000   0.000000   0.000000   0.000000
     17       0.000000   0.000000   0.000000   0.000000   0.000000   0.000000
     18       0.000000   0.000000   0.000000   0.000000   0.000000   0.000000
     19       0.000000   0.000000   0.000000   0.000000   0.000000   0.000000
     20       0.000000   0.000000   0.000000   0.000000   0.000000   0.000000
     21       0.000000   0.000000   0.000000   0.000000   0.000000   0.000000
     22       0.000000   0.000000   0.000000   0.000000   0.000000   0.000000
     23       0.000000   0.000000   0.000000   0.000000   0.000000   0.000000
     24       0.000000   0.000000   0.000000   0.000000   0.000000   0.000000
     25       0.000000   0.000000   0.000000   0.000000   0.000000   0.000000
     26       0.000000   0.000000   0.000000   0.000000   0.000000   0.000000
     27       0.000000   0.000000   0.000000   0.000000   0.000000   0.000000
     28       0.000000   0.000000   0.000000   0.000000   0.000000   0.000000
     29       0.000000   0.000000   0.000000   0.000000   0.000000   0.000000
     30       0.000000   0.000000   0.000000   0.000000   0.000000   0.000000
     31       0.000000   0.000000   0.000000   0.000000   0.000000   0.000000
     32       0.000000   0.000000   0.000000   0.000000   0.000000   0.000000
     33       0.000000   0.000000   0.000000   0.000000   0.000000   0.000000
     34       0.000000   0.000000   0.000000   0.000000   0.000000   0.000000
     35       0.000000   0.000000   0.000000   0.000000   0.000000   0.000000
     36       0.000000   0.000000   0.000000   0.000000   0.000000   0.000000
     37       0.000000   0.000000   0.000000   0.000000   0.000000   0.000000
     38       0.000000   0.000000   0.000000   0.000000   0.000000   0.000000
     39       0.000000   0.000000   0.000000   0.000000   0.000000   0.000000
     40       0.000000   0.000000   0.000000   0.000000   0.000000   0.000000
     41       0.000000   0.000000   0.000000   0.000000   0.000000   0.000000
     42       0.000000   0.000000   0.000000   0.000000   0.000000   0.000000
     43       0.000000   0.000000   0.000000   0.000000   0.000000   0.000000
     44       0.000000   0.000000   0.000000   0.000000   0.000000   0.000000
     45       0.000000   0.000000   0.000000   0.000000   0.000000   0.000000
     46       0.000000   0.000000   0.000000   0.000000   0.000000   0.000000
     47       0.000000   0.000000   0.000000   0.000000   0.000000   0.000000
     48       0.000000   0.000000   0.000000   0.000000   0.000000   0.000000
     49       0.000000   0.000000   0.000000   0.000000   0.000000   0.000000
     50       0.000000   0.000000   0.000000   0.000000   0.000000   0.000000
     51       0.000000   0.000000   0.000000   0.000000   0.000000   0.000000
     52       0.000000   0.000000   0.000000   0.000000   0.000000   0.000000
     53       0.000000   0.000000   0.000000   0.000000   0.000000   0.000000
     54       0.000000   0.000000   0.000000   0.000000   0.000000   0.000000
     55       0.000000   0.000000   0.000000   0.000000   0.000000   0.000000
     56       0.000000   0.000000   0.000000   0.000000   0.000000   0.000000
     57       0.000000   0.000000   0.000000   0.000000   0.000000   0.000000
     58       0.000000   0.000000   0.000000   0.000000   0.000000   0.000000
     59       0.000000   0.000000   0.000000   0.000000   0.000000   0.000000
     60       0.000000   0.000000   0.000000   0.000000   0.000000   0.000000
     61       0.000000   0.000000   0.000000   0.000000   0.000000   0.000000
     62       0.000000   0.000000   0.000000   0.000000   0.000000   0.000000
     63       0.000000   0.000000   0.000000   0.000000   0.000000   0.000000
     64       0.000000   0.000000   0.000000   0.000000   0.000000   0.000000
     65       0.000000   0.000000   0.000000   0.000000   0.000000   0.000000
     66       0.000000   0.000000   0.000000   0.000000   0.000000   0.000000
     67       0.000000   0.000000   0.000000   0.000000   0.000000   0.000000
     68       0.000000   0.000000   0.000000   0.000000   0.000000   0.000000
     69       0.000000   0.000000   0.000000   0.000000   0.000000   0.000000
     70       0.000000   0.000000   0.000000   0.000000   0.000000   0.000000
     71       0.000000   0.000000   0.000000   0.000000   0.000000   0.000000
     72       0.000000   0.000000   0.000000   0.000000   0.000000   0.000000
     73       0.000000   0.000000   0.000000   0.000000   0.000000   0.000000
     74       0.000000   0.000000   0.000000   0.000000   0.000000   0.000000
     75       0.000000   0.000000   0.000000   0.000000   0.000000   0.000000
     76       0.000000   0.000000   0.000000   0.000000   0.000000   0.000000
     77       0.000000   0.000000   0.000000   0.000000   0.000000   0.000000
     78       0.000000   0.000000   0.000000   0.000000   0.000000   0.000000
     79       0.000000   0.000000   0.000000   0.000000   0.000000   0.000000
     80       0.000000   0.000000   0.000000   0.000000   0.000000   0.000000
     81       0.000000   0.000000   0.000000   0.000000   0.000000   0.000000
     82       0.000000   0.000000   0.000000   0.000000   0.000000   0.000000
     83       0.000000   0.000000   0.000000   0.000000   0.000000   0.000000
     84       0.000000   0.000000   0.000000   0.000000   0.000000   0.000000
     85       0.000000   0.000000   0.000000   0.000000   0.000000   0.000000
     86       0.000000   0.000000   0.000000   0.000000   0.000000   0.000000
     87       0.000000   0.000000   0.000000   0.000000   0.000000   0.000000
     88       0.000000   0.000000   0.000000   0.000000   0.000000   0.000000
     89       0.000000   0.000000   0.000000   0.000000   0.000000   0.000000
     90       0.000000   0.000000   0.000000   0.000000   0.000000   0.000000
     91       0.000000   0.000000   0.000000   0.000000   0.000000   0.000000
     92       0.000000   0.000000   0.000000   0.000000   0.000000   0.000000
     93       0.000000   0.000000   0.000000   0.000000   0.000000   0.000000
     94       0.000000   0.000000   0.000000   0.000000   0.000000   0.000000
     95       0.000000   0.000000   0.000000   0.000000   0.000000   0.000000
     96       0.000000   0.000000   0.000000   0.000000   0.000000   0.000000
     97       0.000000   0.000000   0.000000   0.000000   0.000000   0.000000
     98       0.000000   0.000000   0.000000   0.000000   0.000000   0.000000
     99       0.000000   0.000000   0.000000   0.000000   0.000000   0.000000
    100       0.000000   0.000000   0.000000   0.000000   0.000000   0.000000
    101       0.000000   0.000000   0.000000   0.000000   0.000000   0.000000
    102       0.000000   0.000000   0.000000   0.000000   0.000000   0.000000
    103       0.000000   0.000000   0.000000   0.000000   0.000000   0.000000
    104       0.000000   0.000000   0.000000   0.000000   0.000000   0.000000
    105       0.000000   0.000000   0.000000   0.000000   0.000000   0.000000
    106       0.000000   0.000000   0.000000   0.000000   0.000000   0.000000
    107       0.000000   0.000000   0.000000   0.000000   0.000000   0.000000
    108       0.000000   0.000000   0.000000   0.000000   0.000000   0.000000
    109       0.000000   0.000000   0.000000   0.000000   0.000000   0.000000
    110       0.000000   0.000000   0.000000   0.000000   0.000000   0.000000
    111       0.000000   0.000000   0.000000   0.000000   0.000000   0.000000
    112       0.000000   0.000000   0.000000   0.000000   0.000000   0.000000
    113       0.000000   0.000000   0.000000   0.000000   0.000000   0.000000
    114       0.000000   0.000000   0.000000   0.000000   0.000000   0.000000
    115       0.000000   0.000000   0.000000   0.000000   0.000000   0.000000
    116       0.000000   0.000000   0.000000   0.000000   0.000000   0.000000
    117       0.000000   0.000000   0.000000   0.000000   0.000000   0.000000
    118       0.000000   0.000000   0.000000   0.000000   0.000000   0.000000
    119       0.000000   0.000000   0.000000   0.000000   0.000000   0.000000
    120       0.000000   0.000000   0.000000   0.000000   0.000000   0.000000
    121       0.000000   0.000000   0.000000   0.000000   0.000000   0.000000
    122       0.000000   0.000000   0.000000   0.000000   0.000000   0.000000
    123       0.000000   0.000000   0.000000   0.000000   0.000000   0.000000
    124       0.000000   0.000000   0.000000   0.000000   0.000000   0.000000
    125       0.000000   0.000000   0.000000   0.000000   0.000000   0.000000
    126       0.000000   0.000000   0.000000   0.000000   0.000000   0.000000
    127       0.000000   0.000000   0.000000   0.000000   0.000000   0.000000
    128       0.000000   0.000000   0.000000   0.000000   0.000000   0.000000
                  6          7          8          9         10         11    
      0       0.061244   0.007471   0.000431   0.062159  -0.044950   0.038267
      1       0.101317   0.024587  -0.019852  -0.072039  -0.007741  -0.070538
      2       0.010729  -0.000697  -0.083255   0.003405   0.122910   0.066478
      3       0.059768   0.007589  -0.000494   0.066030  -0.041557   0.049219
      4       0.087085   0.024959  -0.019513  -0.026107  -0.020971   0.023692
      5       0.003488  -0.003132  -0.059295   0.026580   0.015708   0.032716
      6       0.072388   0.007191   0.000672   0.030277  -0.039992  -0.026431
      7       0.076092   0.025601  -0.016653   0.000140  -0.031699   0.074530
      8      -0.008503  -0.001173  -0.029532   0.019063  -0.060381  -0.032043
      9       0.083974   0.006115   0.004178  -0.007657  -0.046295  -0.114826
     10       0.081283   0.026006  -0.015667  -0.023847  -0.026957   0.029632
     11      -0.012098   0.002680  -0.031180  -0.015248  -0.013599  -0.057341
     12       0.084764   0.005921   0.005339  -0.010742  -0.049654  -0.126467
     13       0.095601   0.025367  -0.015957  -0.069407  -0.012115  -0.065503
     14      -0.002996   0.005081  -0.057145  -0.037775   0.097564  -0.024092
     15       0.073180   0.006483   0.003575   0.024184  -0.049508  -0.049797
     16       0.106058   0.024835  -0.018064  -0.093936  -0.003300  -0.114527
     17       0.007445   0.003449  -0.080925  -0.027552   0.162014   0.036399
     18       0.049754   0.007988  -0.002287   0.095453  -0.039865   0.115461
     19       0.083067   0.024671  -0.020552  -0.009193  -0.024679   0.056887
     20       0.006370  -0.006011  -0.060569   0.049053  -0.010774   0.054010
     21       0.086678   0.003980   0.007907  -0.032421  -0.047015  -0.169770
     22       0.077155   0.027533  -0.015381  -0.007002  -0.033037   0.066252
     23      -0.021678   0.003877  -0.009457  -0.025120  -0.063210  -0.094343
     24       0.074129   0.006379   0.004198   0.021117  -0.051551  -0.058091
     25       0.116907   0.024450  -0.018115  -0.128739   0.006430  -0.183910
     26       0.012627   0.005217  -0.096780  -0.043099   0.238084   0.059930
     27       0.091910   0.007065  -0.003968   0.005593  -0.026534  -0.040264
     28       0.027368   0.025423  -0.004965   0.082534  -0.055593   0.179177
     29      -0.021238   0.004445   0.031993   0.032010  -0.191892  -0.090452
     30       0.084016   0.008504  -0.004643   0.012562  -0.028637  -0.033367
     31      -0.010813   0.033341  -0.002988   0.110303  -0.068696   0.204346
     32      -0.025745   0.007362   0.049679   0.022896  -0.148352  -0.050920
     33       0.054556   0.014912  -0.005714   0.032850  -0.051768  -0.032370
     34      -0.010686   0.026250  -0.000015   0.124376  -0.081212   0.221964
     35      -0.008974  -0.025816   0.063269   0.069894  -0.183332   0.021098
     36       0.105841  -0.006421  -0.009379   0.022784  -0.076434  -0.056906
     37      -0.011046   0.009787   0.007441   0.153283  -0.108947   0.254336
     38      -0.038125   0.034073   0.044158  -0.016319  -0.089059  -0.075942
     39      -0.113491  -0.036049   0.006181  -0.109398  -0.057065   0.021363
     40      -0.063095  -0.086361   0.106455   0.223706   0.149484  -0.146375
     41       0.066277   0.012320   0.254482  -0.015545  -0.021078   0.022800
     42      -0.166051  -0.018902   0.124971  -0.090700  -0.029905   0.092373
     43      -0.052793  -0.080045   0.097482   0.241363   0.138591  -0.176917
     44       0.047188   0.007224   0.281448  -0.045628  -0.005459   0.086682
     45       0.069331   0.007247  -0.000381   0.035696  -0.035179  -0.014454
     46       0.048552   0.024592  -0.011329   0.054926  -0.043577   0.157514
     47      -0.016295  -0.002321   0.002366   0.037121  -0.145651  -0.053183
     48       0.047243   0.007629   0.001092   0.070184  -0.041675   0.029813
     49       0.041934   0.023860  -0.011997   0.067008  -0.044119   0.176305
     50      -0.016146  -0.009501  -0.003370   0.049775  -0.131265  -0.015694
     51       0.088381   0.020670   0.001535  -0.024048   0.089780   0.017607
     52      -0.055948   0.088228  -0.020958   0.048443  -0.015849   0.107966
     53      -0.034496   0.026845   0.048918  -0.011515  -0.071887  -0.046539
     54       0.061244   0.071239  -0.007516  -0.077803   0.168642  -0.007294
     55      -0.052470   0.077066  -0.019466   0.043683   0.007752   0.105858
     56      -0.023179   0.009755   0.052309   0.020292  -0.132300  -0.031789
     57       0.124059  -0.027084   0.015808   0.007377   0.112528   0.102538
     58      -0.051219   0.078560  -0.018987   0.050290  -0.006867   0.113212
     59      -0.047214   0.033846   0.043287  -0.030588  -0.058955  -0.093578
     60       0.082711   0.028583  -0.001449  -0.029240   0.084565   0.002144
     61      -0.110099   0.170679  -0.043463  -0.013902  -0.014822  -0.010805
     62      -0.039525   0.056962   0.050390  -0.059856   0.076223   0.011824
     63       0.108067  -0.023795   0.007255   0.021462   0.007033   0.027858
     64      -0.110247   0.164835  -0.047911  -0.013381  -0.024123   0.004271
     65      -0.051703   0.086887   0.049871  -0.085012   0.121263  -0.012455
     66       0.047684   0.079421  -0.016257  -0.063003   0.058855  -0.090264
     67      -0.113518   0.174029  -0.046293  -0.017633  -0.017857  -0.013303
     68      -0.023374   0.027386   0.051957  -0.045636   0.086440   0.079537
     69       0.053310   0.008062  -0.001266   0.087396  -0.043702   0.096699
     70       0.108206   0.023991  -0.021163  -0.089789  -0.001916  -0.107107
     71       0.018384  -0.001950  -0.101776   0.009495   0.172412   0.112873
     72       0.095079   0.005569   0.007217  -0.039426  -0.051823  -0.194063
     73       0.099755   0.025664  -0.015039  -0.085997  -0.007767  -0.098428
     74      -0.005088   0.007927  -0.056657  -0.061313   0.129387  -0.042822
     75      -0.177596  -0.035198  -0.034169  -0.011892  -0.013360   0.035275
     76      -0.048615  -0.100798   0.091400   0.156554   0.128210  -0.130588
     77       0.041130  -0.006679   0.173110  -0.008547   0.002033   0.057658
     78      -0.192217  -0.022194  -0.016638   0.072876   0.027063   0.008374
     79      -0.051723  -0.098599   0.099884   0.173833   0.138880  -0.136786
     80       0.040364  -0.010595   0.218769   0.003350   0.030792   0.038623
     81      -0.178539  -0.053971  -0.156603  -0.023874  -0.033377   0.036789
     82      -0.052968  -0.105821   0.110786   0.170786   0.152293  -0.147424
     83       0.043087  -0.004563   0.165599  -0.014822  -0.008261   0.065367
     84      -0.174270  -0.029583   0.033443  -0.043596  -0.020493   0.052106
     85      -0.034442  -0.117352   0.039711   0.024735   0.050281  -0.067481
     86       0.034616  -0.023643   0.005680   0.027168  -0.003588   0.039819
     87      -0.173286   0.002345   0.165976  -0.016667   0.006895   0.046273
     88      -0.031670  -0.074634   0.039552   0.042568   0.038957  -0.055779
     89       0.033358  -0.044491   0.004540   0.018379   0.001604   0.034283
     90      -0.168594  -0.060286   0.014184  -0.159199  -0.075294   0.103276
     91      -0.033050  -0.114842   0.032652   0.007948   0.037812  -0.055694
     92       0.036886   0.020880  -0.017281   0.052304  -0.016198   0.048700
     93      -0.180982  -0.025131  -0.048366   0.042489   0.007859   0.009992
     94      -0.031910  -0.194287   0.000834  -0.115823   0.001892  -0.025514
     95       0.028997  -0.070500  -0.128440   0.043256  -0.000079   0.013100
     96      -0.186949  -0.062732  -0.157907   0.023161  -0.008501   0.008754
     97      -0.029761  -0.229060  -0.016913  -0.136956   0.003696  -0.033647
     98       0.028556  -0.053795  -0.115985   0.053732  -0.000261   0.016976
     99      -0.181607   0.013418  -0.041095   0.153225   0.051975  -0.037288
    100      -0.031631  -0.192094   0.001904  -0.101167   0.009255  -0.033867
    101       0.032059  -0.105212  -0.129849   0.011323  -0.000434   0.009361
    102      -0.159627  -0.032447   0.029330  -0.073528  -0.034619   0.054298
    103      -0.067431  -0.085114   0.108270   0.226669   0.150811  -0.140230
    104       0.051746   0.009178   0.280061  -0.041321  -0.009605   0.075350
    105      -0.178832  -0.021016   0.007307   0.005867  -0.002179   0.031469
    106      -0.033959  -0.228190  -0.014565  -0.240609  -0.055474   0.038445
    107       0.022598  -0.092780  -0.265300   0.085465   0.003252  -0.014532
    108      -0.180210  -0.020161  -0.045336   0.059110   0.014990   0.001982
    109      -0.035429  -0.246446  -0.016378  -0.298160  -0.075561   0.059871
    110       0.019927  -0.104406  -0.330058   0.109994   0.010060  -0.035301
    111      -0.180610  -0.044600   0.007303  -0.081636  -0.039198   0.074114
    112      -0.034333  -0.233181  -0.016966  -0.258528  -0.063983   0.048048
    113       0.022412  -0.096448  -0.289684   0.085440  -0.006299  -0.005581
    114      -0.174556   0.004188   0.097560   0.014888   0.010311   0.033601
    115      -0.034110  -0.228917  -0.020538  -0.251402  -0.066692   0.052707
    116       0.022345  -0.094427  -0.269603   0.089812   0.007492  -0.021340
    117       0.090492   0.037546   0.002607  -0.056197   0.215041   0.076384
    118      -0.157946   0.256874  -0.054938  -0.070661  -0.001230  -0.148616
    119      -0.048427   0.085161   0.049627  -0.089484   0.150653   0.015617
    120       0.087795   0.039720   0.001380  -0.056682   0.204959   0.065224
    121      -0.176868   0.279255  -0.065142  -0.090722  -0.015679  -0.202412
    122      -0.044280   0.091786   0.049826  -0.111458   0.243200   0.065626
    123       0.112145   0.014005   0.012582  -0.039954   0.251262   0.146081
    124      -0.161194   0.266536  -0.053598  -0.074364   0.005093  -0.157132
    125      -0.074493   0.135597   0.047797  -0.113799   0.149661  -0.061747
    126       0.078380   0.064071  -0.003616  -0.089731   0.279296   0.070559
    127      -0.170111   0.286783  -0.053513  -0.085617   0.015323  -0.182546
    128      -0.033823   0.050618   0.051179  -0.063571   0.110373   0.044586
                 12         13         14         15         16         17    
      0       0.025496  -0.003498   0.037738   0.030956  -0.005284   0.005705
      1      -0.054316  -0.032444  -0.010312  -0.016981   0.009009  -0.021432
      2      -0.206543  -0.085810   0.030770   0.034912  -0.003099   0.004556
      3       0.028805  -0.004051   0.042893   0.036043  -0.007120   0.013410
      4      -0.028398   0.039511   0.018628   0.028500  -0.010598   0.054145
      5      -0.226712   0.107708  -0.052824  -0.004299   0.000554  -0.016512
      6       0.001555  -0.029838   0.012189   0.001490   0.004452  -0.025185
      7       0.022923   0.073352   0.037729   0.051011  -0.019835   0.086615
      8      -0.007446   0.193542  -0.083400  -0.039169   0.003616  -0.024586
      9      -0.030481  -0.067994  -0.022397  -0.040787   0.021723  -0.096764
     10       0.047951   0.049970   0.024986   0.029771  -0.012354   0.057702
     11       0.228827   0.152906  -0.063594  -0.053759   0.003456  -0.018563
     12      -0.034260  -0.069661  -0.029222  -0.048480   0.024861  -0.110404
     13       0.021951  -0.019884  -0.004054  -0.016528   0.007465  -0.016576
     14       0.251558  -0.033151   0.017735  -0.018672   0.002966  -0.004567
     15      -0.006525  -0.038124   0.001493  -0.012179   0.011508  -0.061453
     16      -0.028294  -0.062761  -0.019160  -0.036944   0.017103  -0.051514
     17       0.036611  -0.174582   0.075377   0.031320  -0.000117   0.007944
     18       0.052423   0.018560   0.071628   0.068636  -0.018757   0.055505
     19      -0.046696   0.057321   0.027483   0.043964  -0.015798   0.071828
     20      -0.400662   0.155400  -0.077258   0.001084   0.000129  -0.020942
     21      -0.053570  -0.097894  -0.046063  -0.070053   0.033227  -0.147361
     22       0.085148   0.083652   0.038163   0.048440  -0.021037   0.095826
     23       0.375626   0.233687  -0.096346  -0.080878   0.005713  -0.025263
     24      -0.009198  -0.037237  -0.003307  -0.016672   0.012895  -0.066930
     25      -0.046547  -0.115472  -0.037777  -0.067313   0.030280  -0.100139
     26       0.055278  -0.332037   0.144959   0.063089  -0.000227   0.019515
     27       0.001030   0.017030   0.022280   0.027057  -0.015233   0.070558
     28       0.050426   0.008254   0.048443   0.039735  -0.000472  -0.027111
     29       0.033688  -0.055568   0.027702   0.031549  -0.019141   0.036756
     30       0.000594   0.008648   0.010641   0.014373  -0.008863   0.050116
     31       0.044044  -0.066135   0.002169  -0.019718   0.039165  -0.165257
     32       0.039526  -0.115449   0.061717   0.052008   0.003848   0.028347
     33      -0.008588  -0.040290  -0.025518  -0.031017   0.018677  -0.044232
     34       0.047293  -0.069975   0.025222  -0.011462   0.062627  -0.204555
     35       0.057267  -0.102504   0.173300   0.107839   0.083611  -0.084088
     36       0.001827   0.061020   0.039421   0.044325  -0.025073   0.085054
     37       0.053989  -0.083468   0.073903   0.006872   0.109154  -0.283731
     38       0.030864  -0.130017  -0.011158   0.013687  -0.040355   0.098592
     39       0.005227  -0.017021  -0.086267   0.057115  -0.013400   0.018557
     40      -0.006101   0.030952   0.101405  -0.074941  -0.001948  -0.002919
     41      -0.073433  -0.001261   0.092931  -0.126212  -0.071501   0.003566
     42      -0.017760   0.031493   0.055954  -0.044574   0.000458  -0.016844
     43      -0.007146   0.012253   0.140451  -0.135296  -0.057556   0.000698
     44      -0.074086   0.032175   0.049200  -0.050807   0.005483  -0.005420
     45       0.004243  -0.025089   0.011065   0.001425   0.003330  -0.019377
     46       0.041011   0.072485   0.048689   0.057280  -0.013897   0.047524
     47      -0.018484   0.190513  -0.071770  -0.025265   0.012410  -0.028594
     48       0.013237  -0.053376   0.005386  -0.014140   0.016888  -0.093547
     49       0.035105   0.085444   0.039645   0.049007  -0.003466   0.014948
     50      -0.077100   0.342989  -0.119380  -0.047615   0.051550  -0.085606
     51       0.012241   0.026607  -0.014726   0.002573  -0.014748   0.074166
     52       0.008725  -0.111831  -0.165422  -0.117692  -0.043935  -0.058977
     53       0.037394  -0.122120   0.010177   0.023876  -0.019808   0.062742
     54      -0.004656   0.072563  -0.000771  -0.026656   0.069874   0.163442
     55       0.011377  -0.158843  -0.283027  -0.146082  -0.175825  -0.089109
     56       0.043879  -0.105602   0.100637   0.062941   0.045832   0.040284
     57       0.044541   0.000424  -0.067183   0.013822  -0.114276  -0.051718
     58       0.011965  -0.130649  -0.212029  -0.125534  -0.101297  -0.080906
     59       0.023118  -0.170542  -0.119485  -0.019211  -0.145793   0.082435
     60       0.006454   0.036675  -0.003978   0.002905   0.001349   0.102014
     61      -0.038910  -0.045471  -0.063993  -0.122951   0.122841   0.145932
     62       0.046366  -0.059506  -0.002461  -0.011019   0.043289   0.027358
     63       0.021616  -0.038900  -0.046435   0.001320  -0.071230   0.077349
     64      -0.046063  -0.080793  -0.086082  -0.233415   0.300684   0.354522
     65       0.044713   0.005575   0.035535   0.077217  -0.061296  -0.126129
     66      -0.026605   0.071832   0.077813   0.021402   0.088842   0.240585
     67      -0.044185  -0.052410  -0.064286  -0.158813   0.192233   0.227172
     68       0.053725  -0.115406  -0.073964  -0.164656   0.234060   0.220142
     69       0.046849   0.024345   0.061275   0.060453  -0.017282   0.053881
     70      -0.091858  -0.064295  -0.023158  -0.034163   0.017360  -0.055292
     71      -0.366127  -0.168929   0.063025   0.067351  -0.006505   0.015855
     72      -0.058034  -0.094050  -0.058116  -0.082394   0.037456  -0.157033
[...]
    123       0.000030   0.000010   0.000080
    124      -0.000139  -0.000067   0.000096
    125      -0.000002  -0.000035  -0.000033
    126       0.000136   0.000009  -0.000015
    127       0.000279   0.000068  -0.000115
    128       0.000321   0.000134  -0.000114


-----------
IR SPECTRUM  
-----------

 Mode    freq (cm**-1)   T**2         TX         TY         TZ
-------------------------------------------------------------------
   6:        38.52    0.000000  (  0.000000   0.000000   0.000000)
   7:        48.38    0.000000  (  0.000000   0.000000   0.000000)
   8:        67.90    0.000000  (  0.000000   0.000000   0.000000)
   9:        78.75    0.000000  (  0.000000   0.000000   0.000000)
  10:        85.14    0.000000  (  0.000000   0.000000   0.000000)
  11:       103.04    0.000000  (  0.000000   0.000000   0.000000)
  12:       108.99    0.000000  (  0.000000   0.000000   0.000000)
  13:       150.33    0.000000  (  0.000000   0.000000   0.000000)
  14:       160.73    0.000000  (  0.000000   0.000000   0.000000)
  15:       167.12    0.000000  (  0.000000   0.000000   0.000000)
  16:       182.51    0.000000  (  0.000000   0.000000   0.000000)
  17:       193.13    0.000000  (  0.000000   0.000000   0.000000)
  18:       205.17    0.000000  (  0.000000   0.000000   0.000000)
  19:       209.41    0.000000  (  0.000000   0.000000   0.000000)
  20:       226.39    0.000000  (  0.000000   0.000000   0.000000)
  21:       249.32    0.000000  (  0.000000   0.000000   0.000000)
  22:       288.15    0.000000  (  0.000000   0.000000   0.000000)
  23:       296.62    0.000000  (  0.000000   0.000000   0.000000)
  24:       350.46    0.000000  (  0.000000   0.000000   0.000000)
  25:       352.38    0.000000  (  0.000000   0.000000   0.000000)
  26:       387.12    0.000000  (  0.000000   0.000000   0.000000)
  27:       394.55    0.000000  (  0.000000   0.000000   0.000000)
  28:       401.43    0.000000  (  0.000000   0.000000   0.000000)
  29:       427.88    0.000000  (  0.000000   0.000000   0.000000)
  30:       429.34    0.000000  (  0.000000   0.000000   0.000000)
  31:       469.51    0.000000  (  0.000000   0.000000   0.000000)
  32:       484.09    0.000000  (  0.000000   0.000000   0.000000)
  33:       519.26    0.000000  (  0.000000   0.000000   0.000000)
  34:       588.96    0.000000  (  0.000000   0.000000   0.000000)
  35:       626.27    0.000000  (  0.000000   0.000000   0.000000)
  36:       676.27    0.000000  (  0.000000   0.000000   0.000000)
  37:       786.43    0.000000  (  0.000000   0.000000   0.000000)
  38:       788.88    0.000000  (  0.000000   0.000000   0.000000)
  39:       798.80    0.000000  (  0.000000   0.000000   0.000000)
  40:       835.65    0.000000  (  0.000000   0.000000   0.000000)
  41:       839.74    0.000000  (  0.000000   0.000000   0.000000)
  42:       865.65    0.000000  (  0.000000   0.000000   0.000000)
  43:       901.01    0.000000  (  0.000000   0.000000   0.000000)
  44:       923.59    0.000000  (  0.000000   0.000000   0.000000)
  45:       935.36    0.000000  (  0.000000   0.000000   0.000000)
  46:       936.25    0.000000  (  0.000000   0.000000   0.000000)
  47:       943.50    0.000000  (  0.000000   0.000000   0.000000)
  48:       945.41    0.000000  (  0.000000   0.000000   0.000000)
  49:       951.88    0.000000  (  0.000000   0.000000   0.000000)
  50:       959.68    0.000000  (  0.000000   0.000000   0.000000)
  51:       965.14    0.000000  (  0.000000   0.000000   0.000000)
  52:       969.18    0.000000  (  0.000000   0.000000   0.000000)
  53:       973.89    0.000000  (  0.000000   0.000000   0.000000)
  54:      1003.33    0.000000  (  0.000000   0.000000   0.000000)
  55:      1035.05    0.000000  (  0.000000   0.000000   0.000000)
  56:      1040.89    0.000000  (  0.000000   0.000000   0.000000)
  57:      1041.66    0.000000  (  0.000000   0.000000   0.000000)
  58:      1055.76    0.000000  (  0.000000   0.000000   0.000000)
  59:      1066.72    0.000000  (  0.000000   0.000000   0.000000)
  60:      1075.85    0.000000  (  0.000000   0.000000   0.000000)
  61:      1089.25    0.000000  (  0.000000   0.000000   0.000000)
  62:      1111.03    0.000000  (  0.000000   0.000000   0.000000)
  63:      1119.15    0.000000  (  0.000000   0.000000   0.000000)
  64:      1134.77    0.000000  (  0.000000   0.000000   0.000000)
  65:      1145.77    0.000000  (  0.000000   0.000000   0.000000)
  66:      1183.67    0.000000  (  0.000000   0.000000   0.000000)
  67:      1187.58    0.000000  (  0.000000   0.000000   0.000000)
  68:      1206.82    0.000000  (  0.000000   0.000000   0.000000)
  69:      1211.78    0.000000  (  0.000000   0.000000   0.000000)
  70:      1216.13    0.000000  (  0.000000   0.000000   0.000000)
  71:      1243.06    0.000000  (  0.000000   0.000000   0.000000)
  72:      1257.50    0.000000  (  0.000000   0.000000   0.000000)
  73:      1267.80    0.000000  (  0.000000   0.000000   0.000000)
  74:      1274.23    0.000000  (  0.000000   0.000000   0.000000)
  75:      1277.70    0.000000  (  0.000000   0.000000   0.000000)
  76:      1281.57    0.000000  (  0.000000   0.000000   0.000000)
  77:      1282.24    0.000000  (  0.000000   0.000000   0.000000)
  78:      1285.64    0.000000  (  0.000000   0.000000   0.000000)
  79:      1320.76    0.000000  (  0.000000   0.000000   0.000000)
  80:      1329.19    0.000000  (  0.000000   0.000000   0.000000)
  81:      1340.21    0.000000  (  0.000000   0.000000   0.000000)
  82:      1355.66    0.000000  (  0.000000   0.000000   0.000000)
  83:      1368.86    0.000000  (  0.000000   0.000000   0.000000)
  84:      1372.60    0.000000  (  0.000000   0.000000   0.000000)
  85:      1408.38    0.000000  (  0.000000   0.000000   0.000000)
  86:      1432.82    0.000000  (  0.000000   0.000000   0.000000)
  87:      1434.81    0.000000  (  0.000000   0.000000   0.000000)
  88:      1438.87    0.000000  (  0.000000   0.000000   0.000000)
  89:      1477.88    0.000000  (  0.000000   0.000000   0.000000)
  90:      1499.36    0.000000  (  0.000000   0.000000   0.000000)
  91:      1500.19    0.000000  (  0.000000   0.000000   0.000000)
  92:      1507.52    0.000000  (  0.000000   0.000000   0.000000)
  93:      1510.39    0.000000  (  0.000000   0.000000   0.000000)
  94:      1510.64    0.000000  (  0.000000   0.000000   0.000000)
  95:      1513.55    0.000000  (  0.000000   0.000000   0.000000)
  96:      1516.68    0.000000  (  0.000000   0.000000   0.000000)
  97:      1517.10    0.000000  (  0.000000   0.000000   0.000000)
  98:      1519.46    0.000000  (  0.000000   0.000000   0.000000)
  99:      1523.37    0.000000  (  0.000000   0.000000   0.000000)
 100:      1531.74    0.000000  (  0.000000   0.000000   0.000000)
 101:      1579.48    0.000000  (  0.000000   0.000000   0.000000)
 102:      1602.89    0.000000  (  0.000000   0.000000   0.000000)
 103:      2778.24    0.000000  (  0.000000   0.000000   0.000000)
 104:      2805.15    0.000000  (  0.000000   0.000000   0.000000)
 105:      2863.45    0.000000  (  0.000000   0.000000   0.000000)
 106:      2869.76    0.000000  (  0.000000   0.000000   0.000000)
 107:      2869.93    0.000000  (  0.000000   0.000000   0.000000)
 108:      2872.65    0.000000  (  0.000000   0.000000   0.000000)
 109:      2877.04    0.000000  (  0.000000   0.000000   0.000000)
 110:      2889.64    0.000000  (  0.000000   0.000000   0.000000)
 111:      2892.84    0.000000  (  0.000000   0.000000   0.000000)
 112:      2896.15    0.000000  (  0.000000   0.000000   0.000000)
 113:      2898.52    0.000000  (  0.000000   0.000000   0.000000)
 114:      2908.34    0.000000  (  0.000000   0.000000   0.000000)
 115:      2911.83    0.000000  (  0.000000   0.000000   0.000000)
 116:      2914.05    0.000000  (  0.000000   0.000000   0.000000)
 117:      2916.52    0.000000  (  0.000000   0.000000   0.000000)
 118:      2917.81    0.000000  (  0.000000   0.000000   0.000000)
 119:      2924.04    0.000000  (  0.000000   0.000000   0.000000)
 120:      2928.68    0.000000  (  0.000000   0.000000   0.000000)
 121:      2932.35    0.000000  (  0.000000   0.000000   0.000000)
 122:      2978.84    0.000000  (  0.000000   0.000000   0.000000)
 123:      2985.40    0.000000  (  0.000000   0.000000   0.000000)
 124:      2991.46    0.000000  (  0.000000   0.000000   0.000000)
 125:      3001.27    0.000000  (  0.000000   0.000000   0.000000)
 126:      3017.31    0.000000  (  0.000000   0.000000   0.000000)
 127:      3206.59    0.000000  (  0.000000   0.000000   0.000000)
 128:      3291.17    0.000000  (  0.000000   0.000000   0.000000)

The first frequency considered to be a vibration is 6
The total number of vibrations considered is 123


--------------------------
THERMOCHEMISTRY AT 298.15K
--------------------------

Temperature         ... 298.15 K
Pressure            ... 1.00 atm
Total Mass          ... 234.39 AMU

Throughout the following assumptions are being made:
  (1) The electronic state is orbitally nondegenerate
  (2) There are no thermally accessible electronically excited states
  (3) Hindered rotations indicated by low frequency modes are not
      treated as such but are treated as vibrations and this may
      cause some error
  (4) All equations used are the standard statistical mechanics
      equations for an ideal gas
  (5) All vibrations are strictly harmonic

freq.      38.52  E(vib)   ...       0.54 
freq.      48.38  E(vib)   ...       0.53 
freq.      67.90  E(vib)   ...       0.50 
freq.      78.75  E(vib)   ...       0.49 
freq.      85.14  E(vib)   ...       0.48 
freq.     103.04  E(vib)   ...       0.46 
freq.     108.99  E(vib)   ...       0.45 
freq.     150.33  E(vib)   ...       0.40 
freq.     160.73  E(vib)   ...       0.39 
freq.     167.12  E(vib)   ...       0.39 
freq.     182.51  E(vib)   ...       0.37 
freq.     193.13  E(vib)   ...       0.36 
freq.     205.17  E(vib)   ...       0.35 
freq.     209.41  E(vib)   ...       0.34 
freq.     226.39  E(vib)   ...       0.33 
freq.     249.32  E(vib)   ...       0.31 
freq.     288.15  E(vib)   ...       0.27 
freq.     296.62  E(vib)   ...       0.27 
freq.     350.46  E(vib)   ...       0.23 
freq.     352.38  E(vib)   ...       0.23 
freq.     387.12  E(vib)   ...       0.20 
freq.     394.55  E(vib)   ...       0.20 
freq.     401.43  E(vib)   ...       0.19 
freq.     427.88  E(vib)   ...       0.18 
freq.     429.34  E(vib)   ...       0.18 
freq.     469.51  E(vib)   ...       0.16 
freq.     484.09  E(vib)   ...       0.15 
freq.     519.26  E(vib)   ...       0.13 
freq.     588.96  E(vib)   ...       0.10 
freq.     626.27  E(vib)   ...       0.09 
freq.     676.27  E(vib)   ...       0.08 
freq.     786.43  E(vib)   ...       0.05 
freq.     788.88  E(vib)   ...       0.05 
freq.     798.80  E(vib)   ...       0.05 
freq.     835.65  E(vib)   ...       0.04 
freq.     839.74  E(vib)   ...       0.04 
freq.     865.65  E(vib)   ...       0.04 
freq.     901.01  E(vib)   ...       0.03 
freq.     923.59  E(vib)   ...       0.03 
freq.     935.36  E(vib)   ...       0.03 
freq.     936.25  E(vib)   ...       0.03 
freq.     943.50  E(vib)   ...       0.03 
freq.     945.41  E(vib)   ...       0.03 
freq.     951.88  E(vib)   ...       0.03 
freq.     959.68  E(vib)   ...       0.03 
freq.     965.14  E(vib)   ...       0.03 
freq.     969.18  E(vib)   ...       0.03 
freq.     973.89  E(vib)   ...       0.03 
freq.    1003.33  E(vib)   ...       0.02 
freq.    1035.05  E(vib)   ...       0.02 
freq.    1040.89  E(vib)   ...       0.02 
freq.    1041.66  E(vib)   ...       0.02 
freq.    1055.76  E(vib)   ...       0.02 
freq.    1066.72  E(vib)   ...       0.02 
freq.    1075.85  E(vib)   ...       0.02 
freq.    1089.25  E(vib)   ...       0.02 
freq.    1111.03  E(vib)   ...       0.01 
freq.    1119.15  E(vib)   ...       0.01 
freq.    1134.77  E(vib)   ...       0.01 
freq.    1145.77  E(vib)   ...       0.01 
freq.    1183.67  E(vib)   ...       0.01 
freq.    1187.58  E(vib)   ...       0.01 
freq.    1206.82  E(vib)   ...       0.01 
freq.    1211.78  E(vib)   ...       0.01 
freq.    1216.13  E(vib)   ...       0.01 
freq.    1243.06  E(vib)   ...       0.01 
freq.    1257.50  E(vib)   ...       0.01 
freq.    1267.80  E(vib)   ...       0.01 
freq.    1274.23  E(vib)   ...       0.01 
freq.    1277.70  E(vib)   ...       0.01 
freq.    1281.57  E(vib)   ...       0.01 
freq.    1282.24  E(vib)   ...       0.01 
freq.    1285.64  E(vib)   ...       0.01 
freq.    1320.76  E(vib)   ...       0.01 
freq.    1329.19  E(vib)   ...       0.01 
freq.    1340.21  E(vib)   ...       0.01 
freq.    1355.66  E(vib)   ...       0.01 
freq.    1368.86  E(vib)   ...       0.01 
freq.    1372.60  E(vib)   ...       0.01 
freq.    1408.38  E(vib)   ...       0.00 
freq.    1432.82  E(vib)   ...       0.00 
freq.    1434.81  E(vib)   ...       0.00 
freq.    1438.87  E(vib)   ...       0.00 
freq.    1477.88  E(vib)   ...       0.00 
freq.    1499.36  E(vib)   ...       0.00 
freq.    1500.19  E(vib)   ...       0.00 
freq.    1507.52  E(vib)   ...       0.00 
freq.    1510.39  E(vib)   ...       0.00 
freq.    1510.64  E(vib)   ...       0.00 
freq.    1513.55  E(vib)   ...       0.00 
freq.    1516.68  E(vib)   ...       0.00 
freq.    1517.10  E(vib)   ...       0.00 
freq.    1519.46  E(vib)   ...       0.00 
freq.    1523.37  E(vib)   ...       0.00 
freq.    1531.74  E(vib)   ...       0.00 
freq.    1579.48  E(vib)   ...       0.00 
freq.    1602.89  E(vib)   ...       0.00 
freq.    2778.24  E(vib)   ...       0.00 
freq.    2805.15  E(vib)   ...       0.00 
freq.    2863.45  E(vib)   ...       0.00 
freq.    2869.76  E(vib)   ...       0.00 
freq.    2869.93  E(vib)   ...       0.00 
freq.    2872.65  E(vib)   ...       0.00 
freq.    2877.04  E(vib)   ...       0.00 
freq.    2889.64  E(vib)   ...       0.00 
freq.    2892.84  E(vib)   ...       0.00 
freq.    2896.15  E(vib)   ...       0.00 
freq.    2898.52  E(vib)   ...       0.00 
freq.    2908.34  E(vib)   ...       0.00 
freq.    2911.83  E(vib)   ...       0.00 
freq.    2914.05  E(vib)   ...       0.00 
freq.    2916.52  E(vib)   ...       0.00 
freq.    2917.81  E(vib)   ...       0.00 
freq.    2924.04  E(vib)   ...       0.00 
freq.    2928.68  E(vib)   ...       0.00 
freq.    2932.35  E(vib)   ...       0.00 
freq.    2978.84  E(vib)   ...       0.00 
freq.    2985.40  E(vib)   ...       0.00 
freq.    2991.46  E(vib)   ...       0.00 
freq.    3001.27  E(vib)   ...       0.00 
freq.    3017.31  E(vib)   ...       0.00 
freq.    3206.59  E(vib)   ...       0.00 
freq.    3291.17  E(vib)   ...       0.00 

------------
INNER ENERGY
------------

The inner energy is: U= E(el) + E(ZPE) + E(vib) + E(rot) + E(trans)
    E(el)   - is the total energy from the electronic structure calculation
              = E(kin-el) + E(nuc-el) + E(el-el) + E(nuc-nuc)
    E(ZPE)  - the the zero temperature vibrational energy from the frequency calculation
    E(vib)  - the the finite temperature correction to E(ZPE) due to population
              of excited vibrational states
    E(rot)  - is the rotational thermal energy
    E(trans)- is the translational thermal energy

Summary of contributions to the inner energy U:
Electronic energy                ...    -51.20727858 Eh
Zero point energy                ...      0.37551842 Eh     235.64 kcal/mol
Thermal vibrational correction   ...      0.01645149 Eh      10.32 kcal/mol
Thermal rotational correction    ...      0.00141627 Eh       0.89 kcal/mol
Thermal translational correction ...      0.00141627 Eh       0.89 kcal/mol
-----------------------------------------------------------------------
Total thermal energy                    -50.81247613 Eh


Summary of corrections to the electronic energy:
(perhaps to be used in another calculation)
Total thermal correction                  0.01928404 Eh      12.10 kcal/mol
Non-thermal (ZPE) correction              0.37551842 Eh     235.64 kcal/mol
-----------------------------------------------------------------------
Total correction                          0.39480245 Eh     247.74 kcal/mol


--------
ENTHALPY
--------

The enthalpy is H = U + kB*T
                kB is Boltzmann's constant
Total free energy                 ...    -50.81247613 Eh 
Thermal Enthalpy correction       ...      0.00094421 Eh       0.59 kcal/mol
-----------------------------------------------------------------------
Total Enthalpy                    ...    -50.81153193 Eh


Note: Only C1 symmetry has been detected, increase convergence thresholds 
      if your molecule has a higher symmetry. Symmetry factor of 1.0 is   
      used for the rotational entropy correction. 
 

Note: Rotational entropy computed according to Herzberg 
Infrared and Raman Spectra, Chapter V,1, Van Nostrand Reinhold, 1945 
Point Group:  C1, Symmetry Number:   1  
Rotational constants in cm-1:     0.022742     0.006019     0.004991 

Vibrational entropy computed according to the QRRHO of S. Grimme
Chem.Eur.J. 2012 18 9955


-------
ENTROPY
-------

The entropy contributions are T*S = T*(S(el)+S(vib)+S(rot)+S(trans))
     S(el)   - electronic entropy
     S(vib)  - vibrational entropy
     S(rot)  - rotational entropy
     S(trans)- translational entropy
The entropies will be listed as mutliplied by the temperature to get
units of energy

Electronic entropy                ...      0.00000000 Eh      0.00 kcal/mol
Vibrational entropy               ...      0.02892574 Eh     18.15 kcal/mol
Rotational entropy                ...      0.01621283 Eh     10.17 kcal/mol
Translational entropy             ...      0.02007763 Eh     12.60 kcal/mol
-----------------------------------------------------------------------
Final entropy term                ...      0.06521620 Eh     40.92 kcal/mol

In case the symmetry of your molecule has not been determined correctly
or in case you have a reason to use a different symmetry number we print 
out the resulting rotational entropy values for sn=1,12 :
 --------------------------------------------------------
|  sn= 1 | S(rot)=       0.01621283 Eh     10.17 kcal/mol|
|  sn= 2 | S(rot)=       0.01555837 Eh      9.76 kcal/mol|
|  sn= 3 | S(rot)=       0.01517554 Eh      9.52 kcal/mol|
|  sn= 4 | S(rot)=       0.01490391 Eh      9.35 kcal/mol|
|  sn= 5 | S(rot)=       0.01469323 Eh      9.22 kcal/mol|
|  sn= 6 | S(rot)=       0.01452108 Eh      9.11 kcal/mol|
|  sn= 7 | S(rot)=       0.01437554 Eh      9.02 kcal/mol|
|  sn= 8 | S(rot)=       0.01424946 Eh      8.94 kcal/mol|
|  sn= 9 | S(rot)=       0.01413825 Eh      8.87 kcal/mol|
|  sn=10 | S(rot)=       0.01403877 Eh      8.81 kcal/mol|
|  sn=11 | S(rot)=       0.01394878 Eh      8.75 kcal/mol|
|  sn=12 | S(rot)=       0.01386663 Eh      8.70 kcal/mol|
 --------------------------------------------------------


-------------------
GIBBS FREE ENERGY
-------------------

The Gibbs free energy is G = H - T*S

Total enthalpy                    ...    -50.81153193 Eh 
Total entropy correction          ...     -0.06521620 Eh    -40.92 kcal/mol
-----------------------------------------------------------------------
Final Gibbs free energy         ...    -50.87674812 Eh

For completeness - the Gibbs free energy minus the electronic energy
G-E(el)                           ...      0.33053046 Eh    207.41 kcal/mol


Total Time for Numerical Frequencies  :       108.145 sec
Time for Reference State(s)           :         0.131 sec
Time for Displacements                :        96.612 sec

Timings for individual modules:

Sum of individual times         ...        0.268 sec (=   0.004 min)
XTB module                      ...        0.268 sec (=   0.004 min) 100.0 %
                             ****ORCA TERMINATED NORMALLY****
TOTAL RUN TIME: 0 days 0 hours 1 minutes 48 seconds 852 msec
(SLURM) EXECUTION TIME: 108.883394540 seconds.
