(SLURM) JOB ID:         497

                                 *****************
                                 * O   R   C   A *
                                 *****************

           --- An Ab Initio, DFT and Semiempirical electronic structure package ---

                  #######################################################
                  #                        -***-                        #
                  #          Department of theory and spectroscopy      #
                  #               Directorship: Frank Neese             #
                  #        Max Planck Institute fuer Kohlenforschung    #
                  #                Kaiser Wilhelm Platz 1               #
                  #                 D-45470 Muelheim/Ruhr               #
                  #                      Germany                        #
                  #                                                     #
                  #                  All rights reserved                #
                  #                        -***-                        #
                  #######################################################


                         Program Version 4.2.1 -  RELEASE  -


 With contributions from (in alphabetic order):
   Daniel Aravena         : Magnetic Suceptibility
   Michael Atanasov       : Ab Initio Ligand Field Theory (pilot matlab implementation)
   Alexander A. Auer      : GIAO ZORA, VPT2
   Ute Becker             : Parallelization
   Giovanni Bistoni       : ED, misc. LED, open-shell LED, HFLD
   Martin Brehm           : Molecular dynamics
   Dmytro Bykov           : SCF Hessian
   Vijay G. Chilkuri      : MRCI spin determinant printing, contributions to CSF-ICE
   Dipayan Datta          : RHF DLPNO-CCSD density
   Achintya Kumar Dutta   : EOM-CC, STEOM-CC
   Dmitry Ganyushin       : Spin-Orbit,Spin-Spin,Magnetic field MRCI
   Miquel Garcia          : C-PCM Hessian, Gaussian charge scheme
   Yang Guo               : DLPNO-NEVPT2, CIM, IAO-localization
   Andreas Hansen         : Spin unrestricted coupled pair/coupled cluster methods
   Benjamin Helmich-Paris : CASSCF linear response (MC-RPA)
   Lee Huntington         : MR-EOM, pCC
   Robert Izsak           : Overlap fitted RIJCOSX, COSX-SCS-MP3, EOM
   Christian Kollmar      : KDIIS, OOCD, Brueckner-CCSD(T), CCSD density
   Simone Kossmann        : Meta GGA functionals, TD-DFT gradient, OOMP2, MP2 Hessian
   Martin Krupicka        : AUTO-CI
   Lucas Lang             : DCDCAS
   Dagmar Lenk            : GEPOL surface, SMD
   Dimitrios Liakos       : Extrapolation schemes; Compound Job, initial MDCI parallelization
   Dimitrios Manganas     : Further ROCIS development; embedding schemes
   Dimitrios Pantazis     : SARC Basis sets
   Taras Petrenko         : DFT Hessian,TD-DFT gradient, ASA, ECA, R-Raman, ABS, FL, XAS/XES, NRVS
   Peter Pinski           : DLPNO-MP2, DLPNO-MP2 Gradient
   Christoph Reimann      : Effective Core Potentials
   Marius Retegan         : Local ZFS, SOC
   Christoph Riplinger    : Optimizer, TS searches, QM/MM, DLPNO-CCSD(T), (RO)-DLPNO pert. Triples
   Tobias Risthaus        : Range-separated hybrids, TD-DFT gradient, RPA, STAB
   Michael Roemelt        : Original ROCIS implementation
   Masaaki Saitow         : Open-shell DLPNO-CCSD energy and density
   Barbara Sandhoefer     : DKH picture change effects
   Avijit Sen             : IP-ROCIS
   Kantharuban Sivalingam : CASSCF convergence, NEVPT2, FIC-MRCI
   Bernardo de Souza      : ESD, SOC TD-DFT
   Georgi Stoychev        : AutoAux, RI-MP2 NMR
   Willem Van den Heuvel  : Paramagnetic NMR
   Boris Wezisla          : Elementary symmetry handling
   Frank Wennmohs         : Technical directorship


 We gratefully acknowledge several colleagues who have allowed us to
 interface, adapt or use parts of their codes:
   Stefan Grimme, W. Hujo, H. Kruse,             : VdW corrections, initial TS optimization,
                  C. Bannwarth                     DFT functionals, gCP, sTDA/sTD-DF
   Ed Valeev, F. Pavosevic, A. Kumar             : LibInt (2-el integral package), F12 methods
   Garnet Chan, S. Sharma, J. Yang, R. Olivares  : DMRG
   Ulf Ekstrom                                   : XCFun DFT Library
   Mihaly Kallay                                 : mrcc  (arbitrary order and MRCC methods)
   Andreas Klamt, Michael Diedenhofen            : otool_cosmo (COSMO solvation model)
   Jiri Pittner, Ondrej Demel                    : Mk-CCSD
   Frank Weinhold                                : gennbo (NPA and NBO analysis)
   Christopher J. Cramer and Donald G. Truhlar   : smd solvation model
   Lars Goerigk                                  : TD-DFT with DH, B97 family of functionals
   V. Asgeirsson, H. Jonsson                     : NEB implementation
   FAccTs GmbH                                   : IRC, NEB, NEB-TS, Multilevel, MM, QM/MM, CI optimization
   S Lehtola, MJT Oliveira, MAL Marques          : LibXC Library


 Your calculation uses the libint2 library for the computation of 2-el integrals
 For citations please refer to: http://libint.valeyev.net

 Your ORCA version has been built with support for libXC version: 4.2.3
 For citations please refer to: https://tddft.org/programs/libxc/

 This ORCA versions uses:
   CBLAS   interface :  Fast vector & matrix operations
   LAPACKE interface :  Fast linear algebra routines
   SCALAPACK package :  Parallel linear algebra routines




***************************************
The coordinates will be read from file: init.xyz
***************************************


Your calculation utilizes the SMD solvation module
Please cite in your paper:
A.V. Marenich, C.J. Cramer, D.G. Truhlar J. Phys. Chem. B, 113, (2009), 6378 

Your calculation utilizes the semiempirical GFN2-xTB method
Please cite in your paper:
C. Bannwarth, Ehlert S., S. Grimme,  J. Chem. Theory Comput., 15, (2019), 1652.
   

----- Orbital basis set information -----
Your calculation utilizes the basis: def2-SVP
   F. Weigend and R. Ahlrichs, Phys. Chem. Chem. Phys. 7, 3297 (2005).

================================================================================
                                        WARNINGS
                       Please study these warnings very carefully!
================================================================================

WARNING: Gradients needed for Numerical Frequencies
  ===> : Setting RunTyp to EnGrad

WARNING: The environment variable RSH_COMMAND is not set!
  ===> : All Displacements for the Numerical Hessian calculation
         will be started on localhost

WARNING: Found dipole moment calculation with XTB calculation
  ===> : Switching off dipole moment calculation


INFO   : the flag for use of LIBINT has been found!

================================================================================
                                       INPUT FILE
================================================================================
NAME = /tmp/slurm-scratch/freq.497/freq.inp
|  1> ! XTB2 NumFreq
|  2> %maxcore 1450
|  3> 
|  4> * xyzfile 0 1 init.xyz
|  5> 
|  6> %cpcm
|  7>  smd true
|  8>  smdsolvent "ch2cl2"
|  9> end
| 10> %pal nprocs 9 end
| 11> 
| 12>                          ****END OF INPUT****
================================================================================

                     *******************************
                     * Energy+Gradient Calculation *
                     *******************************

      -----------------------------------------------------------      
     |                   =====================                   |     
     |                           x T B                           |     
     |                   =====================                   |     
     |                         S. Grimme                         |     
     |          Mulliken Center for Theoretical Chemistry        |     
     |                    University of Bonn                     |     
      -----------------------------------------------------------      

   * xtb version 6.3.2 (30e43eb) compiled by 'schneider@apollo14' on 2020-08-08

   xtb is free software: you can redistribute it and/or modify it under
   the terms of the GNU Lesser General Public License as published by
   the Free Software Foundation, either version 3 of the License, or
   (at your option) any later version.
   
   xtb is distributed in the hope that it will be useful,
   but WITHOUT ANY WARRANTY; without even the implied warranty of
   MERCHANTABILITY or FITNESS FOR A PARTICULAR PURPOSE.  See the
   GNU Lesser General Public License for more details.
   
   Cite this work as:
   * S. Grimme, C. Bannwarth, P. Shushkov, J. Chem. Theory Comput., 2017,
     13, 1989-2009. DOI: 10.1021/acs.jctc.7b00118
   * C. Bannwarth, S. Ehlert and S. Grimme., J. Chem. Theory Comput., 2019,
     15, 1652-1671. DOI: 10.1021/acs.jctc.8b01176
   * P. Pracht, E. Caldeweyher, S. Ehlert, S. Grimme, ChemRxiv, 2019, preprint.
     DOI: 10.26434/chemrxiv.8326202.v1
   
   for GFN-FF:
   * S. Spicher and S. Grimme, Angew. Chem. Int. Ed., 2020,
     DOI: 10.1002/anie.202004239
   
   for DFT-D4:
   * E. Caldeweyher, C. Bannwarth and S. Grimme, J. Chem. Phys., 2017,
     147, 034112. DOI: 10.1063/1.4993215
   * E. Caldeweyher, S. Ehlert, A. Hansen, H. Neugebauer, S. Spicher,
     C. Bannwarth and S. Grimme, J. Chem. Phys., 2019, 150, 154122.
     DOI: 10.1063/1.5090222
   
   for sTDA-xTB:
   * S. Grimme and C. Bannwarth, J. Chem. Phys., 2016, 145, 054103.
     DOI: 10.1063/1.4959605
   
   in the mass-spec context:
   * V. Asgeirsson, C. Bauer and S. Grimme, Chem. Sci., 2017, 8, 4879.
     DOI: 10.1039/c7sc00601b
   * J. Koopman and S. Grimme, ACS Omega 2019, 4, 12, 15120-15133.
     DOI: 10.1021/acsomega.9b02011
   
   for metadynamics refer to:
   * S. Grimme, J. Chem. Theory Comput., 2019, 155, 2847-2862
     DOI: 10.1021/acs.jctc.9b00143
   
   with help from (in alphabetical order)
   C. Bannwarth, F. Bohle, G. Brandenburg, E. Caldeweyher, M. Checinski,
   S. Dohm, S. Ehlert, S. Ehrlich, F. März, H. Neugebauer, J. Pisarek,
   P. Pracht, P. Shushkov, and S. Spicher.
   
 * started run on 2020/09/04 at 03:59:44.278     

           -------------------------------------------------
          |                Calculation Setup                |
           -------------------------------------------------

          program call               : /opt/orca/otool_xtb /tmp/slurm-scratch/freq.497/freq_XTB.xyz --grad -c 0 -u 0 -P 9 --namespace /tmp/slurm-scratch/freq.497/freq --gbsa CH2Cl2
          hostname                   : apollo14
          calculation namespace      : /tmp/slurm-scratch/freq.497/freq
          coordinate file            : /tmp/slurm-scratch/freq.497/freq_XTB.xyz
          omp threads                :                     9
          number of atoms            :                    49
          number of electrons        :                   112
          charge                     :                     0
          spin                       :                   0.0
          first test random number   :      0.64807394364310

   ID    Z sym.   atoms
    1    6 C      1-7, 12, 14, 28, 31, 36, 39, 42, 45
    2    1 H      8-10, 13, 15-18, 21-27, 29, 30, 32-35, 37, 38, 40, 41, 43,
                  44, 46-48
    3    7 N      11, 49
    4    8 O      19, 20

molecular fragmentation (1/2 indicates fragments):
1111111111111111111222211111111111222222222222222
# atoms in fragment 1/2:    30    19
 fragment masses (1/2) :      179.26       91.15
CMA distance (Bohr)    :   5.980
constraining FC (au)   :  0.0500
########################################################################
[WARNING] Please study the warnings concerning your input carefully
-1- prog_main_parseArguments: Process number higher than OMP_NUM_THREADS, I hope you know what you are doing.
########################################################################

           -------------------------------------------------
          |                 G F N 2 - x T B                 |
           -------------------------------------------------

        Reference                      10.1021/acs.jctc.8b01176
      * Hamiltonian:
        H0-scaling (s, p, d)           1.850000    2.230000    2.230000
        zeta-weighting                 0.500000
      * Dispersion:
        s8                             2.700000
        a1                             0.520000
        a2                             5.000000
        s9                             5.000000
      * Repulsion:
        kExp                           1.500000    1.000000
        rExp                           1.000000
      * Coulomb:
        alpha                          2.000000
        third order                    shell-resolved
        anisotropic                    true
        a3                             3.000000
        a5                             4.000000
        cn-shift                       1.200000
        cn-exp                         4.000000
        max-rad                        5.000000

      * Solvation model:               GBSA
        Solvent                        CH2Cl2
        Parameter file                 internal GFN2-xTB/GBSA
        Dielectric constant                8.9300E+00
        Reference state                gsolv [1 M gas/solution]
        Free energy shift                  4.4408E-03 Eh       2.7867E+00 kcal/mol
        Temperature                        2.9815E+02 K
        Density                            1.3300E+00 kg/L
        Solvent mass                       8.4930E+01 g/mol
        Interaction kernel             Still
        Born radius scaling (c1)           1.4917E+00
        Born radii integrator          GBOBC
        Born offset                        0.0000E+00 a0       0.0000E+00 AA
        H-bond correction              false
        Ion screening                  false
        Surface tension                    1.0000E-05 Eh       1.5569E+01 dyn/cm
        Grid points                               230 per atom

          ...................................................
          :                      SETUP                      :
          :.................................................:
          :  # basis functions                 106          :
          :  # atomic orbitals                 106          :
          :  # shells                           68          :
          :  # electrons                       112          :
          :  max. iterations                   250          :
          :  Hamiltonian                  GFN2-xTB          :
          :  restarted?                      false          :
          :  GBSA solvation                   true          :
          :  PC potential                    false          :
          :  electronic temp.          300.0000000     K    :
          :  accuracy                    1.0000000          :
          :  -> integral cutoff          0.2500000E+02      :
          :  -> integral neglect         0.1000000E-07      :
          :  -> SCF convergence          0.1000000E-05 Eh   :
          :  -> wf. convergence          0.1000000E-03 e    :
          :  Broyden damping             0.4000000          :
          ...................................................

 iter      E             dE          RMSdq      gap      omega  full diag
   1    -62.0542843 -0.620543E+02  0.351E+00    3.78       0.0  T
   2    -62.1772524 -0.122968E+00  0.195E+00    3.58       1.0  T
   3    -62.1808033 -0.355092E-02  0.858E-01    2.95       1.0  T
   4    -62.1816860 -0.882749E-03  0.350E-01    2.84       1.0  T
   5    -62.1863052 -0.461915E-02  0.810E-02    2.97       1.0  T
   6    -62.1863572 -0.520197E-04  0.381E-02    3.01       1.0  T
   7    -62.1863715 -0.142758E-04  0.157E-02    3.02       1.0  T
   8    -62.1863741 -0.258161E-05  0.608E-03    3.02       2.3  T
   9    -62.1863747 -0.610605E-06  0.254E-03    3.02       5.6  T
  10    -62.1863747 -0.390098E-07  0.116E-03    3.02      12.3  T
  11    -62.1863747 -0.104112E-07  0.613E-04    3.02      23.3  T
  12    -62.1863747 -0.462507E-08  0.143E-04    3.02      99.6  T

   *** convergence criteria satisfied after 12 iterations ***

         #    Occupation            Energy/Eh            Energy/eV
      -------------------------------------------------------------
         1        2.0000           -0.6748391             -18.3633
       ...           ...                  ...                  ...
        50        2.0000           -0.4257334             -11.5848
        51        2.0000           -0.4197847             -11.4229
        52        2.0000           -0.4100836             -11.1589
        53        2.0000           -0.4043110             -11.0019
        54        2.0000           -0.4001340             -10.8882
        55        2.0000           -0.3514500              -9.5634
        56        2.0000           -0.3392859              -9.2324 (HOMO)
        57                         -0.2283420              -6.2135 (LUMO)
        58                         -0.2251245              -6.1259
        59                         -0.1033964              -2.8136
        60                         -0.0605010              -1.6463
        61                         -0.0250500              -0.6816
       ...                                ...                  ...
       106                          0.6437568              17.5175
      -------------------------------------------------------------
                  HL-Gap            0.1109439 Eh            3.0189 eV
             Fermi-level           -0.2838139 Eh           -7.7230 eV

 SCC (total)                   0 d,  0 h,  0 min,  0.157 sec
 SCC setup                      ...        0 min,  0.005 sec (  3.158%)
 Dispersion                     ...        0 min,  0.005 sec (  2.989%)
 classical contributions        ...        0 min,  0.004 sec (  2.587%)
 integral evaluation            ...        0 min,  0.021 sec ( 13.487%)
 iterations                     ...        0 min,  0.062 sec ( 39.266%)
 molecular gradient             ...        0 min,  0.060 sec ( 38.305%)
 printout                       ...        0 min,  0.000 sec (  0.193%)

         :::::::::::::::::::::::::::::::::::::::::::::::::::::
         ::                     SUMMARY                     ::
         :::::::::::::::::::::::::::::::::::::::::::::::::::::
         :: total energy             -61.371799546625 Eh    ::
         :: total w/o Gsasa/hb       -61.350065334362 Eh    ::
         :: gradient norm              0.034520037171 Eh/a0 ::
         :: HOMO-LUMO gap              3.018936799180 eV    ::
         ::.................................................::
         :: SCC energy               -62.186374724449 Eh    ::
         :: -> isotropic ES            0.154052102632 Eh    ::
         :: -> anisotropic ES         -0.005107916819 Eh    ::
         :: -> anisotropic XC          0.029318874427 Eh    ::
         :: -> dispersion             -0.044950251828 Eh    ::
         :: -> Gsolv                  -0.044578149050 Eh    ::
         ::    -> Gborn               -0.022843936786 Eh    ::
         ::    -> Gsasa               -0.026175041436 Eh    ::
         ::    -> Ghb                  0.000000000000 Eh    ::
         ::    -> Gshift               0.004440829173 Eh    ::
         :: repulsion energy           0.813375280646 Eh    ::
         :: add. restraining           0.000000000000 Eh    ::
         :: total charge              -0.000000000000 e     ::
         :::::::::::::::::::::::::::::::::::::::::::::::::::::

           -------------------------------------------------
          |                Property Printout                |
           -------------------------------------------------

    * Orbital Energies and Occupations

         #    Occupation            Energy/Eh            Energy/eV
      -------------------------------------------------------------
         1        2.0000           -0.6748391             -18.3633
       ...           ...                  ...                  ...
        44        2.0000           -0.4454647             -12.1217
        45        2.0000           -0.4432912             -12.0626
        46        2.0000           -0.4412719             -12.0076
        47        2.0000           -0.4299754             -11.7002
        48        2.0000           -0.4286147             -11.6632
        49        2.0000           -0.4277475             -11.6396
        50        2.0000           -0.4257334             -11.5848
        51        2.0000           -0.4197847             -11.4229
        52        2.0000           -0.4100836             -11.1589
        53        2.0000           -0.4043110             -11.0019
        54        2.0000           -0.4001340             -10.8882
        55        2.0000           -0.3514500              -9.5634
        56        2.0000           -0.3392859              -9.2324 (HOMO)
        57                         -0.2283420              -6.2135 (LUMO)
        58                         -0.2251245              -6.1259
        59                         -0.1033964              -2.8136
        60                         -0.0605010              -1.6463
        61                         -0.0250500              -0.6816
        62                          0.0322222               0.8768
        63                          0.0445167               1.2114
        64                          0.0639324               1.7397
        65                          0.0667558               1.8165
        66                          0.0811076               2.2070
        67                          0.0917263               2.4960
       ...                                ...                  ...
       106                          0.6437568              17.5175
      -------------------------------------------------------------
                  HL-Gap            0.1109439 Eh            3.0189 eV
             Fermi-level           -0.2838139 Eh           -7.7230 eV

     #   Z          covCN         q      C6AA      α(0)
     1   6 C        2.962    -0.031    28.763     8.797
     2   6 C        2.919    -0.046    29.142     8.852
     3   6 C        2.914    -0.033    28.834     8.805
     4   6 C        2.915    -0.035    28.881     8.813
     5   6 C        2.914    -0.034    28.856     8.809
     6   6 C        2.920    -0.032    28.790     8.799
     7   6 C        3.652     0.215    17.499     6.007
     8   1 H        0.925     0.018     2.764     2.600
     9   1 H        0.926     0.044     2.397     2.421
    10   1 H        0.925     0.038     2.470     2.458
    11   7 N        3.146    -0.250    26.487     7.644
    12   6 C        3.734     0.011    20.474     6.458
    13   1 H        1.187     0.246     0.888     1.471
    14   6 C        3.802    -0.072    21.879     6.660
    15   1 H        0.924     0.040     2.443     2.444
    16   1 H        0.924     0.040     2.443     2.444
    17   1 H        0.925     0.056     2.249     2.345
    18   1 H        0.924     0.038     2.472     2.459
    19   8 O        0.871    -0.728    29.462     7.278
    20   8 O        1.593    -0.672    26.997     7.012
    21   1 H        0.805     0.326     0.647     1.263
    22   1 H        0.805     0.266     0.833     1.434
    23   1 H        0.859     0.236     0.940     1.519
    24   1 H        0.921    -0.048     4.046     3.146
    25   1 H        0.860     0.166     1.297     1.784
    26   1 H        0.925     0.040     2.454     2.450
    27   1 H        0.925     0.035     2.520     2.483
    28   6 C        3.800    -0.054    21.548     6.609
    29   1 H        0.924     0.037     2.486     2.466
    30   1 H        0.924     0.032     2.559     2.502
    31   6 C        3.750    -0.106    22.581     6.777
    32   1 H        0.924     0.035     2.510     2.478
    33   1 H        0.924     0.040     2.448     2.447
    34   1 H        0.924     0.040     2.444     2.445
    35   1 H        0.860     0.201     1.101     1.644
    36   6 C        3.732    -0.012    20.887     6.523
    37   1 H        0.925     0.065     2.137     2.286
    38   1 H        0.924     0.065     2.138     2.286
    39   6 C        3.802    -0.074    21.907     6.664
    40   1 H        0.924     0.044     2.401     2.423
    41   1 H        0.924     0.054     2.265     2.354
    42   6 C        3.801    -0.057    21.600     6.617
    43   1 H        0.924     0.039     2.465     2.455
    44   1 H        0.924     0.043     2.416     2.431
    45   6 C        3.750    -0.106    22.591     6.779
    46   1 H        0.924     0.037     2.487     2.466
    47   1 H        0.924     0.041     2.441     2.443
    48   1 H        0.924     0.041     2.442     2.444
    49   7 N        3.332    -0.240    26.252     7.610

 Mol. C6AA /au·bohr⁶  :      19024.848053
 Mol. C8AA /au·bohr⁸  :     412994.832564
 Mol. α(0) /au        :        209.801153


Wiberg/Mayer (AO) data.
largest (>0.10) Wiberg bond orders for each atom

 ---------------------------------------------------------------------------
     #   Z sym  total        # sym  WBO       # sym  WBO       # sym  WBO
 ---------------------------------------------------------------------------
     1   6 C    3.982 --     6 C    1.423     2 C    1.407     7 C    0.947
                             4 C    0.111
     2   6 C    3.991 --     3 C    1.450     1 C    1.407     8 H    0.965
                             5 C    0.112
     3   6 C    3.991 --     2 C    1.450     4 C    1.430    26 H    0.970
                             6 C    0.110
     4   6 C    3.991 --     5 C    1.445     3 C    1.430    10 H    0.971
                             1 C    0.111
     5   6 C    3.991 --     4 C    1.445     6 C    1.434    27 H    0.971
                             2 C    0.112
     6   6 C    3.990 --     5 C    1.434     1 C    1.423     9 H    0.964
                             3 C    0.110
     7   6 C    3.958 --    19 O    1.188     1 C    0.947    24 H    0.929
                            11 N    0.839
     8   1 H    1.000 --     2 C    0.965
     9   1 H    0.998 --     6 C    0.964
    10   1 H    0.998 --     4 C    0.971
    11   7 N    3.444 --    12 C    0.984    25 H    0.946     7 C    0.839
                            13 H    0.398    49 N    0.134
    12   6 C    3.969 --    14 C    1.007    11 N    0.984    15 H    0.976
                            16 H    0.970
    13   1 H    0.940 --    49 N    0.516    11 N    0.398
    14   6 C    3.993 --    12 C    1.007    28 C    1.006    18 H    0.974
                            17 H    0.971
    15   1 H    0.998 --    12 C    0.976
    16   1 H    0.998 --    12 C    0.970
    17   1 H    0.997 --    14 C    0.971
    18   1 H    0.999 --    14 C    0.974
    19   8 O    1.593 --     7 C    1.188    21 H    0.154
    20   8 O    1.811 --    22 H    0.925    21 H    0.729
    21   1 H    0.893 --    20 O    0.729    19 O    0.154
    22   1 H    0.929 --    20 O    0.925
    23   1 H    0.944 --    49 N    0.878
    24   1 H    0.997 --     7 C    0.929
    25   1 H    0.972 --    11 N    0.946
    26   1 H    0.998 --     3 C    0.970
    27   1 H    0.998 --     5 C    0.971
    28   6 C    3.996 --    31 C    1.019    14 C    1.006    30 H    0.978
                            29 H    0.977
    29   1 H    0.999 --    28 C    0.977
    30   1 H    0.999 --    28 C    0.978
    31   6 C    3.995 --    28 C    1.019    32 H    0.988    34 H    0.987
                            33 H    0.987
    32   1 H    0.999 --    31 C    0.988
    33   1 H    0.998 --    31 C    0.987
    34   1 H    0.998 --    31 C    0.987
    35   1 H    0.960 --    49 N    0.944
    36   6 C    3.952 --    39 C    1.008    49 N    0.981    38 H    0.972
                            37 H    0.969
    37   1 H    0.996 --    36 C    0.969
    38   1 H    0.996 --    36 C    0.972
    39   6 C    3.992 --    36 C    1.008    42 C    1.005    41 H    0.974
                            40 H    0.973
    40   1 H    0.998 --    39 C    0.973
    41   1 H    0.997 --    39 C    0.974
    42   6 C    3.995 --    45 C    1.020    39 C    1.005    44 H    0.977
                            43 H    0.976
    43   1 H    0.998 --    42 C    0.976
    44   1 H    0.998 --    42 C    0.977
    45   6 C    3.995 --    42 C    1.020    46 H    0.987    48 H    0.987
                            47 H    0.987
    46   1 H    0.999 --    45 C    0.987
    47   1 H    0.998 --    45 C    0.987
    48   1 H    0.998 --    45 C    0.987
    49   7 N    3.519 --    36 C    0.981    35 H    0.944    23 H    0.878
                            13 H    0.516    11 N    0.134
 ---------------------------------------------------------------------------

Topologies differ in total number of bonds
Writing topology from bond orders to xtbtopo.mol

molecular dipole:
                 x           y           z       tot (Debye)
 q only:        0.348       0.620       4.041
   full:        0.475       0.964       3.862      10.188
molecular quadrupole (traceless):
                xx          xy          yy          xz          yz          zz
 q only:        8.147       1.531      -8.001      12.908      -5.748      -0.146
  q+dip:        7.228       2.479      -4.638      13.330      -6.235      -2.590
   full:        7.606       1.567      -5.804      13.823      -6.872      -1.801


           -------------------------------------------------
          | TOTAL ENERGY              -61.371799546625 Eh   |
          | GRADIENT NORM               0.034520037171 Eh/α |
          | HOMO-LUMO GAP               3.018936799180 eV   |
           -------------------------------------------------

------------------------------------------------------------------------
 * finished run on 2020/09/04 at 03:59:44.491     
------------------------------------------------------------------------
 total:
 * wall-time:     0 d,  0 h,  0 min,  0.212 sec
 *  cpu-time:     0 d,  0 h,  0 min,  2.518 sec
 * ratio c/w:    11.873 speedup
 SCF:
 * wall-time:     0 d,  0 h,  0 min,  0.162 sec
 *  cpu-time:     0 d,  0 h,  0 min,  1.923 sec
 * ratio c/w:    11.884 speedup


-------------------------   --------------------
FINAL SINGLE POINT ENERGY       -61.371799546630
-------------------------   --------------------


----------------------------------------------------------------------------
                           ORCA NUMERICAL FREQUENCIES
                              (9-process run)
----------------------------------------------------------------------------

Number of atoms                ... 49
Central differences            ... used
Number of displacements        ... 294
Numerical increment            ... 5.000e-03 bohr
IR-spectrum generation         ... on
Raman-spectrum generation      ... off
Surface Crossing Hessian       ... off
List of participating nodes    ...  /tmp/slurm-scratch/freq.497/freq.hostnames

The output will be reduced. Please look at the following files:
SCF program output             ... >/tmp/slurm-scratch/freq.497/freq.lastscf
Integral program output        ... >/tmp/slurm-scratch/freq.497/freq.lastint
Gradient program output        ... >/tmp/slurm-scratch/freq.497/freq.lastgrad
Dipole moment program output   ... >/tmp/slurm-scratch/freq.497/freq.lastmom
AutoCI program output          ... >/tmp/slurm-scratch/freq.497/freq.lastautoci


         <<< Energy and Gradient at the input geometry >>>

        <<< Energy and Gradient at displaced geometries >>>
             <<<Displacing   2/coordinate 2 (+)>>>
             <<<Displacing   2/coordinate 3 (+)>>>
             <<<Displacing   3/coordinate 1 (+)>>>
             <<<Displacing   1/coordinate 1 (+)>>>
             <<<Displacing   3/coordinate 2 (+)>>>
             <<<Displacing   3/coordinate 1 (-)>>>
             <<<Displacing   2/coordinate 2 (-)>>>
             <<<Displacing   2/coordinate 3 (-)>>>
             <<<Displacing   1/coordinate 1 (-)>>>
             <<<Displacing   3/coordinate 3 (+)>>>
             <<<Displacing   3/coordinate 2 (-)>>>
             <<<Displacing   3/coordinate 3 (-)>>>
             <<<Displacing   1/coordinate 3 (+)>>>
             <<<Displacing   1/coordinate 2 (+)>>>
             <<<Displacing   2/coordinate 1 (+)>>>
             <<<Displacing   2/coordinate 1 (-)>>>
             <<<Displacing   1/coordinate 2 (-)>>>
             <<<Displacing   1/coordinate 3 (-)>>>
             <<<Displacing   5/coordinate 2 (+)>>>
             <<<Displacing   5/coordinate 3 (+)>>>
             <<<Displacing   4/coordinate 3 (+)>>>
             <<<Displacing   5/coordinate 2 (-)>>>
             <<<Displacing   4/coordinate 1 (+)>>>
             <<<Displacing   5/coordinate 3 (-)>>>
             <<<Displacing   4/coordinate 2 (+)>>>
             <<<Displacing   5/coordinate 1 (+)>>>
             <<<Displacing   4/coordinate 3 (-)>>>
             <<<Displacing   4/coordinate 1 (-)>>>
             <<<Displacing   4/coordinate 2 (-)>>>
             <<<Displacing   5/coordinate 1 (-)>>>
             <<<Displacing   6/coordinate 1 (+)>>>
             <<<Displacing   6/coordinate 2 (+)>>>
             <<<Displacing   6/coordinate 2 (-)>>>
             <<<Displacing   6/coordinate 1 (-)>>>
             <<<Displacing   6/coordinate 3 (+)>>>
             <<<Displacing   6/coordinate 3 (-)>>>
             <<<Displacing   7/coordinate 1 (+)>>>
             <<<Displacing   7/coordinate 3 (+)>>>
             <<<Displacing   7/coordinate 2 (+)>>>
             <<<Displacing   8/coordinate 1 (+)>>>
             <<<Displacing   7/coordinate 3 (-)>>>
             <<<Displacing   7/coordinate 2 (-)>>>
             <<<Displacing   7/coordinate 1 (-)>>>
             <<<Displacing   8/coordinate 1 (-)>>>
             <<<Displacing   8/coordinate 3 (+)>>>
             <<<Displacing   8/coordinate 2 (+)>>>
             <<<Displacing   8/coordinate 2 (-)>>>
             <<<Displacing   8/coordinate 3 (-)>>>
             <<<Displacing   9/coordinate 1 (+)>>>
             <<<Displacing   9/coordinate 2 (+)>>>
             <<<Displacing   9/coordinate 1 (-)>>>
             <<<Displacing   9/coordinate 2 (-)>>>
             <<<Displacing   9/coordinate 3 (+)>>>
             <<<Displacing   9/coordinate 3 (-)>>>
             <<<Displacing  10/coordinate 3 (+)>>>
             <<<Displacing  10/coordinate 2 (+)>>>
             <<<Displacing  11/coordinate 2 (+)>>>
             <<<Displacing  10/coordinate 3 (-)>>>
             <<<Displacing  10/coordinate 1 (+)>>>
             <<<Displacing  11/coordinate 2 (-)>>>
             <<<Displacing  10/coordinate 2 (-)>>>
             <<<Displacing  11/coordinate 1 (+)>>>
             <<<Displacing  10/coordinate 1 (-)>>>
             <<<Displacing  11/coordinate 3 (+)>>>
             <<<Displacing  11/coordinate 1 (-)>>>
             <<<Displacing  11/coordinate 3 (-)>>>
             <<<Displacing  12/coordinate 2 (+)>>>
             <<<Displacing  12/coordinate 1 (+)>>>
             <<<Displacing  12/coordinate 2 (-)>>>
             <<<Displacing  12/coordinate 1 (-)>>>
             <<<Displacing  12/coordinate 3 (+)>>>
             <<<Displacing  12/coordinate 3 (-)>>>
             <<<Displacing  13/coordinate 1 (+)>>>
             <<<Displacing  13/coordinate 2 (+)>>>
             <<<Displacing  13/coordinate 3 (+)>>>
             <<<Displacing  13/coordinate 1 (-)>>>
             <<<Displacing  13/coordinate 2 (-)>>>
             <<<Displacing  13/coordinate 3 (-)>>>
             <<<Displacing  14/coordinate 2 (+)>>>
             <<<Displacing  14/coordinate 1 (+)>>>
             <<<Displacing  14/coordinate 3 (+)>>>
             <<<Displacing  14/coordinate 2 (-)>>>
             <<<Displacing  14/coordinate 1 (-)>>>
             <<<Displacing  14/coordinate 3 (-)>>>
             <<<Displacing  15/coordinate 2 (+)>>>
             <<<Displacing  15/coordinate 1 (+)>>>
             <<<Displacing  15/coordinate 2 (-)>>>
             <<<Displacing  15/coordinate 1 (-)>>>
             <<<Displacing  15/coordinate 3 (+)>>>
             <<<Displacing  15/coordinate 3 (-)>>>
             <<<Displacing  16/coordinate 1 (+)>>>
             <<<Displacing  16/coordinate 3 (+)>>>
             <<<Displacing  16/coordinate 2 (+)>>>
             <<<Displacing  16/coordinate 1 (-)>>>
             <<<Displacing  16/coordinate 3 (-)>>>
             <<<Displacing  16/coordinate 2 (-)>>>
             <<<Displacing  17/coordinate 2 (+)>>>
             <<<Displacing  17/coordinate 1 (+)>>>
             <<<Displacing  17/coordinate 2 (-)>>>
             <<<Displacing  17/coordinate 1 (-)>>>
             <<<Displacing  17/coordinate 3 (+)>>>
             <<<Displacing  17/coordinate 3 (-)>>>
             <<<Displacing  18/coordinate 1 (+)>>>
             <<<Displacing  18/coordinate 2 (+)>>>
             <<<Displacing  18/coordinate 1 (-)>>>
             <<<Displacing  18/coordinate 2 (-)>>>
             <<<Displacing  18/coordinate 3 (+)>>>
             <<<Displacing  19/coordinate 1 (+)>>>
             <<<Displacing  18/coordinate 3 (-)>>>
             <<<Displacing  19/coordinate 1 (-)>>>
             <<<Displacing  20/coordinate 1 (+)>>>
             <<<Displacing  19/coordinate 2 (+)>>>
             <<<Displacing  19/coordinate 3 (+)>>>
             <<<Displacing  19/coordinate 2 (-)>>>
             <<<Displacing  20/coordinate 1 (-)>>>
             <<<Displacing  19/coordinate 3 (-)>>>
             <<<Displacing  20/coordinate 2 (+)>>>
             <<<Displacing  20/coordinate 3 (+)>>>
             <<<Displacing  20/coordinate 3 (-)>>>
             <<<Displacing  20/coordinate 2 (-)>>>
             <<<Displacing  21/coordinate 1 (+)>>>
             <<<Displacing  21/coordinate 1 (-)>>>
             <<<Displacing  21/coordinate 2 (+)>>>
             <<<Displacing  21/coordinate 2 (-)>>>
             <<<Displacing  22/coordinate 1 (+)>>>
             <<<Displacing  21/coordinate 3 (+)>>>
             <<<Displacing  22/coordinate 1 (-)>>>
             <<<Displacing  23/coordinate 1 (+)>>>
             <<<Displacing  22/coordinate 3 (+)>>>
             <<<Displacing  21/coordinate 3 (-)>>>
             <<<Displacing  23/coordinate 1 (-)>>>
             <<<Displacing  22/coordinate 3 (-)>>>
             <<<Displacing  22/coordinate 2 (+)>>>
             <<<Displacing  22/coordinate 2 (-)>>>
             <<<Displacing  23/coordinate 2 (+)>>>
             <<<Displacing  23/coordinate 2 (-)>>>
             <<<Displacing  23/coordinate 3 (+)>>>
             <<<Displacing  23/coordinate 3 (-)>>>
             <<<Displacing  24/coordinate 1 (+)>>>
             <<<Displacing  24/coordinate 1 (-)>>>
             <<<Displacing  24/coordinate 2 (+)>>>
             <<<Displacing  24/coordinate 2 (-)>>>
             <<<Displacing  24/coordinate 3 (+)>>>
             <<<Displacing  24/coordinate 3 (-)>>>
             <<<Displacing  25/coordinate 1 (+)>>>
             <<<Displacing  25/coordinate 1 (-)>>>
             <<<Displacing  25/coordinate 3 (+)>>>
             <<<Displacing  25/coordinate 2 (+)>>>
             <<<Displacing  25/coordinate 2 (-)>>>
             <<<Displacing  25/coordinate 3 (-)>>>
             <<<Displacing  26/coordinate 1 (+)>>>
             <<<Displacing  26/coordinate 2 (+)>>>
             <<<Displacing  26/coordinate 1 (-)>>>
             <<<Displacing  26/coordinate 3 (+)>>>
             <<<Displacing  26/coordinate 2 (-)>>>
             <<<Displacing  26/coordinate 3 (-)>>>
             <<<Displacing  27/coordinate 2 (+)>>>
             <<<Displacing  27/coordinate 1 (+)>>>
             <<<Displacing  27/coordinate 2 (-)>>>
             <<<Displacing  27/coordinate 1 (-)>>>
             <<<Displacing  27/coordinate 3 (+)>>>
             <<<Displacing  27/coordinate 3 (-)>>>
             <<<Displacing  28/coordinate 1 (+)>>>
             <<<Displacing  28/coordinate 1 (-)>>>
             <<<Displacing  28/coordinate 3 (+)>>>
             <<<Displacing  28/coordinate 2 (+)>>>
             <<<Displacing  28/coordinate 2 (-)>>>
             <<<Displacing  28/coordinate 3 (-)>>>
             <<<Displacing  29/coordinate 1 (+)>>>
             <<<Displacing  29/coordinate 1 (-)>>>
             <<<Displacing  29/coordinate 2 (+)>>>
             <<<Displacing  29/coordinate 2 (-)>>>
             <<<Displacing  29/coordinate 3 (+)>>>
             <<<Displacing  29/coordinate 3 (-)>>>
             <<<Displacing  30/coordinate 1 (+)>>>
             <<<Displacing  30/coordinate 2 (+)>>>
             <<<Displacing  30/coordinate 1 (-)>>>
             <<<Displacing  30/coordinate 2 (-)>>>
             <<<Displacing  30/coordinate 3 (+)>>>
             <<<Displacing  31/coordinate 1 (+)>>>
             <<<Displacing  31/coordinate 1 (-)>>>
             <<<Displacing  30/coordinate 3 (-)>>>
             <<<Displacing  31/coordinate 2 (+)>>>
             <<<Displacing  32/coordinate 1 (+)>>>
             <<<Displacing  31/coordinate 3 (+)>>>
             <<<Displacing  31/coordinate 2 (-)>>>
             <<<Displacing  32/coordinate 1 (-)>>>
             <<<Displacing  31/coordinate 3 (-)>>>
             <<<Displacing  32/coordinate 3 (+)>>>
             <<<Displacing  32/coordinate 2 (+)>>>
             <<<Displacing  32/coordinate 3 (-)>>>
             <<<Displacing  32/coordinate 2 (-)>>>
             <<<Displacing  33/coordinate 2 (+)>>>
             <<<Displacing  33/coordinate 1 (+)>>>
             <<<Displacing  33/coordinate 2 (-)>>>
             <<<Displacing  33/coordinate 1 (-)>>>
             <<<Displacing  33/coordinate 3 (+)>>>
             <<<Displacing  34/coordinate 1 (+)>>>
             <<<Displacing  34/coordinate 3 (+)>>>
             <<<Displacing  33/coordinate 3 (-)>>>
             <<<Displacing  34/coordinate 1 (-)>>>
             <<<Displacing  34/coordinate 2 (+)>>>
             <<<Displacing  34/coordinate 3 (-)>>>
             <<<Displacing  34/coordinate 2 (-)>>>
             <<<Displacing  35/coordinate 1 (+)>>>
             <<<Displacing  35/coordinate 1 (-)>>>
             <<<Displacing  35/coordinate 3 (+)>>>
             <<<Displacing  35/coordinate 2 (+)>>>
             <<<Displacing  35/coordinate 3 (-)>>>
             <<<Displacing  35/coordinate 2 (-)>>>
             <<<Displacing  36/coordinate 1 (+)>>>
             <<<Displacing  36/coordinate 1 (-)>>>
             <<<Displacing  36/coordinate 2 (+)>>>
             <<<Displacing  36/coordinate 3 (+)>>>
             <<<Displacing  36/coordinate 2 (-)>>>
             <<<Displacing  36/coordinate 3 (-)>>>
             <<<Displacing  37/coordinate 3 (+)>>>
             <<<Displacing  37/coordinate 3 (-)>>>
             <<<Displacing  37/coordinate 1 (+)>>>
             <<<Displacing  37/coordinate 2 (+)>>>
             <<<Displacing  37/coordinate 1 (-)>>>
             <<<Displacing  37/coordinate 2 (-)>>>
             <<<Displacing  38/coordinate 1 (+)>>>
             <<<Displacing  38/coordinate 1 (-)>>>
             <<<Displacing  38/coordinate 3 (+)>>>
             <<<Displacing  38/coordinate 2 (+)>>>
             <<<Displacing  38/coordinate 3 (-)>>>
             <<<Displacing  38/coordinate 2 (-)>>>
             <<<Displacing  39/coordinate 1 (+)>>>
             <<<Displacing  39/coordinate 1 (-)>>>
             <<<Displacing  39/coordinate 2 (+)>>>
             <<<Displacing  39/coordinate 3 (+)>>>
             <<<Displacing  39/coordinate 2 (-)>>>
             <<<Displacing  39/coordinate 3 (-)>>>
             <<<Displacing  40/coordinate 3 (+)>>>
             <<<Displacing  40/coordinate 1 (+)>>>
             <<<Displacing  40/coordinate 3 (-)>>>
             <<<Displacing  40/coordinate 2 (+)>>>
             <<<Displacing  40/coordinate 1 (-)>>>
             <<<Displacing  40/coordinate 2 (-)>>>
             <<<Displacing  41/coordinate 1 (+)>>>
             <<<Displacing  41/coordinate 2 (+)>>>
             <<<Displacing  41/coordinate 1 (-)>>>
             <<<Displacing  41/coordinate 3 (+)>>>
             <<<Displacing  41/coordinate 2 (-)>>>
             <<<Displacing  41/coordinate 3 (-)>>>
             <<<Displacing  42/coordinate 3 (+)>>>
             <<<Displacing  43/coordinate 1 (+)>>>
             <<<Displacing  42/coordinate 1 (+)>>>
             <<<Displacing  42/coordinate 3 (-)>>>
             <<<Displacing  43/coordinate 1 (-)>>>
             <<<Displacing  42/coordinate 1 (-)>>>
             <<<Displacing  43/coordinate 2 (+)>>>
             <<<Displacing  42/coordinate 2 (+)>>>
             <<<Displacing  43/coordinate 2 (-)>>>
             <<<Displacing  42/coordinate 2 (-)>>>
             <<<Displacing  43/coordinate 3 (+)>>>
             <<<Displacing  43/coordinate 3 (-)>>>
             <<<Displacing  44/coordinate 1 (+)>>>
             <<<Displacing  44/coordinate 2 (+)>>>
             <<<Displacing  44/coordinate 2 (-)>>>
             <<<Displacing  44/coordinate 1 (-)>>>
             <<<Displacing  44/coordinate 3 (+)>>>
             <<<Displacing  44/coordinate 3 (-)>>>
             <<<Displacing  45/coordinate 2 (+)>>>
             <<<Displacing  45/coordinate 1 (+)>>>
             <<<Displacing  45/coordinate 2 (-)>>>
             <<<Displacing  45/coordinate 1 (-)>>>
             <<<Displacing  45/coordinate 3 (+)>>>
             <<<Displacing  45/coordinate 3 (-)>>>
             <<<Displacing  46/coordinate 1 (+)>>>
             <<<Displacing  46/coordinate 2 (+)>>>
             <<<Displacing  46/coordinate 2 (-)>>>
             <<<Displacing  46/coordinate 1 (-)>>>
             <<<Displacing  46/coordinate 3 (+)>>>
             <<<Displacing  46/coordinate 3 (-)>>>
             <<<Displacing  47/coordinate 1 (+)>>>
             <<<Displacing  47/coordinate 3 (+)>>>
             <<<Displacing  47/coordinate 2 (+)>>>
             <<<Displacing  47/coordinate 1 (-)>>>
             <<<Displacing  47/coordinate 3 (-)>>>
             <<<Displacing  47/coordinate 2 (-)>>>
             <<<Displacing  48/coordinate 1 (+)>>>
             <<<Displacing  48/coordinate 1 (-)>>>
             <<<Displacing  48/coordinate 3 (+)>>>
             <<<Displacing  48/coordinate 2 (+)>>>
             <<<Displacing  48/coordinate 3 (-)>>>
             <<<Displacing  48/coordinate 2 (-)>>>
             <<<Displacing  49/coordinate 1 (+)>>>
             <<<Displacing  49/coordinate 2 (+)>>>
             <<<Displacing  49/coordinate 1 (-)>>>
             <<<Displacing  49/coordinate 2 (-)>>>
             <<<Displacing  49/coordinate 3 (+)>>>
             <<<Displacing  49/coordinate 3 (-)>>>

-----------------------
VIBRATIONAL FREQUENCIES
-----------------------

Scaling factor for frequencies =  1.000000000 (already applied!)

   0:         0.00 cm**-1
   1:         0.00 cm**-1
   2:         0.00 cm**-1
   3:         0.00 cm**-1
   4:         0.00 cm**-1
   5:         0.00 cm**-1
   6:      -838.57 cm**-1 ***imaginary mode***
   7:       -37.19 cm**-1 ***imaginary mode***
   8:        34.21 cm**-1
   9:        48.23 cm**-1
  10:        57.10 cm**-1
  11:        69.06 cm**-1
  12:        73.72 cm**-1
  13:        79.10 cm**-1
  14:        83.76 cm**-1
  15:        95.28 cm**-1
  16:       106.19 cm**-1
  17:       119.71 cm**-1
  18:       121.11 cm**-1
  19:       132.25 cm**-1
  20:       148.61 cm**-1
  21:       177.93 cm**-1
  22:       189.31 cm**-1
  23:       213.20 cm**-1
  24:       224.10 cm**-1
  25:       236.41 cm**-1
  26:       260.99 cm**-1
  27:       274.84 cm**-1
  28:       276.36 cm**-1
  29:       347.15 cm**-1
  30:       352.50 cm**-1
  31:       380.50 cm**-1
  32:       390.96 cm**-1
  33:       394.42 cm**-1
  34:       406.22 cm**-1
  35:       420.34 cm**-1
  36:       429.97 cm**-1
  37:       478.55 cm**-1
  38:       523.14 cm**-1
  39:       539.03 cm**-1
  40:       588.93 cm**-1
  41:       606.08 cm**-1
  42:       640.65 cm**-1
  43:       666.33 cm**-1
  44:       681.23 cm**-1
  45:       741.99 cm**-1
  46:       770.15 cm**-1
  47:       771.38 cm**-1
  48:       808.09 cm**-1
  49:       819.82 cm**-1
  50:       827.93 cm**-1
  51:       840.92 cm**-1
  52:       884.03 cm**-1
  53:       900.49 cm**-1
  54:       906.77 cm**-1
  55:       928.75 cm**-1
  56:       933.23 cm**-1
  57:       935.59 cm**-1
  58:       945.45 cm**-1
  59:       952.50 cm**-1
  60:       953.94 cm**-1
  61:       978.00 cm**-1
  62:       994.65 cm**-1
  63:      1013.22 cm**-1
  64:      1027.92 cm**-1
  65:      1042.05 cm**-1
  66:      1069.29 cm**-1
  67:      1071.27 cm**-1
  68:      1088.70 cm**-1
  69:      1092.96 cm**-1
  70:      1094.97 cm**-1
  71:      1110.44 cm**-1
  72:      1120.68 cm**-1
  73:      1128.20 cm**-1
  74:      1139.50 cm**-1
  75:      1154.22 cm**-1
  76:      1156.74 cm**-1
  77:      1176.64 cm**-1
  78:      1185.15 cm**-1
  79:      1195.84 cm**-1
  80:      1196.84 cm**-1
  81:      1219.63 cm**-1
  82:      1235.90 cm**-1
  83:      1247.04 cm**-1
  84:      1254.02 cm**-1
  85:      1269.68 cm**-1
  86:      1275.26 cm**-1
  87:      1276.95 cm**-1
  88:      1278.60 cm**-1
  89:      1281.47 cm**-1
  90:      1283.46 cm**-1
  91:      1286.78 cm**-1
  92:      1293.01 cm**-1
  93:      1313.38 cm**-1
  94:      1341.00 cm**-1
  95:      1351.71 cm**-1
  96:      1372.23 cm**-1
  97:      1373.87 cm**-1
  98:      1414.53 cm**-1
  99:      1418.93 cm**-1
 100:      1426.98 cm**-1
 101:      1428.58 cm**-1
 102:      1446.07 cm**-1
 103:      1456.59 cm**-1
 104:      1466.49 cm**-1
 105:      1470.50 cm**-1
 106:      1481.84 cm**-1
 107:      1494.61 cm**-1
 108:      1499.05 cm**-1
 109:      1502.73 cm**-1
 110:      1503.89 cm**-1
 111:      1506.38 cm**-1
 112:      1506.44 cm**-1
 113:      1510.53 cm**-1
 114:      1511.22 cm**-1
 115:      1556.96 cm**-1
 116:      1565.38 cm**-1
 117:      1573.29 cm**-1
 118:      2181.90 cm**-1
 119:      2652.74 cm**-1
 120:      2940.01 cm**-1
 121:      2944.36 cm**-1
 122:      2945.97 cm**-1
 123:      2955.35 cm**-1
 124:      2956.05 cm**-1
 125:      2966.71 cm**-1
 126:      2973.90 cm**-1
 127:      2975.24 cm**-1
 128:      2975.78 cm**-1
 129:      2980.54 cm**-1
 130:      2981.34 cm**-1
 131:      2984.78 cm**-1
 132:      2986.38 cm**-1
 133:      2989.81 cm**-1
 134:      3000.24 cm**-1
 135:      3000.52 cm**-1
 136:      3017.24 cm**-1
 137:      3025.77 cm**-1
 138:      3044.03 cm**-1
 139:      3048.44 cm**-1
 140:      3053.40 cm**-1
 141:      3065.64 cm**-1
 142:      3073.32 cm**-1
 143:      3091.76 cm**-1
 144:      3359.58 cm**-1
 145:      3396.82 cm**-1
 146:      3608.06 cm**-1


------------
NORMAL MODES
------------

These modes are the cartesian displacements weighted by the diagonal matrix
M(i,i)=1/sqrt(m[i]) where m[i] is the mass of the displaced atom
Thus, these vectors are normalized but *not* orthogonal

                  0          1          2          3          4          5    
      0       0.000000   0.000000   0.000000   0.000000   0.000000   0.000000
      1       0.000000   0.000000   0.000000   0.000000   0.000000   0.000000
      2       0.000000   0.000000   0.000000   0.000000   0.000000   0.000000
      3       0.000000   0.000000   0.000000   0.000000   0.000000   0.000000
      4       0.000000   0.000000   0.000000   0.000000   0.000000   0.000000
      5       0.000000   0.000000   0.000000   0.000000   0.000000   0.000000
      6       0.000000   0.000000   0.000000   0.000000   0.000000   0.000000
      7       0.000000   0.000000   0.000000   0.000000   0.000000   0.000000
      8       0.000000   0.000000   0.000000   0.000000   0.000000   0.000000
      9       0.000000   0.000000   0.000000   0.000000   0.000000   0.000000
     10       0.000000   0.000000   0.000000   0.000000   0.000000   0.000000
     11       0.000000   0.000000   0.000000   0.000000   0.000000   0.000000
     12       0.000000   0.000000   0.000000   0.000000   0.000000   0.000000
     13       0.000000   0.000000   0.000000   0.000000   0.000000   0.000000
     14       0.000000   0.000000   0.000000   0.000000   0.000000   0.000000
     15       0.000000   0.000000   0.000000   0.000000   0.000000   0.000000
     16       0.000000   0.000000   0.000000   0.000000   0.000000   0.000000
     17       0.000000   0.000000   0.000000   0.000000   0.000000   0.000000
     18       0.000000   0.000000   0.000000   0.000000   0.000000   0.000000
     19       0.000000   0.000000   0.000000   0.000000   0.000000   0.000000
     20       0.000000   0.000000   0.000000   0.000000   0.000000   0.000000
     21       0.000000   0.000000   0.000000   0.000000   0.000000   0.000000
     22       0.000000   0.000000   0.000000   0.000000   0.000000   0.000000
     23       0.000000   0.000000   0.000000   0.000000   0.000000   0.000000
     24       0.000000   0.000000   0.000000   0.000000   0.000000   0.000000
     25       0.000000   0.000000   0.000000   0.000000   0.000000   0.000000
     26       0.000000   0.000000   0.000000   0.000000   0.000000   0.000000
     27       0.000000   0.000000   0.000000   0.000000   0.000000   0.000000
     28       0.000000   0.000000   0.000000   0.000000   0.000000   0.000000
     29       0.000000   0.000000   0.000000   0.000000   0.000000   0.000000
     30       0.000000   0.000000   0.000000   0.000000   0.000000   0.000000
     31       0.000000   0.000000   0.000000   0.000000   0.000000   0.000000
     32       0.000000   0.000000   0.000000   0.000000   0.000000   0.000000
     33       0.000000   0.000000   0.000000   0.000000   0.000000   0.000000
     34       0.000000   0.000000   0.000000   0.000000   0.000000   0.000000
     35       0.000000   0.000000   0.000000   0.000000   0.000000   0.000000
     36       0.000000   0.000000   0.000000   0.000000   0.000000   0.000000
     37       0.000000   0.000000   0.000000   0.000000   0.000000   0.000000
     38       0.000000   0.000000   0.000000   0.000000   0.000000   0.000000
     39       0.000000   0.000000   0.000000   0.000000   0.000000   0.000000
     40       0.000000   0.000000   0.000000   0.000000   0.000000   0.000000
     41       0.000000   0.000000   0.000000   0.000000   0.000000   0.000000
     42       0.000000   0.000000   0.000000   0.000000   0.000000   0.000000
     43       0.000000   0.000000   0.000000   0.000000   0.000000   0.000000
     44       0.000000   0.000000   0.000000   0.000000   0.000000   0.000000
     45       0.000000   0.000000   0.000000   0.000000   0.000000   0.000000
     46       0.000000   0.000000   0.000000   0.000000   0.000000   0.000000
     47       0.000000   0.000000   0.000000   0.000000   0.000000   0.000000
     48       0.000000   0.000000   0.000000   0.000000   0.000000   0.000000
     49       0.000000   0.000000   0.000000   0.000000   0.000000   0.000000
     50       0.000000   0.000000   0.000000   0.000000   0.000000   0.000000
     51       0.000000   0.000000   0.000000   0.000000   0.000000   0.000000
     52       0.000000   0.000000   0.000000   0.000000   0.000000   0.000000
     53       0.000000   0.000000   0.000000   0.000000   0.000000   0.000000
     54       0.000000   0.000000   0.000000   0.000000   0.000000   0.000000
     55       0.000000   0.000000   0.000000   0.000000   0.000000   0.000000
     56       0.000000   0.000000   0.000000   0.000000   0.000000   0.000000
     57       0.000000   0.000000   0.000000   0.000000   0.000000   0.000000
     58       0.000000   0.000000   0.000000   0.000000   0.000000   0.000000
     59       0.000000   0.000000   0.000000   0.000000   0.000000   0.000000
     60       0.000000   0.000000   0.000000   0.000000   0.000000   0.000000
     61       0.000000   0.000000   0.000000   0.000000   0.000000   0.000000
     62       0.000000   0.000000   0.000000   0.000000   0.000000   0.000000
     63       0.000000   0.000000   0.000000   0.000000   0.000000   0.000000
     64       0.000000   0.000000   0.000000   0.000000   0.000000   0.000000
     65       0.000000   0.000000   0.000000   0.000000   0.000000   0.000000
     66       0.000000   0.000000   0.000000   0.000000   0.000000   0.000000
     67       0.000000   0.000000   0.000000   0.000000   0.000000   0.000000
     68       0.000000   0.000000   0.000000   0.000000   0.000000   0.000000
     69       0.000000   0.000000   0.000000   0.000000   0.000000   0.000000
     70       0.000000   0.000000   0.000000   0.000000   0.000000   0.000000
     71       0.000000   0.000000   0.000000   0.000000   0.000000   0.000000
     72       0.000000   0.000000   0.000000   0.000000   0.000000   0.000000
     73       0.000000   0.000000   0.000000   0.000000   0.000000   0.000000
     74       0.000000   0.000000   0.000000   0.000000   0.000000   0.000000
     75       0.000000   0.000000   0.000000   0.000000   0.000000   0.000000
     76       0.000000   0.000000   0.000000   0.000000   0.000000   0.000000
     77       0.000000   0.000000   0.000000   0.000000   0.000000   0.000000
     78       0.000000   0.000000   0.000000   0.000000   0.000000   0.000000
     79       0.000000   0.000000   0.000000   0.000000   0.000000   0.000000
     80       0.000000   0.000000   0.000000   0.000000   0.000000   0.000000
     81       0.000000   0.000000   0.000000   0.000000   0.000000   0.000000
     82       0.000000   0.000000   0.000000   0.000000   0.000000   0.000000
     83       0.000000   0.000000   0.000000   0.000000   0.000000   0.000000
     84       0.000000   0.000000   0.000000   0.000000   0.000000   0.000000
     85       0.000000   0.000000   0.000000   0.000000   0.000000   0.000000
     86       0.000000   0.000000   0.000000   0.000000   0.000000   0.000000
     87       0.000000   0.000000   0.000000   0.000000   0.000000   0.000000
     88       0.000000   0.000000   0.000000   0.000000   0.000000   0.000000
     89       0.000000   0.000000   0.000000   0.000000   0.000000   0.000000
     90       0.000000   0.000000   0.000000   0.000000   0.000000   0.000000
     91       0.000000   0.000000   0.000000   0.000000   0.000000   0.000000
     92       0.000000   0.000000   0.000000   0.000000   0.000000   0.000000
     93       0.000000   0.000000   0.000000   0.000000   0.000000   0.000000
     94       0.000000   0.000000   0.000000   0.000000   0.000000   0.000000
     95       0.000000   0.000000   0.000000   0.000000   0.000000   0.000000
     96       0.000000   0.000000   0.000000   0.000000   0.000000   0.000000
     97       0.000000   0.000000   0.000000   0.000000   0.000000   0.000000
     98       0.000000   0.000000   0.000000   0.000000   0.000000   0.000000
     99       0.000000   0.000000   0.000000   0.000000   0.000000   0.000000
    100       0.000000   0.000000   0.000000   0.000000   0.000000   0.000000
    101       0.000000   0.000000   0.000000   0.000000   0.000000   0.000000
    102       0.000000   0.000000   0.000000   0.000000   0.000000   0.000000
    103       0.000000   0.000000   0.000000   0.000000   0.000000   0.000000
    104       0.000000   0.000000   0.000000   0.000000   0.000000   0.000000
    105       0.000000   0.000000   0.000000   0.000000   0.000000   0.000000
    106       0.000000   0.000000   0.000000   0.000000   0.000000   0.000000
    107       0.000000   0.000000   0.000000   0.000000   0.000000   0.000000
    108       0.000000   0.000000   0.000000   0.000000   0.000000   0.000000
    109       0.000000   0.000000   0.000000   0.000000   0.000000   0.000000
    110       0.000000   0.000000   0.000000   0.000000   0.000000   0.000000
    111       0.000000   0.000000   0.000000   0.000000   0.000000   0.000000
    112       0.000000   0.000000   0.000000   0.000000   0.000000   0.000000
    113       0.000000   0.000000   0.000000   0.000000   0.000000   0.000000
    114       0.000000   0.000000   0.000000   0.000000   0.000000   0.000000
    115       0.000000   0.000000   0.000000   0.000000   0.000000   0.000000
    116       0.000000   0.000000   0.000000   0.000000   0.000000   0.000000
    117       0.000000   0.000000   0.000000   0.000000   0.000000   0.000000
    118       0.000000   0.000000   0.000000   0.000000   0.000000   0.000000
    119       0.000000   0.000000   0.000000   0.000000   0.000000   0.000000
    120       0.000000   0.000000   0.000000   0.000000   0.000000   0.000000
    121       0.000000   0.000000   0.000000   0.000000   0.000000   0.000000
    122       0.000000   0.000000   0.000000   0.000000   0.000000   0.000000
    123       0.000000   0.000000   0.000000   0.000000   0.000000   0.000000
    124       0.000000   0.000000   0.000000   0.000000   0.000000   0.000000
    125       0.000000   0.000000   0.000000   0.000000   0.000000   0.000000
    126       0.000000   0.000000   0.000000   0.000000   0.000000   0.000000
    127       0.000000   0.000000   0.000000   0.000000   0.000000   0.000000
    128       0.000000   0.000000   0.000000   0.000000   0.000000   0.000000
    129       0.000000   0.000000   0.000000   0.000000   0.000000   0.000000
    130       0.000000   0.000000   0.000000   0.000000   0.000000   0.000000
    131       0.000000   0.000000   0.000000   0.000000   0.000000   0.000000
    132       0.000000   0.000000   0.000000   0.000000   0.000000   0.000000
    133       0.000000   0.000000   0.000000   0.000000   0.000000   0.000000
    134       0.000000   0.000000   0.000000   0.000000   0.000000   0.000000
    135       0.000000   0.000000   0.000000   0.000000   0.000000   0.000000
    136       0.000000   0.000000   0.000000   0.000000   0.000000   0.000000
    137       0.000000   0.000000   0.000000   0.000000   0.000000   0.000000
    138       0.000000   0.000000   0.000000   0.000000   0.000000   0.000000
    139       0.000000   0.000000   0.000000   0.000000   0.000000   0.000000
    140       0.000000   0.000000   0.000000   0.000000   0.000000   0.000000
    141       0.000000   0.000000   0.000000   0.000000   0.000000   0.000000
    142       0.000000   0.000000   0.000000   0.000000   0.000000   0.000000
    143       0.000000   0.000000   0.000000   0.000000   0.000000   0.000000
    144       0.000000   0.000000   0.000000   0.000000   0.000000   0.000000
    145       0.000000   0.000000   0.000000   0.000000   0.000000   0.000000
    146       0.000000   0.000000   0.000000   0.000000   0.000000   0.000000
                  6          7          8          9         10         11    
      0       0.003798  -0.027813  -0.012107   0.021723  -0.015695   0.019729
      1       0.003584  -0.002636  -0.020690   0.001067  -0.000774  -0.002607
      2       0.001540   0.012915  -0.072839  -0.043268  -0.024485  -0.027170
      3      -0.002580  -0.019534  -0.022959   0.010963   0.024715   0.043174
      4      -0.000326  -0.007541  -0.029614  -0.025115   0.068459   0.017337
      5      -0.000137   0.028734  -0.071910  -0.019057  -0.076322  -0.028597
      6      -0.001666  -0.015308  -0.026889   0.013522   0.001225   0.066812
      7      -0.000350  -0.010335  -0.036645  -0.050529   0.156527   0.021108
      8       0.000394   0.039914  -0.089576  -0.028214  -0.091076   0.048171
      9      -0.000973  -0.018024  -0.021565   0.027299  -0.064741   0.065397
     10      -0.000628  -0.008539  -0.034163  -0.049107   0.180091   0.004414
     11       0.000451   0.037171  -0.111513  -0.062064  -0.060968   0.125799
     12       0.000624  -0.024106  -0.012784   0.038319  -0.104916   0.038564
     13       0.000685  -0.005484  -0.022947  -0.022867   0.112748  -0.014002
     14      -0.000148   0.026575  -0.117584  -0.086346  -0.011534   0.122600
     15       0.001868  -0.028677  -0.008271   0.035213  -0.079217   0.016551
     16       0.001376  -0.002479  -0.016557   0.002434   0.022224  -0.018076
     17       0.001538   0.014057  -0.098553  -0.077512   0.009101   0.047194
     18       0.021557  -0.044644  -0.000673   0.016308   0.003665   0.010221
     19       0.025689   0.012480  -0.016454   0.023765  -0.099093  -0.013104
     20       0.041934  -0.025534  -0.033795  -0.042438  -0.019346  -0.067280
     21       0.003133  -0.016049  -0.028045  -0.000933   0.074470   0.044169
     22      -0.001986  -0.009726  -0.031309  -0.026418   0.053249   0.030620
     23      -0.002589   0.030710  -0.054579   0.008498  -0.103989  -0.089742
     24       0.002290  -0.034062  -0.002405   0.044575  -0.104525  -0.005103
     25       0.003439   0.001542  -0.009960   0.023959  -0.030627  -0.035002
     26      -0.002547   0.002575  -0.100651  -0.096661   0.052587   0.047233
     27      -0.001838  -0.015675  -0.023872   0.029268  -0.083992   0.084175
     28       0.000114  -0.009799  -0.040735  -0.068374   0.249011   0.005945
     29      -0.001575   0.043767  -0.123466  -0.069110  -0.074279   0.185961
     30      -0.005427   0.006737  -0.042076   0.014643   0.011389   0.015221
     31       0.022823   0.014786  -0.020192   0.066416  -0.044380  -0.008984
     32      -0.044867  -0.055077  -0.009204  -0.053742  -0.041404  -0.071213
     33      -0.010542   0.005921  -0.042119   0.029564  -0.005897   0.021995
     34       0.004497  -0.025847   0.008112   0.008228  -0.010124  -0.019675
     35      -0.014133  -0.144945   0.044821  -0.079555  -0.080603  -0.047537
     36      -0.129105   0.012122  -0.042289  -0.021798   0.043461  -0.040217
     37      -0.742150   0.019562  -0.030496   0.121643  -0.007996   0.004377
     38       0.618831  -0.049359  -0.023479   0.002281  -0.012711  -0.057819
     39      -0.001448   0.023447  -0.033565  -0.005140   0.043622   0.013471
     40       0.000509   0.030872   0.013119  -0.013472   0.045639  -0.036782
     41      -0.000536   0.157908   0.023411  -0.006327  -0.002555  -0.122082
     42      -0.019360  -0.007038  -0.071839   0.054201  -0.032046   0.031947
     43      -0.003596   0.170474  -0.022264   0.050163   0.054956  -0.076063
     44       0.003651  -0.367387   0.089910  -0.136360  -0.146589   0.014734
     45       0.049895   0.006862  -0.018661   0.040827  -0.028992   0.028621
     46       0.030480  -0.307225   0.057375  -0.066365  -0.086472   0.057083
     47      -0.011567  -0.258208   0.066267  -0.108963  -0.113148  -0.016203
     48      -0.004903   0.043913   0.000419  -0.046189   0.077410   0.084126
     49       0.000699  -0.141851   0.041026  -0.053025  -0.016856   0.051516
     50      -0.001117   0.371715  -0.029306   0.065062   0.061471  -0.270019
     51       0.007271   0.031792  -0.068308   0.005558   0.065947  -0.084964
     52       0.011395   0.301181  -0.039044   0.069442   0.121749  -0.188875
     53       0.004996   0.251839   0.004937   0.022514   0.024082  -0.175863
     54       0.005694  -0.047722   0.018376   0.033412  -0.030214  -0.003464
     55      -0.018783   0.024955  -0.013931   0.021316  -0.162230  -0.022542
     56      -0.000378  -0.047490  -0.020305  -0.023396   0.046881  -0.066108
     57      -0.003412   0.003292  -0.091728   0.039099   0.001299  -0.078069
     58       0.017855   0.027262  -0.033381   0.088629  -0.117978  -0.010998
     59       0.016848  -0.061929  -0.042037   0.096343   0.134177  -0.031123
     60      -0.011929  -0.015286  -0.044488   0.035494  -0.018368  -0.040880
     61       0.071909   0.030260  -0.022108   0.063341  -0.142581  -0.012632
     62      -0.015813  -0.056827  -0.035899   0.043813   0.099317  -0.045551
     63      -0.010323  -0.006254  -0.088504   0.035348  -0.007919  -0.076079
     64       0.011944   0.022512  -0.049716   0.073321  -0.128490  -0.028457
     65      -0.002957  -0.101228  -0.000098   0.102316   0.105076   0.006751
     66       0.028286   0.016813  -0.120976   0.013786   0.089407  -0.085478
     67      -0.031339   0.019557  -0.031531   0.129219  -0.018424   0.008874
     68      -0.093343  -0.046872  -0.060444   0.067168   0.072690  -0.046691
     69      -0.028489  -0.078417   0.016801  -0.001293   0.049274   0.009506
     70      -0.024631   0.014749  -0.014724   0.009919  -0.136533  -0.018524
     71      -0.064429  -0.021965  -0.030608  -0.063716  -0.080816  -0.074396
     72       0.017929   0.041509  -0.069862   0.038850  -0.004892   0.021729
     73       0.050561   0.025791  -0.035138   0.105997  -0.049075   0.003848
     74      -0.088815  -0.035389  -0.015034  -0.097650  -0.052301  -0.086507
     75      -0.002334  -0.010656  -0.032386   0.005615   0.034997   0.086501
     76       0.001883  -0.013698  -0.044741  -0.071348   0.205277   0.036175
     77      -0.002304   0.049481  -0.083875  -0.007517  -0.123449   0.047691
     78       0.000019  -0.026136  -0.009124   0.048813  -0.155712   0.036107
     79       0.001683  -0.004474  -0.020215  -0.021437   0.129766  -0.026372
     80      -0.004322   0.026151  -0.135931  -0.112477   0.013625   0.179898
     81      -0.001233   0.013828  -0.025233   0.002105   0.019786   0.044874
     82      -0.001336  -0.037677   0.050058  -0.094587   0.088790   0.041106
     83       0.000408   0.033354   0.102320  -0.077713  -0.045720   0.094612
     84      -0.003568   0.044709  -0.066819   0.060800  -0.014452  -0.058289
     85       0.002432   0.056419   0.031959  -0.074353   0.142092  -0.014017
     86      -0.001229  -0.107963   0.145657  -0.131761  -0.101906   0.216037
     87      -0.002327  -0.027037   0.015144  -0.019195  -0.007259   0.161921
     88       0.002553  -0.195191   0.087509  -0.148950   0.024634   0.147321
     89       0.000192  -0.021718   0.115773  -0.096788  -0.068261   0.132810
     90       0.000433   0.013496  -0.014868  -0.040647   0.076010   0.060793
     91      -0.000507  -0.019819   0.060217  -0.130429   0.148721   0.057327
     92       0.000250   0.156639   0.107286  -0.056660   0.013317   0.107559
     93      -0.000170   0.009604   0.013810  -0.084613   0.113992   0.135782
     94       0.000492  -0.090693   0.070847  -0.142069   0.101603   0.091865
     95      -0.001241   0.251608   0.082126  -0.024244   0.060685   0.032907
     96       0.000038   0.011422  -0.011594  -0.032149   0.058534   0.074302
     97       0.000755  -0.049916   0.078598  -0.178529   0.182271   0.100227
     98      -0.001155   0.110919   0.142927  -0.085645  -0.010020   0.212773
     99       0.001523   0.020439  -0.039517  -0.036468   0.097074  -0.015790
    100       0.001119   0.094457   0.038426  -0.096742   0.205869  -0.008056
    101       0.000748   0.196140   0.100366  -0.045065   0.032624   0.086851
    102       0.030298   0.032078  -0.042374  -0.034696   0.044753  -0.072608
    103       0.016144   0.021090  -0.094775   0.185318   0.055386   0.010991
    104      -0.023069  -0.058475  -0.067737   0.059835   0.057319  -0.053503
    105      -0.012631   0.031647  -0.041683  -0.031201   0.044904  -0.069204
    106       0.002884   0.003930   0.024714   0.100554  -0.015288   0.018265
    107      -0.000197  -0.027438   0.002019   0.028021   0.006213  -0.034191
    108      -0.020914   0.021246  -0.073981  -0.022221   0.064385  -0.077303
    109       0.000734  -0.007746   0.132842   0.104745   0.006559  -0.057566
    110       0.011666  -0.016086   0.029099   0.018742  -0.015771  -0.020709
    111       0.046767   0.051815  -0.095668  -0.015809   0.033424  -0.027822
    112      -0.001076   0.004231  -0.003980   0.080294  -0.036444   0.052690
    113      -0.022799  -0.024928  -0.048244  -0.001587  -0.027555   0.024307
    114       0.003465   0.027188   0.095965  -0.071586   0.013845  -0.103154
    115      -0.000373   0.002500  -0.007404   0.062327  -0.051039   0.062335
    116      -0.001567  -0.026623   0.077779   0.070509   0.046937  -0.101887
    117       0.000545   0.012408   0.140809  -0.162122   0.018718  -0.263674
    118      -0.003051   0.002487   0.021007   0.085611  -0.025553   0.026953
    119      -0.003805  -0.028299   0.124766   0.094714   0.084976  -0.172177
    120      -0.006310   0.033022   0.134209  -0.039290  -0.003283  -0.029171
    121       0.000725   0.011362  -0.110286   0.093793  -0.072496   0.196233
    122       0.005907  -0.033573   0.042745   0.033887   0.067063  -0.190101
    123      -0.000345   0.033231   0.127052  -0.033857  -0.001232  -0.021984
    124      -0.001551  -0.011217   0.062144  -0.059122  -0.097705  -0.034152
    125      -0.000683  -0.015365   0.140268   0.139542   0.016879   0.049960
    126      -0.000541   0.028046   0.086339  -0.067322   0.013830  -0.098290
    127       0.003248  -0.014657   0.110688  -0.070228  -0.061611  -0.094441
    128       0.001011  -0.009441   0.176353   0.176416  -0.004266   0.139050
    129      -0.000404   0.045432   0.108595   0.054589  -0.008406   0.114033
    130       0.001957  -0.014106   0.059556  -0.096133  -0.133039  -0.035832
    131       0.001440  -0.018255   0.134950   0.096529  -0.032373   0.059920
    132       0.001079   0.029757   0.231074  -0.068911  -0.026580  -0.018391
    133      -0.000983  -0.016361   0.069297  -0.118646  -0.144812  -0.050437
    134      -0.000631  -0.008644   0.160436   0.218789   0.080002   0.075427
    135       0.000661   0.023292   0.241951  -0.129218  -0.026520  -0.098106
    136      -0.000490  -0.013515   0.071725  -0.083997  -0.112930  -0.045833
    137       0.000095  -0.004658   0.163698   0.266901   0.125206   0.080828
    138       0.000975   0.031686   0.252608  -0.051908  -0.033579   0.017766
    139      -0.000017  -0.023368   0.112772  -0.190929  -0.179876  -0.094226
    140      -0.001806  -0.005566   0.206272   0.244950   0.063135   0.141305
    141      -0.000612   0.031860   0.273469  -0.050892  -0.038483   0.029422
    142       0.000598  -0.016015   0.028922  -0.125119  -0.176472  -0.023968
    143       0.000258  -0.010785   0.124337   0.201866   0.096920   0.023573
    144       0.005465   0.021105  -0.062239  -0.024096   0.059697  -0.075851
    145      -0.007496   0.018107  -0.038878   0.144249   0.009279   0.014280
    146      -0.020126  -0.045963  -0.040949   0.044489   0.036985  -0.049729
                 12         13         14         15         16         17    
      0      -0.032626  -0.002204  -0.043419  -0.007453  -0.008949  -0.007607
      1       0.022749   0.001503   0.000943  -0.008044   0.004474  -0.016736
      2      -0.031148   0.017803   0.018446   0.024275  -0.005703  -0.007102
      3      -0.067313  -0.001149  -0.009865   0.006285  -0.038836  -0.002330
      4       0.082619  -0.013809  -0.045880  -0.009248   0.020158  -0.007887
      5      -0.154838   0.040286   0.122190   0.041345  -0.062283  -0.013420
      6      -0.065388  -0.012626  -0.017107  -0.001299  -0.049242  -0.004069
      7       0.096002  -0.011083  -0.047718   0.004896   0.021656   0.003463
      8      -0.140095   0.006043   0.100098   0.027523  -0.094286  -0.011443
      9      -0.029469  -0.025883  -0.058024  -0.021190  -0.025465  -0.011889
     10       0.049815   0.008631  -0.001167   0.020910   0.003763   0.005141
     11      -0.007740  -0.052479  -0.022964  -0.004430  -0.062845  -0.002837
     12       0.007255  -0.026591  -0.089539  -0.031890   0.011669  -0.016581
     13      -0.014072   0.024591   0.045296   0.020272  -0.018979  -0.004890
     14       0.117917  -0.074618  -0.119748  -0.015879   0.007795   0.005877
     15       0.008921  -0.015076  -0.083754  -0.023203   0.019361  -0.014543
     16      -0.029673   0.021082   0.047128   0.005097  -0.018216  -0.016135
     17       0.111201  -0.038717  -0.098459   0.000503   0.033910   0.003544
     18      -0.029798   0.004465  -0.046864  -0.008037  -0.017934  -0.011981
     19       0.018524  -0.002650  -0.007924  -0.016262   0.037241  -0.015399
     20      -0.026197   0.035482  -0.008956   0.017335  -0.006155  -0.020087
     21      -0.088915   0.006208   0.015647   0.024086  -0.047429   0.004222
     22       0.116108  -0.025789  -0.078321  -0.021562   0.029038  -0.009106
     23      -0.262420   0.082173   0.219051   0.062580  -0.084954  -0.020810
     24       0.041070  -0.015150  -0.102751  -0.024435   0.038104  -0.020070
     25      -0.078429   0.033557   0.086467   0.008529  -0.033394  -0.024279
     26       0.212661  -0.056293  -0.175399  -0.007541   0.077067   0.008733
     27      -0.029703  -0.035491  -0.064254  -0.028538  -0.034914  -0.013769
     28       0.061934   0.011775  -0.001104   0.032879   0.006790   0.014004
     29      -0.000038  -0.080559  -0.042520  -0.019483  -0.090173  -0.002690
     30      -0.055491   0.000076   0.000250   0.022323   0.021672   0.008309
     31       0.004922  -0.004063  -0.017767  -0.090548  -0.081238  -0.023185
     32      -0.005521   0.035053  -0.036552   0.024305   0.013803  -0.026165
     33      -0.048684  -0.002047   0.004145   0.018694   0.030857   0.007886
     34       0.007386   0.003436  -0.041373  -0.088892  -0.109488  -0.024105
     35       0.045685   0.036002  -0.060176  -0.003393  -0.009075  -0.045343
     36      -0.027010   0.003085   0.030664  -0.043331  -0.002195   0.005260
     37      -0.016951  -0.021998   0.010220  -0.113134  -0.061643  -0.006770
     38      -0.005482   0.013196  -0.007513   0.025426   0.045457  -0.011896
     39      -0.077559   0.005720  -0.014247   0.065426   0.054028   0.038713
     40      -0.026623   0.011809  -0.071453  -0.040918  -0.095226   0.023514
     41      -0.012621   0.047529  -0.160556   0.046615  -0.039416   0.105040
     42      -0.050780  -0.009609   0.045180   0.009451   0.053414  -0.023104
     43      -0.049154   0.012753  -0.099382  -0.038324  -0.111757   0.070640
     44       0.111656   0.027592  -0.006460  -0.058381  -0.013973  -0.144158
     45      -0.021897  -0.002578  -0.016115   0.000256   0.010877   0.016913
     46       0.082809  -0.006819   0.032277  -0.150506  -0.107688  -0.152124
     47       0.077795   0.031756  -0.031466  -0.029785  -0.009228  -0.096260
     48      -0.082898  -0.011689   0.055585   0.080156   0.076221   0.122268
     49       0.029870  -0.010978   0.039518  -0.102811  -0.098015  -0.021908
     50      -0.082178   0.085054  -0.336302   0.120533  -0.045146   0.122959
     51      -0.114952   0.038677  -0.127050   0.125112   0.083605  -0.026408
     52      -0.102710   0.048334  -0.254709   0.034937  -0.108781   0.073799
     53      -0.039681   0.060535  -0.225624   0.073866  -0.043880   0.121154
     54      -0.029666   0.006756  -0.079462  -0.035960  -0.032786  -0.016223
     55       0.022890  -0.006514  -0.013724   0.006808   0.095225  -0.007549
     56      -0.029324   0.042362  -0.032481  -0.041196  -0.110241  -0.035995
     57       0.242414  -0.021764   0.121847   0.261833  -0.105828  -0.018987
     58       0.046847  -0.030079   0.059002   0.023051   0.145358   0.028205
     59      -0.017703   0.007484   0.069556  -0.051784  -0.043226   0.013583
     60       0.129294  -0.013773   0.029875   0.142588  -0.066615  -0.014762
     61       0.025219  -0.021264   0.026295   0.007059   0.151482   0.022674
     62      -0.016493   0.023349   0.032008  -0.039527  -0.065024  -0.007234
     63       0.269682  -0.029720   0.136748   0.311876  -0.131207  -0.023383
     64       0.141881  -0.042346   0.119718   0.159127   0.085902   0.016299
     65      -0.033274  -0.012642   0.046577  -0.018890  -0.073364   0.011104
     66       0.094665   0.029421   0.110305  -0.112058  -0.019610  -0.002524
     67      -0.010688  -0.030378   0.016644  -0.093832  -0.029575  -0.000316
     68       0.017583   0.019466   0.057430   0.037749   0.075502   0.009790
     69      -0.018881   0.010276  -0.058398  -0.005239  -0.024772  -0.020669
     70       0.026359  -0.004645  -0.006377   0.016789   0.094078  -0.010450
     71      -0.014893   0.031271  -0.007747   0.066390   0.085916  -0.011424
     72      -0.071185  -0.000552   0.028033   0.044986   0.061664   0.014417
     73      -0.002733  -0.009498  -0.003230  -0.094300  -0.075141  -0.024149
     74      -0.009760   0.043611  -0.029586   0.058504   0.053014  -0.017545
     75      -0.090637  -0.011508   0.007701   0.007664  -0.075717   0.000541
[...]
  28:       276.36    0.000000  (  0.000000   0.000000   0.000000)
  29:       347.15    0.000000  (  0.000000   0.000000   0.000000)
  30:       352.50    0.000000  (  0.000000   0.000000   0.000000)
  31:       380.50    0.000000  (  0.000000   0.000000   0.000000)
  32:       390.96    0.000000  (  0.000000   0.000000   0.000000)
  33:       394.42    0.000000  (  0.000000   0.000000   0.000000)
  34:       406.22    0.000000  (  0.000000   0.000000   0.000000)
  35:       420.34    0.000000  (  0.000000   0.000000   0.000000)
  36:       429.97    0.000000  (  0.000000   0.000000   0.000000)
  37:       478.55    0.000000  (  0.000000   0.000000   0.000000)
  38:       523.14    0.000000  (  0.000000   0.000000   0.000000)
  39:       539.03    0.000000  (  0.000000   0.000000   0.000000)
  40:       588.93    0.000000  (  0.000000   0.000000   0.000000)
  41:       606.08    0.000000  (  0.000000   0.000000   0.000000)
  42:       640.65    0.000000  (  0.000000   0.000000   0.000000)
  43:       666.33    0.000000  (  0.000000   0.000000   0.000000)
  44:       681.23    0.000000  (  0.000000   0.000000   0.000000)
  45:       741.99    0.000000  (  0.000000   0.000000   0.000000)
  46:       770.15    0.000000  (  0.000000   0.000000   0.000000)
  47:       771.38    0.000000  (  0.000000   0.000000   0.000000)
  48:       808.09    0.000000  (  0.000000   0.000000   0.000000)
  49:       819.82    0.000000  (  0.000000   0.000000   0.000000)
  50:       827.93    0.000000  (  0.000000   0.000000   0.000000)
  51:       840.92    0.000000  (  0.000000   0.000000   0.000000)
  52:       884.03    0.000000  (  0.000000   0.000000   0.000000)
  53:       900.49    0.000000  (  0.000000   0.000000   0.000000)
  54:       906.77    0.000000  (  0.000000   0.000000   0.000000)
  55:       928.75    0.000000  (  0.000000   0.000000   0.000000)
  56:       933.23    0.000000  (  0.000000   0.000000   0.000000)
  57:       935.59    0.000000  (  0.000000   0.000000   0.000000)
  58:       945.45    0.000000  (  0.000000   0.000000   0.000000)
  59:       952.50    0.000000  (  0.000000   0.000000   0.000000)
  60:       953.94    0.000000  (  0.000000   0.000000   0.000000)
  61:       978.00    0.000000  (  0.000000   0.000000   0.000000)
  62:       994.65    0.000000  (  0.000000   0.000000   0.000000)
  63:      1013.22    0.000000  (  0.000000   0.000000   0.000000)
  64:      1027.92    0.000000  (  0.000000   0.000000   0.000000)
  65:      1042.05    0.000000  (  0.000000   0.000000   0.000000)
  66:      1069.29    0.000000  (  0.000000   0.000000   0.000000)
  67:      1071.27    0.000000  (  0.000000   0.000000   0.000000)
  68:      1088.70    0.000000  (  0.000000   0.000000   0.000000)
  69:      1092.96    0.000000  (  0.000000   0.000000   0.000000)
  70:      1094.97    0.000000  (  0.000000   0.000000   0.000000)
  71:      1110.44    0.000000  (  0.000000   0.000000   0.000000)
  72:      1120.68    0.000000  (  0.000000   0.000000   0.000000)
  73:      1128.20    0.000000  (  0.000000   0.000000   0.000000)
  74:      1139.50    0.000000  (  0.000000   0.000000   0.000000)
  75:      1154.22    0.000000  (  0.000000   0.000000   0.000000)
  76:      1156.74    0.000000  (  0.000000   0.000000   0.000000)
  77:      1176.64    0.000000  (  0.000000   0.000000   0.000000)
  78:      1185.15    0.000000  (  0.000000   0.000000   0.000000)
  79:      1195.84    0.000000  (  0.000000   0.000000   0.000000)
  80:      1196.84    0.000000  (  0.000000   0.000000   0.000000)
  81:      1219.63    0.000000  (  0.000000   0.000000   0.000000)
  82:      1235.90    0.000000  (  0.000000   0.000000   0.000000)
  83:      1247.04    0.000000  (  0.000000   0.000000   0.000000)
  84:      1254.02    0.000000  (  0.000000   0.000000   0.000000)
  85:      1269.68    0.000000  (  0.000000   0.000000   0.000000)
  86:      1275.26    0.000000  (  0.000000   0.000000   0.000000)
  87:      1276.95    0.000000  (  0.000000   0.000000   0.000000)
  88:      1278.60    0.000000  (  0.000000   0.000000   0.000000)
  89:      1281.47    0.000000  (  0.000000   0.000000   0.000000)
  90:      1283.46    0.000000  (  0.000000   0.000000   0.000000)
  91:      1286.78    0.000000  (  0.000000   0.000000   0.000000)
  92:      1293.01    0.000000  (  0.000000   0.000000   0.000000)
  93:      1313.38    0.000000  (  0.000000   0.000000   0.000000)
  94:      1341.00    0.000000  (  0.000000   0.000000   0.000000)
  95:      1351.71    0.000000  (  0.000000   0.000000   0.000000)
  96:      1372.23    0.000000  (  0.000000   0.000000   0.000000)
  97:      1373.87    0.000000  (  0.000000   0.000000   0.000000)
  98:      1414.53    0.000000  (  0.000000   0.000000   0.000000)
  99:      1418.93    0.000000  (  0.000000   0.000000   0.000000)
 100:      1426.98    0.000000  (  0.000000   0.000000   0.000000)
 101:      1428.58    0.000000  (  0.000000   0.000000   0.000000)
 102:      1446.07    0.000000  (  0.000000   0.000000   0.000000)
 103:      1456.59    0.000000  (  0.000000   0.000000   0.000000)
 104:      1466.49    0.000000  (  0.000000   0.000000   0.000000)
 105:      1470.50    0.000000  (  0.000000   0.000000   0.000000)
 106:      1481.84    0.000000  (  0.000000   0.000000   0.000000)
 107:      1494.61    0.000000  (  0.000000   0.000000   0.000000)
 108:      1499.05    0.000000  (  0.000000   0.000000   0.000000)
 109:      1502.73    0.000000  (  0.000000   0.000000   0.000000)
 110:      1503.89    0.000000  (  0.000000   0.000000   0.000000)
 111:      1506.38    0.000000  (  0.000000   0.000000   0.000000)
 112:      1506.44    0.000000  (  0.000000   0.000000   0.000000)
 113:      1510.53    0.000000  (  0.000000   0.000000   0.000000)
 114:      1511.22    0.000000  (  0.000000   0.000000   0.000000)
 115:      1556.96    0.000000  (  0.000000   0.000000   0.000000)
 116:      1565.38    0.000000  (  0.000000   0.000000   0.000000)
 117:      1573.29    0.000000  (  0.000000   0.000000   0.000000)
 118:      2181.90    0.000000  (  0.000000   0.000000   0.000000)
 119:      2652.74    0.000000  (  0.000000   0.000000   0.000000)
 120:      2940.01    0.000000  (  0.000000   0.000000   0.000000)
 121:      2944.36    0.000000  (  0.000000   0.000000   0.000000)
 122:      2945.97    0.000000  (  0.000000   0.000000   0.000000)
 123:      2955.35    0.000000  (  0.000000   0.000000   0.000000)
 124:      2956.05    0.000000  (  0.000000   0.000000   0.000000)
 125:      2966.71    0.000000  (  0.000000   0.000000   0.000000)
 126:      2973.90    0.000000  (  0.000000   0.000000   0.000000)
 127:      2975.24    0.000000  (  0.000000   0.000000   0.000000)
 128:      2975.78    0.000000  (  0.000000   0.000000   0.000000)
 129:      2980.54    0.000000  (  0.000000   0.000000   0.000000)
 130:      2981.34    0.000000  (  0.000000   0.000000   0.000000)
 131:      2984.78    0.000000  (  0.000000   0.000000   0.000000)
 132:      2986.38    0.000000  (  0.000000   0.000000   0.000000)
 133:      2989.81    0.000000  (  0.000000   0.000000   0.000000)
 134:      3000.24    0.000000  (  0.000000   0.000000   0.000000)
 135:      3000.52    0.000000  (  0.000000   0.000000   0.000000)
 136:      3017.24    0.000000  (  0.000000   0.000000   0.000000)
 137:      3025.77    0.000000  (  0.000000   0.000000   0.000000)
 138:      3044.03    0.000000  (  0.000000   0.000000   0.000000)
 139:      3048.44    0.000000  (  0.000000   0.000000   0.000000)
 140:      3053.40    0.000000  (  0.000000   0.000000   0.000000)
 141:      3065.64    0.000000  (  0.000000   0.000000   0.000000)
 142:      3073.32    0.000000  (  0.000000   0.000000   0.000000)
 143:      3091.76    0.000000  (  0.000000   0.000000   0.000000)
 144:      3359.58    0.000000  (  0.000000   0.000000   0.000000)
 145:      3396.82    0.000000  (  0.000000   0.000000   0.000000)
 146:      3608.06    0.000000  (  0.000000   0.000000   0.000000)

The first frequency considered to be a vibration is 8
The total number of vibrations considered is 139


--------------------------
THERMOCHEMISTRY AT 298.15K
--------------------------

Temperature         ... 298.15 K
Pressure            ... 1.00 atm
Total Mass          ... 270.42 AMU

Throughout the following assumptions are being made:
  (1) The electronic state is orbitally nondegenerate
  (2) There are no thermally accessible electronically excited states
  (3) Hindered rotations indicated by low frequency modes are not
      treated as such but are treated as vibrations and this may
      cause some error
  (4) All equations used are the standard statistical mechanics
      equations for an ideal gas
  (5) All vibrations are strictly harmonic

freq.      34.21  E(vib)   ...       0.54 
freq.      48.23  E(vib)   ...       0.53 
freq.      57.10  E(vib)   ...       0.51 
freq.      69.06  E(vib)   ...       0.50 
freq.      73.72  E(vib)   ...       0.49 
freq.      79.10  E(vib)   ...       0.49 
freq.      83.76  E(vib)   ...       0.48 
freq.      95.28  E(vib)   ...       0.47 
freq.     106.19  E(vib)   ...       0.45 
freq.     119.71  E(vib)   ...       0.44 
freq.     121.11  E(vib)   ...       0.44 
freq.     132.25  E(vib)   ...       0.42 
freq.     148.61  E(vib)   ...       0.41 
freq.     177.93  E(vib)   ...       0.37 
freq.     189.31  E(vib)   ...       0.36 
freq.     213.20  E(vib)   ...       0.34 
freq.     224.10  E(vib)   ...       0.33 
freq.     236.41  E(vib)   ...       0.32 
freq.     260.99  E(vib)   ...       0.30 
freq.     274.84  E(vib)   ...       0.28 
freq.     276.36  E(vib)   ...       0.28 
freq.     347.15  E(vib)   ...       0.23 
freq.     352.50  E(vib)   ...       0.22 
freq.     380.50  E(vib)   ...       0.21 
freq.     390.96  E(vib)   ...       0.20 
freq.     394.42  E(vib)   ...       0.20 
freq.     406.22  E(vib)   ...       0.19 
freq.     420.34  E(vib)   ...       0.18 
freq.     429.97  E(vib)   ...       0.18 
freq.     478.55  E(vib)   ...       0.15 
freq.     523.14  E(vib)   ...       0.13 
freq.     539.03  E(vib)   ...       0.12 
freq.     588.93  E(vib)   ...       0.10 
freq.     606.08  E(vib)   ...       0.10 
freq.     640.65  E(vib)   ...       0.09 
freq.     666.33  E(vib)   ...       0.08 
freq.     681.23  E(vib)   ...       0.08 
freq.     741.99  E(vib)   ...       0.06 
freq.     770.15  E(vib)   ...       0.05 
freq.     771.38  E(vib)   ...       0.05 
freq.     808.09  E(vib)   ...       0.05 
freq.     819.82  E(vib)   ...       0.05 
freq.     827.93  E(vib)   ...       0.04 
freq.     840.92  E(vib)   ...       0.04 
freq.     884.03  E(vib)   ...       0.04 
freq.     900.49  E(vib)   ...       0.03 
freq.     906.77  E(vib)   ...       0.03 
freq.     928.75  E(vib)   ...       0.03 
freq.     933.23  E(vib)   ...       0.03 
freq.     935.59  E(vib)   ...       0.03 
freq.     945.45  E(vib)   ...       0.03 
freq.     952.50  E(vib)   ...       0.03 
freq.     953.94  E(vib)   ...       0.03 
freq.     978.00  E(vib)   ...       0.03 
freq.     994.65  E(vib)   ...       0.02 
freq.    1013.22  E(vib)   ...       0.02 
freq.    1027.92  E(vib)   ...       0.02 
freq.    1042.05  E(vib)   ...       0.02 
freq.    1069.29  E(vib)   ...       0.02 
freq.    1071.27  E(vib)   ...       0.02 
freq.    1088.70  E(vib)   ...       0.02 
freq.    1092.96  E(vib)   ...       0.02 
freq.    1094.97  E(vib)   ...       0.02 
freq.    1110.44  E(vib)   ...       0.02 
freq.    1120.68  E(vib)   ...       0.01 
freq.    1128.20  E(vib)   ...       0.01 
freq.    1139.50  E(vib)   ...       0.01 
freq.    1154.22  E(vib)   ...       0.01 
freq.    1156.74  E(vib)   ...       0.01 
freq.    1176.64  E(vib)   ...       0.01 
freq.    1185.15  E(vib)   ...       0.01 
freq.    1195.84  E(vib)   ...       0.01 
freq.    1196.84  E(vib)   ...       0.01 
freq.    1219.63  E(vib)   ...       0.01 
freq.    1235.90  E(vib)   ...       0.01 
freq.    1247.04  E(vib)   ...       0.01 
freq.    1254.02  E(vib)   ...       0.01 
freq.    1269.68  E(vib)   ...       0.01 
freq.    1275.26  E(vib)   ...       0.01 
freq.    1276.95  E(vib)   ...       0.01 
freq.    1278.60  E(vib)   ...       0.01 
freq.    1281.47  E(vib)   ...       0.01 
freq.    1283.46  E(vib)   ...       0.01 
freq.    1286.78  E(vib)   ...       0.01 
freq.    1293.01  E(vib)   ...       0.01 
freq.    1313.38  E(vib)   ...       0.01 
freq.    1341.00  E(vib)   ...       0.01 
freq.    1351.71  E(vib)   ...       0.01 
freq.    1372.23  E(vib)   ...       0.01 
freq.    1373.87  E(vib)   ...       0.01 
freq.    1414.53  E(vib)   ...       0.00 
freq.    1418.93  E(vib)   ...       0.00 
freq.    1426.98  E(vib)   ...       0.00 
freq.    1428.58  E(vib)   ...       0.00 
freq.    1446.07  E(vib)   ...       0.00 
freq.    1456.59  E(vib)   ...       0.00 
freq.    1466.49  E(vib)   ...       0.00 
freq.    1470.50  E(vib)   ...       0.00 
freq.    1481.84  E(vib)   ...       0.00 
freq.    1494.61  E(vib)   ...       0.00 
freq.    1499.05  E(vib)   ...       0.00 
freq.    1502.73  E(vib)   ...       0.00 
freq.    1503.89  E(vib)   ...       0.00 
freq.    1506.38  E(vib)   ...       0.00 
freq.    1506.44  E(vib)   ...       0.00 
freq.    1510.53  E(vib)   ...       0.00 
freq.    1511.22  E(vib)   ...       0.00 
freq.    1556.96  E(vib)   ...       0.00 
freq.    1565.38  E(vib)   ...       0.00 
freq.    1573.29  E(vib)   ...       0.00 
freq.    2181.90  E(vib)   ...       0.00 
freq.    2652.74  E(vib)   ...       0.00 
freq.    2940.01  E(vib)   ...       0.00 
freq.    2944.36  E(vib)   ...       0.00 
freq.    2945.97  E(vib)   ...       0.00 
freq.    2955.35  E(vib)   ...       0.00 
freq.    2956.05  E(vib)   ...       0.00 
freq.    2966.71  E(vib)   ...       0.00 
freq.    2973.90  E(vib)   ...       0.00 
freq.    2975.24  E(vib)   ...       0.00 
freq.    2975.78  E(vib)   ...       0.00 
freq.    2980.54  E(vib)   ...       0.00 
freq.    2981.34  E(vib)   ...       0.00 
freq.    2984.78  E(vib)   ...       0.00 
freq.    2986.38  E(vib)   ...       0.00 
freq.    2989.81  E(vib)   ...       0.00 
freq.    3000.24  E(vib)   ...       0.00 
freq.    3000.52  E(vib)   ...       0.00 
freq.    3017.24  E(vib)   ...       0.00 
freq.    3025.77  E(vib)   ...       0.00 
freq.    3044.03  E(vib)   ...       0.00 
freq.    3048.44  E(vib)   ...       0.00 
freq.    3053.40  E(vib)   ...       0.00 
freq.    3065.64  E(vib)   ...       0.00 
freq.    3073.32  E(vib)   ...       0.00 
freq.    3091.76  E(vib)   ...       0.00 
freq.    3359.58  E(vib)   ...       0.00 
freq.    3396.82  E(vib)   ...       0.00 
freq.    3608.06  E(vib)   ...       0.00 

------------
INNER ENERGY
------------

The inner energy is: U= E(el) + E(ZPE) + E(vib) + E(rot) + E(trans)
    E(el)   - is the total energy from the electronic structure calculation
              = E(kin-el) + E(nuc-el) + E(el-el) + E(nuc-nuc)
    E(ZPE)  - the the zero temperature vibrational energy from the frequency calculation
    E(vib)  - the the finite temperature correction to E(ZPE) due to population
              of excited vibrational states
    E(rot)  - is the rotational thermal energy
    E(trans)- is the translational thermal energy

Summary of contributions to the inner energy U:
Electronic energy                ...    -61.37179955 Eh
Zero point energy                ...      0.42304762 Eh     265.47 kcal/mol
Thermal vibrational correction   ...      0.01967891 Eh      12.35 kcal/mol
Thermal rotational correction    ...      0.00141627 Eh       0.89 kcal/mol
Thermal translational correction ...      0.00141627 Eh       0.89 kcal/mol
-----------------------------------------------------------------------
Total thermal energy                    -60.92624047 Eh


Summary of corrections to the electronic energy:
(perhaps to be used in another calculation)
Total thermal correction                  0.02251146 Eh      14.13 kcal/mol
Non-thermal (ZPE) correction              0.42304762 Eh     265.47 kcal/mol
-----------------------------------------------------------------------
Total correction                          0.44555907 Eh     279.59 kcal/mol


--------
ENTHALPY
--------

The enthalpy is H = U + kB*T
                kB is Boltzmann's constant
Total free energy                 ...    -60.92624047 Eh 
Thermal Enthalpy correction       ...      0.00094421 Eh       0.59 kcal/mol
-----------------------------------------------------------------------
Total Enthalpy                    ...    -60.92529627 Eh


Note: Only C1 symmetry has been detected, increase convergence thresholds 
      if your molecule has a higher symmetry. Symmetry factor of 1.0 is   
      used for the rotational entropy correction. 
 

Note: Rotational entropy computed according to Herzberg 
Infrared and Raman Spectra, Chapter V,1, Van Nostrand Reinhold, 1945 
Point Group:  C1, Symmetry Number:   1  
Rotational constants in cm-1:     0.014964     0.007190     0.006001 

Vibrational entropy computed according to the QRRHO of S. Grimme
Chem.Eur.J. 2012 18 9955


-------
ENTROPY
-------

The entropy contributions are T*S = T*(S(el)+S(vib)+S(rot)+S(trans))
     S(el)   - electronic entropy
     S(vib)  - vibrational entropy
     S(rot)  - rotational entropy
     S(trans)- translational entropy
The entropies will be listed as mutliplied by the temperature to get
units of energy

Electronic entropy                ...      0.00000000 Eh      0.00 kcal/mol
Vibrational entropy               ...      0.03510493 Eh     22.03 kcal/mol
Rotational entropy                ...      0.01623949 Eh     10.19 kcal/mol
Translational entropy             ...      0.02028014 Eh     12.73 kcal/mol
-----------------------------------------------------------------------
Final entropy term                ...      0.07162456 Eh     44.94 kcal/mol

In case the symmetry of your molecule has not been determined correctly
or in case you have a reason to use a different symmetry number we print 
out the resulting rotational entropy values for sn=1,12 :
 --------------------------------------------------------
|  sn= 1 | S(rot)=       0.01623949 Eh     10.19 kcal/mol|
|  sn= 2 | S(rot)=       0.01558504 Eh      9.78 kcal/mol|
|  sn= 3 | S(rot)=       0.01520220 Eh      9.54 kcal/mol|
|  sn= 4 | S(rot)=       0.01493058 Eh      9.37 kcal/mol|
|  sn= 5 | S(rot)=       0.01471989 Eh      9.24 kcal/mol|
|  sn= 6 | S(rot)=       0.01454775 Eh      9.13 kcal/mol|
|  sn= 7 | S(rot)=       0.01440220 Eh      9.04 kcal/mol|
|  sn= 8 | S(rot)=       0.01427612 Eh      8.96 kcal/mol|
|  sn= 9 | S(rot)=       0.01416491 Eh      8.89 kcal/mol|
|  sn=10 | S(rot)=       0.01406543 Eh      8.83 kcal/mol|
|  sn=11 | S(rot)=       0.01397544 Eh      8.77 kcal/mol|
|  sn=12 | S(rot)=       0.01389329 Eh      8.72 kcal/mol|
 --------------------------------------------------------


-------------------
GIBBS FREE ENERGY
-------------------

The Gibbs free energy is G = H - T*S

Total enthalpy                    ...    -60.92529627 Eh 
Total entropy correction          ...     -0.07162456 Eh    -44.94 kcal/mol
-----------------------------------------------------------------------
Final Gibbs free energy         ...    -60.99692083 Eh

For completeness - the Gibbs free energy minus the electronic energy
G-E(el)                           ...      0.37487872 Eh    235.24 kcal/mol


Total Time for Numerical Frequencies  :       197.298 sec
Time for Reference State(s)           :         0.254 sec
Time for Displacements                :       180.075 sec

Timings for individual modules:

Sum of individual times         ...        0.474 sec (=   0.008 min)
XTB module                      ...        0.474 sec (=   0.008 min) 100.0 %
                             ****ORCA TERMINATED NORMALLY****
TOTAL RUN TIME: 0 days 0 hours 3 minutes 18 seconds 436 msec
(SLURM) EXECUTION TIME: 198.457944986 seconds.
