(SLURM) JOB ID:         606

                                 *****************
                                 * O   R   C   A *
                                 *****************

           --- An Ab Initio, DFT and Semiempirical electronic structure package ---

                  #######################################################
                  #                        -***-                        #
                  #          Department of theory and spectroscopy      #
                  #               Directorship: Frank Neese             #
                  #        Max Planck Institute fuer Kohlenforschung    #
                  #                Kaiser Wilhelm Platz 1               #
                  #                 D-45470 Muelheim/Ruhr               #
                  #                      Germany                        #
                  #                                                     #
                  #                  All rights reserved                #
                  #                        -***-                        #
                  #######################################################


                         Program Version 4.2.1 -  RELEASE  -


 With contributions from (in alphabetic order):
   Daniel Aravena         : Magnetic Suceptibility
   Michael Atanasov       : Ab Initio Ligand Field Theory (pilot matlab implementation)
   Alexander A. Auer      : GIAO ZORA, VPT2
   Ute Becker             : Parallelization
   Giovanni Bistoni       : ED, misc. LED, open-shell LED, HFLD
   Martin Brehm           : Molecular dynamics
   Dmytro Bykov           : SCF Hessian
   Vijay G. Chilkuri      : MRCI spin determinant printing, contributions to CSF-ICE
   Dipayan Datta          : RHF DLPNO-CCSD density
   Achintya Kumar Dutta   : EOM-CC, STEOM-CC
   Dmitry Ganyushin       : Spin-Orbit,Spin-Spin,Magnetic field MRCI
   Miquel Garcia          : C-PCM Hessian, Gaussian charge scheme
   Yang Guo               : DLPNO-NEVPT2, CIM, IAO-localization
   Andreas Hansen         : Spin unrestricted coupled pair/coupled cluster methods
   Benjamin Helmich-Paris : CASSCF linear response (MC-RPA)
   Lee Huntington         : MR-EOM, pCC
   Robert Izsak           : Overlap fitted RIJCOSX, COSX-SCS-MP3, EOM
   Christian Kollmar      : KDIIS, OOCD, Brueckner-CCSD(T), CCSD density
   Simone Kossmann        : Meta GGA functionals, TD-DFT gradient, OOMP2, MP2 Hessian
   Martin Krupicka        : AUTO-CI
   Lucas Lang             : DCDCAS
   Dagmar Lenk            : GEPOL surface, SMD
   Dimitrios Liakos       : Extrapolation schemes; Compound Job, initial MDCI parallelization
   Dimitrios Manganas     : Further ROCIS development; embedding schemes
   Dimitrios Pantazis     : SARC Basis sets
   Taras Petrenko         : DFT Hessian,TD-DFT gradient, ASA, ECA, R-Raman, ABS, FL, XAS/XES, NRVS
   Peter Pinski           : DLPNO-MP2, DLPNO-MP2 Gradient
   Christoph Reimann      : Effective Core Potentials
   Marius Retegan         : Local ZFS, SOC
   Christoph Riplinger    : Optimizer, TS searches, QM/MM, DLPNO-CCSD(T), (RO)-DLPNO pert. Triples
   Tobias Risthaus        : Range-separated hybrids, TD-DFT gradient, RPA, STAB
   Michael Roemelt        : Original ROCIS implementation
   Masaaki Saitow         : Open-shell DLPNO-CCSD energy and density
   Barbara Sandhoefer     : DKH picture change effects
   Avijit Sen             : IP-ROCIS
   Kantharuban Sivalingam : CASSCF convergence, NEVPT2, FIC-MRCI
   Bernardo de Souza      : ESD, SOC TD-DFT
   Georgi Stoychev        : AutoAux, RI-MP2 NMR
   Willem Van den Heuvel  : Paramagnetic NMR
   Boris Wezisla          : Elementary symmetry handling
   Frank Wennmohs         : Technical directorship


 We gratefully acknowledge several colleagues who have allowed us to
 interface, adapt or use parts of their codes:
   Stefan Grimme, W. Hujo, H. Kruse,             : VdW corrections, initial TS optimization,
                  C. Bannwarth                     DFT functionals, gCP, sTDA/sTD-DF
   Ed Valeev, F. Pavosevic, A. Kumar             : LibInt (2-el integral package), F12 methods
   Garnet Chan, S. Sharma, J. Yang, R. Olivares  : DMRG
   Ulf Ekstrom                                   : XCFun DFT Library
   Mihaly Kallay                                 : mrcc  (arbitrary order and MRCC methods)
   Andreas Klamt, Michael Diedenhofen            : otool_cosmo (COSMO solvation model)
   Jiri Pittner, Ondrej Demel                    : Mk-CCSD
   Frank Weinhold                                : gennbo (NPA and NBO analysis)
   Christopher J. Cramer and Donald G. Truhlar   : smd solvation model
   Lars Goerigk                                  : TD-DFT with DH, B97 family of functionals
   V. Asgeirsson, H. Jonsson                     : NEB implementation
   FAccTs GmbH                                   : IRC, NEB, NEB-TS, Multilevel, MM, QM/MM, CI optimization
   S Lehtola, MJT Oliveira, MAL Marques          : LibXC Library


 Your calculation uses the libint2 library for the computation of 2-el integrals
 For citations please refer to: http://libint.valeyev.net

 Your ORCA version has been built with support for libXC version: 4.2.3
 For citations please refer to: https://tddft.org/programs/libxc/

 This ORCA versions uses:
   CBLAS   interface :  Fast vector & matrix operations
   LAPACKE interface :  Fast linear algebra routines
   SCALAPACK package :  Parallel linear algebra routines




***************************************
The coordinates will be read from file: init.xyz
***************************************


Your calculation utilizes the SMD solvation module
Please cite in your paper:
A.V. Marenich, C.J. Cramer, D.G. Truhlar J. Phys. Chem. B, 113, (2009), 6378 

Your calculation utilizes the semiempirical GFN2-xTB method
Please cite in your paper:
C. Bannwarth, Ehlert S., S. Grimme,  J. Chem. Theory Comput., 15, (2019), 1652.
   

----- Orbital basis set information -----
Your calculation utilizes the basis: def2-SVP
   F. Weigend and R. Ahlrichs, Phys. Chem. Chem. Phys. 7, 3297 (2005).

================================================================================
                                        WARNINGS
                       Please study these warnings very carefully!
================================================================================

WARNING: Gradients needed for Numerical Frequencies
  ===> : Setting RunTyp to EnGrad

WARNING: The environment variable RSH_COMMAND is not set!
  ===> : All Displacements for the Numerical Hessian calculation
         will be started on localhost

WARNING: Found dipole moment calculation with XTB calculation
  ===> : Switching off dipole moment calculation


INFO   : the flag for use of LIBINT has been found!

================================================================================
                                       INPUT FILE
================================================================================
NAME = /tmp/slurm-scratch/freq.606/freq.inp
|  1> ! XTB2 NumFreq
|  2> %maxcore 1450
|  3> 
|  4> * xyzfile 0 1 init.xyz
|  5> 
|  6> %cpcm
|  7>  smd true
|  8>  smdsolvent "ch2cl2"
|  9> end
| 10> %pal nprocs 9 end
| 11> 
| 12>                          ****END OF INPUT****
================================================================================

                     *******************************
                     * Energy+Gradient Calculation *
                     *******************************

      -----------------------------------------------------------      
     |                   =====================                   |     
     |                           x T B                           |     
     |                   =====================                   |     
     |                         S. Grimme                         |     
     |          Mulliken Center for Theoretical Chemistry        |     
     |                    University of Bonn                     |     
      -----------------------------------------------------------      

   * xtb version 6.3.2 (30e43eb) compiled by 'schneider@apollo14' on 2020-08-08

   xtb is free software: you can redistribute it and/or modify it under
   the terms of the GNU Lesser General Public License as published by
   the Free Software Foundation, either version 3 of the License, or
   (at your option) any later version.
   
   xtb is distributed in the hope that it will be useful,
   but WITHOUT ANY WARRANTY; without even the implied warranty of
   MERCHANTABILITY or FITNESS FOR A PARTICULAR PURPOSE.  See the
   GNU Lesser General Public License for more details.
   
   Cite this work as:
   * S. Grimme, C. Bannwarth, P. Shushkov, J. Chem. Theory Comput., 2017,
     13, 1989-2009. DOI: 10.1021/acs.jctc.7b00118
   * C. Bannwarth, S. Ehlert and S. Grimme., J. Chem. Theory Comput., 2019,
     15, 1652-1671. DOI: 10.1021/acs.jctc.8b01176
   * P. Pracht, E. Caldeweyher, S. Ehlert, S. Grimme, ChemRxiv, 2019, preprint.
     DOI: 10.26434/chemrxiv.8326202.v1
   
   for GFN-FF:
   * S. Spicher and S. Grimme, Angew. Chem. Int. Ed., 2020,
     DOI: 10.1002/anie.202004239
   
   for DFT-D4:
   * E. Caldeweyher, C. Bannwarth and S. Grimme, J. Chem. Phys., 2017,
     147, 034112. DOI: 10.1063/1.4993215
   * E. Caldeweyher, S. Ehlert, A. Hansen, H. Neugebauer, S. Spicher,
     C. Bannwarth and S. Grimme, J. Chem. Phys., 2019, 150, 154122.
     DOI: 10.1063/1.5090222
   
   for sTDA-xTB:
   * S. Grimme and C. Bannwarth, J. Chem. Phys., 2016, 145, 054103.
     DOI: 10.1063/1.4959605
   
   in the mass-spec context:
   * V. Asgeirsson, C. Bauer and S. Grimme, Chem. Sci., 2017, 8, 4879.
     DOI: 10.1039/c7sc00601b
   * J. Koopman and S. Grimme, ACS Omega 2019, 4, 12, 15120-15133.
     DOI: 10.1021/acsomega.9b02011
   
   for metadynamics refer to:
   * S. Grimme, J. Chem. Theory Comput., 2019, 155, 2847-2862
     DOI: 10.1021/acs.jctc.9b00143
   
   with help from (in alphabetical order)
   C. Bannwarth, F. Bohle, G. Brandenburg, E. Caldeweyher, M. Checinski,
   S. Dohm, S. Ehlert, S. Ehrlich, F. März, H. Neugebauer, J. Pisarek,
   P. Pracht, P. Shushkov, and S. Spicher.
   
 * started run on 2020/12/21 at 21:23:41.264     

           -------------------------------------------------
          |                Calculation Setup                |
           -------------------------------------------------

          program call               : /opt/orca/otool_xtb /tmp/slurm-scratch/freq.606/freq_XTB.xyz --grad -c 0 -u 0 -P 9 --namespace /tmp/slurm-scratch/freq.606/freq --gbsa CH2Cl2
          hostname                   : apollo14
          calculation namespace      : /tmp/slurm-scratch/freq.606/freq
          coordinate file            : /tmp/slurm-scratch/freq.606/freq_XTB.xyz
          omp threads                :                     9
          number of atoms            :                    49
          number of electrons        :                   112
          charge                     :                     0
          spin                       :                   0.0
          first test random number   :      0.27513504816504

   ID    Z sym.   atoms
    1    6 C      1-7, 12, 14, 28, 31, 36, 39, 42, 45
    2    1 H      8-10, 13, 15-18, 21-27, 29, 30, 32-35, 37, 38, 40, 41, 43,
                  44, 46-48
    3    7 N      11, 49
    4    8 O      19, 20

molecular fragmentation (1/2 indicates fragments):
1111111111111111111222211111111111222222222222222
# atoms in fragment 1/2:    30    19
 fragment masses (1/2) :      179.26       91.15
CMA distance (Bohr)    :   6.036
constraining FC (au)   :  0.0500
########################################################################
[WARNING] Please study the warnings concerning your input carefully
-1- prog_main_parseArguments: Process number higher than OMP_NUM_THREADS, I hope you know what you are doing.
########################################################################

           -------------------------------------------------
          |                 G F N 2 - x T B                 |
           -------------------------------------------------

        Reference                      10.1021/acs.jctc.8b01176
      * Hamiltonian:
        H0-scaling (s, p, d)           1.850000    2.230000    2.230000
        zeta-weighting                 0.500000
      * Dispersion:
        s8                             2.700000
        a1                             0.520000
        a2                             5.000000
        s9                             5.000000
      * Repulsion:
        kExp                           1.500000    1.000000
        rExp                           1.000000
      * Coulomb:
        alpha                          2.000000
        third order                    shell-resolved
        anisotropic                    true
        a3                             3.000000
        a5                             4.000000
        cn-shift                       1.200000
        cn-exp                         4.000000
        max-rad                        5.000000

      * Solvation model:               GBSA
        Solvent                        CH2Cl2
        Parameter file                 internal GFN2-xTB/GBSA
        Dielectric constant                8.9300E+00
        Reference state                gsolv [1 M gas/solution]
        Free energy shift                  4.4408E-03 Eh       2.7867E+00 kcal/mol
        Temperature                        2.9815E+02 K
        Density                            1.3300E+00 kg/L
        Solvent mass                       8.4930E+01 g/mol
        Interaction kernel             Still
        Born radius scaling (c1)           1.4917E+00
        Born radii integrator          GBOBC
        Born offset                        0.0000E+00 a0       0.0000E+00 AA
        H-bond correction              false
        Ion screening                  false
        Surface tension                    1.0000E-05 Eh       1.5569E+01 dyn/cm
        Grid points                               230 per atom

          ...................................................
          :                      SETUP                      :
          :.................................................:
          :  # basis functions                 106          :
          :  # atomic orbitals                 106          :
          :  # shells                           68          :
          :  # electrons                       112          :
          :  max. iterations                   250          :
          :  Hamiltonian                  GFN2-xTB          :
          :  restarted?                      false          :
          :  GBSA solvation                   true          :
          :  PC potential                    false          :
          :  electronic temp.          300.0000000     K    :
          :  accuracy                    1.0000000          :
          :  -> integral cutoff          0.2500000E+02      :
          :  -> integral neglect         0.1000000E-07      :
          :  -> SCF convergence          0.1000000E-05 Eh   :
          :  -> wf. convergence          0.1000000E-03 e    :
          :  Broyden damping             0.4000000          :
          ...................................................

 iter      E             dE          RMSdq      gap      omega  full diag
   1    -62.0550577 -0.620551E+02  0.352E+00    3.78       0.0  T
   2    -62.1774755 -0.122418E+00  0.196E+00    3.59       1.0  T
   3    -62.1809725 -0.349698E-02  0.857E-01    2.96       1.0  T
   4    -62.1818875 -0.914965E-03  0.350E-01    2.85       1.0  T
   5    -62.1864840 -0.459651E-02  0.809E-02    2.98       1.0  T
   6    -62.1865355 -0.514862E-04  0.380E-02    3.02       1.0  T
   7    -62.1865495 -0.140139E-04  0.157E-02    3.03       1.0  T
   8    -62.1865520 -0.257429E-05  0.605E-03    3.03       2.4  T
   9    -62.1865526 -0.604046E-06  0.254E-03    3.03       5.6  T
  10    -62.1865527 -0.391219E-07  0.116E-03    3.03      12.3  T
  11    -62.1865527 -0.104363E-07  0.612E-04    3.03      23.3  T
  12    -62.1865527 -0.459871E-08  0.143E-04    3.03      99.8  T

   *** convergence criteria satisfied after 12 iterations ***

         #    Occupation            Energy/Eh            Energy/eV
      -------------------------------------------------------------
         1        2.0000           -0.6738273             -18.3358
       ...           ...                  ...                  ...
        50        2.0000           -0.4257304             -11.5847
        51        2.0000           -0.4197458             -11.4219
        52        2.0000           -0.4099709             -11.1559
        53        2.0000           -0.4041251             -10.9968
        54        2.0000           -0.4000112             -10.8849
        55        2.0000           -0.3517814              -9.5725
        56        2.0000           -0.3395638              -9.2400 (HOMO)
        57                         -0.2282219              -6.2102 (LUMO)
        58                         -0.2250018              -6.1226
        59                         -0.1032579              -2.8098
        60                         -0.0597685              -1.6264
        61                         -0.0246966              -0.6720
       ...                                ...                  ...
       106                          0.6439666              17.5232
      -------------------------------------------------------------
                  HL-Gap            0.1113419 Eh            3.0298 eV
             Fermi-level           -0.2838928 Eh           -7.7251 eV

 SCC (total)                   0 d,  0 h,  0 min,  0.136 sec
 SCC setup                      ...        0 min,  0.006 sec (  4.158%)
 Dispersion                     ...        0 min,  0.003 sec (  2.014%)
 classical contributions        ...        0 min,  0.006 sec (  4.128%)
 integral evaluation            ...        0 min,  0.019 sec ( 13.934%)
 iterations                     ...        0 min,  0.062 sec ( 45.369%)
 molecular gradient             ...        0 min,  0.041 sec ( 30.149%)
 printout                       ...        0 min,  0.000 sec (  0.229%)

         :::::::::::::::::::::::::::::::::::::::::::::::::::::
         ::                     SUMMARY                     ::
         :::::::::::::::::::::::::::::::::::::::::::::::::::::
         :: total energy             -61.372126852773 Eh    ::
         :: total w/o Gsasa/hb       -61.350364751309 Eh    ::
         :: gradient norm              0.034384169962 Eh/a0 ::
         :: HOMO-LUMO gap              3.029766479715 eV    ::
         ::.................................................::
         :: SCC energy               -62.186552698054 Eh    ::
         :: -> isotropic ES            0.153023608583 Eh    ::
         :: -> anisotropic ES         -0.004964823967 Eh    ::
         :: -> anisotropic XC          0.029274219384 Eh    ::
         :: -> dispersion             -0.044856957665 Eh    ::
         :: -> Gsolv                  -0.044169711620 Eh    ::
         ::    -> Gborn               -0.022407610156 Eh    ::
         ::    -> Gsasa               -0.026202930638 Eh    ::
         ::    -> Ghb                  0.000000000000 Eh    ::
         ::    -> Gshift               0.004440829173 Eh    ::
         :: repulsion energy           0.813230382482 Eh    ::
         :: add. restraining           0.000000000000 Eh    ::
         :: total charge               0.000000000000 e     ::
         :::::::::::::::::::::::::::::::::::::::::::::::::::::

           -------------------------------------------------
          |                Property Printout                |
           -------------------------------------------------

    * Orbital Energies and Occupations

         #    Occupation            Energy/Eh            Energy/eV
      -------------------------------------------------------------
         1        2.0000           -0.6738273             -18.3358
       ...           ...                  ...                  ...
        44        2.0000           -0.4456464             -12.1267
        45        2.0000           -0.4430450             -12.0559
        46        2.0000           -0.4411931             -12.0055
        47        2.0000           -0.4297596             -11.6944
        48        2.0000           -0.4285195             -11.6606
        49        2.0000           -0.4276649             -11.6374
        50        2.0000           -0.4257304             -11.5847
        51        2.0000           -0.4197458             -11.4219
        52        2.0000           -0.4099709             -11.1559
        53        2.0000           -0.4041251             -10.9968
        54        2.0000           -0.4000112             -10.8849
        55        2.0000           -0.3517814              -9.5725
        56        2.0000           -0.3395638              -9.2400 (HOMO)
        57                         -0.2282219              -6.2102 (LUMO)
        58                         -0.2250018              -6.1226
        59                         -0.1032579              -2.8098
        60                         -0.0597685              -1.6264
        61                         -0.0246966              -0.6720
        62                          0.0325376               0.8854
        63                          0.0449454               1.2230
        64                          0.0640552               1.7430
        65                          0.0672492               1.8299
        66                          0.0815020               2.2178
        67                          0.0921283               2.5069
       ...                                ...                  ...
       106                          0.6439666              17.5232
      -------------------------------------------------------------
                  HL-Gap            0.1113419 Eh            3.0298 eV
             Fermi-level           -0.2838928 Eh           -7.7251 eV

     #   Z          covCN         q      C6AA      α(0)
     1   6 C        2.962    -0.031    28.761     8.796
     2   6 C        2.919    -0.046    29.143     8.853
     3   6 C        2.914    -0.033    28.831     8.805
     4   6 C        2.915    -0.035    28.877     8.812
     5   6 C        2.914    -0.034    28.854     8.808
     6   6 C        2.920    -0.032    28.787     8.798
     7   6 C        3.652     0.215    17.499     6.007
     8   1 H        0.925     0.018     2.764     2.600
     9   1 H        0.926     0.044     2.397     2.421
    10   1 H        0.925     0.038     2.472     2.459
    11   7 N        3.158    -0.248    26.445     7.638
    12   6 C        3.734     0.011    20.482     6.459
    13   1 H        1.193     0.246     0.888     1.471
    14   6 C        3.802    -0.072    21.879     6.660
    15   1 H        0.924     0.041     2.438     2.442
    16   1 H        0.924     0.041     2.435     2.441
    17   1 H        0.925     0.056     2.249     2.345
    18   1 H        0.924     0.039     2.469     2.457
    19   8 O        0.872    -0.727    29.441     7.275
    20   8 O        1.593    -0.672    26.983     7.010
    21   1 H        0.805     0.327     0.645     1.262
    22   1 H        0.805     0.266     0.833     1.434
    23   1 H        0.859     0.237     0.937     1.517
    24   1 H        0.921    -0.047     4.030     3.139
    25   1 H        0.860     0.167     1.294     1.782
    26   1 H        0.925     0.039     2.456     2.451
    27   1 H        0.925     0.035     2.521     2.483
    28   6 C        3.800    -0.054    21.548     6.609
    29   1 H        0.924     0.037     2.487     2.466
    30   1 H        0.924     0.032     2.558     2.501
    31   6 C        3.750    -0.106    22.581     6.777
    32   1 H        0.924     0.036     2.508     2.476
    33   1 H        0.924     0.040     2.448     2.447
    34   1 H        0.924     0.040     2.444     2.445
    35   1 H        0.860     0.200     1.107     1.648
    36   6 C        3.732    -0.012    20.879     6.522
    37   1 H        0.925     0.065     2.145     2.290
    38   1 H        0.924     0.064     2.149     2.293
    39   6 C        3.802    -0.073    21.904     6.663
    40   1 H        0.924     0.043     2.404     2.425
    41   1 H        0.924     0.054     2.269     2.355
    42   6 C        3.801    -0.057    21.600     6.617
    43   1 H        0.924     0.038     2.470     2.458
    44   1 H        0.924     0.042     2.420     2.433
    45   6 C        3.750    -0.106    22.589     6.778
    46   1 H        0.924     0.037     2.486     2.466
    47   1 H        0.924     0.040     2.442     2.444
    48   1 H        0.924     0.041     2.442     2.444
    49   7 N        3.327    -0.243    26.322     7.620

 Mol. C6AA /au·bohr⁶  :      19025.032844
 Mol. C8AA /au·bohr⁸  :     412993.225736
 Mol. α(0) /au        :        209.802416


Wiberg/Mayer (AO) data.
largest (>0.10) Wiberg bond orders for each atom

 ---------------------------------------------------------------------------
     #   Z sym  total        # sym  WBO       # sym  WBO       # sym  WBO
 ---------------------------------------------------------------------------
     1   6 C    3.982 --     6 C    1.423     2 C    1.407     7 C    0.947
                             4 C    0.111
     2   6 C    3.991 --     3 C    1.450     1 C    1.407     8 H    0.965
                             5 C    0.112
     3   6 C    3.991 --     2 C    1.450     4 C    1.430    26 H    0.971
                             6 C    0.110
     4   6 C    3.991 --     5 C    1.445     3 C    1.430    10 H    0.971
                             1 C    0.111
     5   6 C    3.991 --     4 C    1.445     6 C    1.434    27 H    0.971
                             2 C    0.112
     6   6 C    3.990 --     5 C    1.434     1 C    1.423     9 H    0.964
                             3 C    0.110
     7   6 C    3.958 --    19 O    1.188     1 C    0.947    24 H    0.929
                            11 N    0.839
     8   1 H    1.000 --     2 C    0.965
     9   1 H    0.998 --     6 C    0.964
    10   1 H    0.998 --     4 C    0.971
    11   7 N    3.449 --    12 C    0.984    25 H    0.946     7 C    0.839
                            13 H    0.403    49 N    0.134
    12   6 C    3.969 --    14 C    1.007    11 N    0.984    15 H    0.976
                            16 H    0.969
    13   1 H    0.940 --    49 N    0.512    11 N    0.403
    14   6 C    3.993 --    12 C    1.007    28 C    1.006    18 H    0.974
                            17 H    0.971
    15   1 H    0.998 --    12 C    0.976
    16   1 H    0.998 --    12 C    0.969
    17   1 H    0.997 --    14 C    0.971
    18   1 H    0.998 --    14 C    0.974
    19   8 O    1.594 --     7 C    1.188    21 H    0.156
    20   8 O    1.813 --    22 H    0.925    21 H    0.727
    21   1 H    0.893 --    20 O    0.727    19 O    0.156
    22   1 H    0.929 --    20 O    0.925
    23   1 H    0.944 --    49 N    0.875
    24   1 H    0.998 --     7 C    0.929
    25   1 H    0.972 --    11 N    0.946
    26   1 H    0.998 --     3 C    0.971
    27   1 H    0.998 --     5 C    0.971
    28   6 C    3.996 --    31 C    1.019    14 C    1.006    30 H    0.978
                            29 H    0.977
    29   1 H    0.999 --    28 C    0.977
    30   1 H    0.999 --    28 C    0.978
    31   6 C    3.996 --    28 C    1.019    32 H    0.988    34 H    0.987
                            33 H    0.987
    32   1 H    0.999 --    31 C    0.988
    33   1 H    0.998 --    31 C    0.987
    34   1 H    0.998 --    31 C    0.987
    35   1 H    0.960 --    49 N    0.944
    36   6 C    3.953 --    39 C    1.008    49 N    0.981    38 H    0.972
                            37 H    0.969
    37   1 H    0.996 --    36 C    0.969
    38   1 H    0.996 --    36 C    0.972
    39   6 C    3.992 --    36 C    1.008    42 C    1.005    41 H    0.974
                            40 H    0.973
    40   1 H    0.998 --    39 C    0.973
    41   1 H    0.997 --    39 C    0.974
    42   6 C    3.995 --    45 C    1.020    39 C    1.005    44 H    0.977
                            43 H    0.977
    43   1 H    0.999 --    42 C    0.977
    44   1 H    0.998 --    42 C    0.977
    45   6 C    3.995 --    42 C    1.020    46 H    0.987    48 H    0.987
                            47 H    0.987
    46   1 H    0.999 --    45 C    0.987
    47   1 H    0.998 --    45 C    0.987
    48   1 H    0.998 --    45 C    0.987
    49   7 N    3.515 --    36 C    0.981    35 H    0.944    23 H    0.875
                            13 H    0.512    11 N    0.134
 ---------------------------------------------------------------------------

Topologies differ in total number of bonds
Writing topology from bond orders to xtbtopo.mol

molecular dipole:
                 x           y           z       tot (Debye)
 q only:        0.400       0.682       3.950
   full:        0.524       1.018       3.763       9.998
molecular quadrupole (traceless):
                xx          xy          yy          xz          yz          zz
 q only:        8.318       1.618      -8.213      12.703      -5.459      -0.104
  q+dip:        7.286       2.505      -4.761      13.163      -5.858      -2.526
   full:        7.640       1.611      -5.951      13.608      -6.488      -1.689


           -------------------------------------------------
          | TOTAL ENERGY              -61.372126852773 Eh   |
          | GRADIENT NORM               0.034384169962 Eh/α |
          | HOMO-LUMO GAP               3.029766479715 eV   |
           -------------------------------------------------

------------------------------------------------------------------------
 * finished run on 2020/12/21 at 21:23:41.474     
------------------------------------------------------------------------
 total:
 * wall-time:     0 d,  0 h,  0 min,  0.210 sec
 *  cpu-time:     0 d,  0 h,  0 min,  2.463 sec
 * ratio c/w:    11.722 speedup
 SCF:
 * wall-time:     0 d,  0 h,  0 min,  0.139 sec
 *  cpu-time:     0 d,  0 h,  0 min,  1.636 sec
 * ratio c/w:    11.808 speedup


-------------------------   --------------------
FINAL SINGLE POINT ENERGY       -61.372126852770
-------------------------   --------------------


----------------------------------------------------------------------------
                           ORCA NUMERICAL FREQUENCIES
                              (9-process run)
----------------------------------------------------------------------------

Number of atoms                ... 49
Central differences            ... used
Number of displacements        ... 294
Numerical increment            ... 5.000e-03 bohr
IR-spectrum generation         ... on
Raman-spectrum generation      ... off
Surface Crossing Hessian       ... off
List of participating nodes    ...  /tmp/slurm-scratch/freq.606/freq.hostnames

The output will be reduced. Please look at the following files:
SCF program output             ... >/tmp/slurm-scratch/freq.606/freq.lastscf
Integral program output        ... >/tmp/slurm-scratch/freq.606/freq.lastint
Gradient program output        ... >/tmp/slurm-scratch/freq.606/freq.lastgrad
Dipole moment program output   ... >/tmp/slurm-scratch/freq.606/freq.lastmom
AutoCI program output          ... >/tmp/slurm-scratch/freq.606/freq.lastautoci


         <<< Energy and Gradient at the input geometry >>>

        <<< Energy and Gradient at displaced geometries >>>
             <<<Displacing   1/coordinate 1 (+)>>>
             <<<Displacing   3/coordinate 1 (+)>>>
             <<<Displacing   3/coordinate 3 (+)>>>
             <<<Displacing   1/coordinate 3 (+)>>>
             <<<Displacing   1/coordinate 2 (+)>>>
             <<<Displacing   2/coordinate 3 (+)>>>
             <<<Displacing   3/coordinate 1 (-)>>>
             <<<Displacing   2/coordinate 3 (-)>>>
             <<<Displacing   1/coordinate 1 (-)>>>
             <<<Displacing   1/coordinate 2 (-)>>>
             <<<Displacing   3/coordinate 3 (-)>>>
             <<<Displacing   2/coordinate 2 (+)>>>
             <<<Displacing   1/coordinate 3 (-)>>>
             <<<Displacing   2/coordinate 1 (+)>>>
             <<<Displacing   3/coordinate 2 (+)>>>
             <<<Displacing   2/coordinate 2 (-)>>>
             <<<Displacing   2/coordinate 1 (-)>>>
             <<<Displacing   3/coordinate 2 (-)>>>
             <<<Displacing   5/coordinate 1 (+)>>>
             <<<Displacing   5/coordinate 2 (+)>>>
             <<<Displacing   5/coordinate 1 (-)>>>
             <<<Displacing   4/coordinate 3 (+)>>>
             <<<Displacing   4/coordinate 2 (+)>>>
             <<<Displacing   5/coordinate 2 (-)>>>
             <<<Displacing   4/coordinate 1 (+)>>>
             <<<Displacing   6/coordinate 1 (+)>>>
             <<<Displacing   6/coordinate 2 (+)>>>
             <<<Displacing   4/coordinate 3 (-)>>>
             <<<Displacing   5/coordinate 3 (+)>>>
             <<<Displacing   6/coordinate 2 (-)>>>
             <<<Displacing   4/coordinate 1 (-)>>>
             <<<Displacing   4/coordinate 2 (-)>>>
             <<<Displacing   6/coordinate 1 (-)>>>
             <<<Displacing   5/coordinate 3 (-)>>>
             <<<Displacing   6/coordinate 3 (+)>>>
             <<<Displacing   6/coordinate 3 (-)>>>
             <<<Displacing   7/coordinate 2 (+)>>>
             <<<Displacing   7/coordinate 1 (+)>>>
             <<<Displacing   8/coordinate 2 (+)>>>
             <<<Displacing   7/coordinate 1 (-)>>>
             <<<Displacing   7/coordinate 2 (-)>>>
             <<<Displacing   8/coordinate 2 (-)>>>
             <<<Displacing   7/coordinate 3 (+)>>>
             <<<Displacing   8/coordinate 3 (+)>>>
             <<<Displacing   7/coordinate 3 (-)>>>
             <<<Displacing   9/coordinate 2 (+)>>>
             <<<Displacing   8/coordinate 1 (+)>>>
             <<<Displacing   8/coordinate 3 (-)>>>
             <<<Displacing   9/coordinate 2 (-)>>>
             <<<Displacing   8/coordinate 1 (-)>>>
             <<<Displacing   9/coordinate 1 (+)>>>
             <<<Displacing   9/coordinate 1 (-)>>>
             <<<Displacing   9/coordinate 3 (+)>>>
             <<<Displacing   9/coordinate 3 (-)>>>
             <<<Displacing  10/coordinate 3 (+)>>>
             <<<Displacing  10/coordinate 1 (+)>>>
             <<<Displacing  10/coordinate 1 (-)>>>
             <<<Displacing  10/coordinate 3 (-)>>>
             <<<Displacing  10/coordinate 2 (+)>>>
             <<<Displacing  11/coordinate 1 (+)>>>
             <<<Displacing  10/coordinate 2 (-)>>>
             <<<Displacing  11/coordinate 1 (-)>>>
             <<<Displacing  11/coordinate 3 (+)>>>
             <<<Displacing  11/coordinate 2 (+)>>>
             <<<Displacing  11/coordinate 3 (-)>>>
             <<<Displacing  12/coordinate 1 (+)>>>
             <<<Displacing  11/coordinate 2 (-)>>>
             <<<Displacing  12/coordinate 1 (-)>>>
             <<<Displacing  12/coordinate 2 (+)>>>
             <<<Displacing  12/coordinate 2 (-)>>>
             <<<Displacing  12/coordinate 3 (+)>>>
             <<<Displacing  12/coordinate 3 (-)>>>
             <<<Displacing  13/coordinate 1 (+)>>>
             <<<Displacing  14/coordinate 1 (+)>>>
             <<<Displacing  13/coordinate 1 (-)>>>
             <<<Displacing  13/coordinate 2 (+)>>>
             <<<Displacing  14/coordinate 1 (-)>>>
             <<<Displacing  13/coordinate 3 (+)>>>
             <<<Displacing  13/coordinate 2 (-)>>>
             <<<Displacing  13/coordinate 3 (-)>>>
             <<<Displacing  14/coordinate 2 (+)>>>
             <<<Displacing  15/coordinate 1 (+)>>>
             <<<Displacing  14/coordinate 3 (+)>>>
             <<<Displacing  14/coordinate 2 (-)>>>
             <<<Displacing  15/coordinate 1 (-)>>>
             <<<Displacing  14/coordinate 3 (-)>>>
             <<<Displacing  15/coordinate 2 (+)>>>
             <<<Displacing  15/coordinate 2 (-)>>>
             <<<Displacing  15/coordinate 3 (+)>>>
             <<<Displacing  16/coordinate 1 (+)>>>
             <<<Displacing  15/coordinate 3 (-)>>>
             <<<Displacing  16/coordinate 1 (-)>>>
             <<<Displacing  17/coordinate 1 (+)>>>
             <<<Displacing  16/coordinate 2 (+)>>>
             <<<Displacing  16/coordinate 2 (-)>>>
             <<<Displacing  16/coordinate 3 (+)>>>
             <<<Displacing  17/coordinate 1 (-)>>>
             <<<Displacing  17/coordinate 3 (+)>>>
             <<<Displacing  16/coordinate 3 (-)>>>
             <<<Displacing  17/coordinate 3 (-)>>>
             <<<Displacing  17/coordinate 2 (+)>>>
             <<<Displacing  18/coordinate 1 (+)>>>
             <<<Displacing  17/coordinate 2 (-)>>>
             <<<Displacing  18/coordinate 1 (-)>>>
             <<<Displacing  18/coordinate 2 (+)>>>
             <<<Displacing  18/coordinate 2 (-)>>>
             <<<Displacing  18/coordinate 3 (+)>>>
             <<<Displacing  19/coordinate 1 (+)>>>
             <<<Displacing  18/coordinate 3 (-)>>>
             <<<Displacing  19/coordinate 1 (-)>>>
             <<<Displacing  19/coordinate 3 (+)>>>
             <<<Displacing  19/coordinate 3 (-)>>>
             <<<Displacing  19/coordinate 2 (+)>>>
             <<<Displacing  20/coordinate 2 (+)>>>
             <<<Displacing  19/coordinate 2 (-)>>>
             <<<Displacing  20/coordinate 2 (-)>>>
             <<<Displacing  21/coordinate 1 (+)>>>
             <<<Displacing  21/coordinate 1 (-)>>>
             <<<Displacing  20/coordinate 3 (+)>>>
             <<<Displacing  20/coordinate 1 (+)>>>
             <<<Displacing  20/coordinate 3 (-)>>>
             <<<Displacing  20/coordinate 1 (-)>>>
             <<<Displacing  21/coordinate 2 (+)>>>
             <<<Displacing  21/coordinate 2 (-)>>>
             <<<Displacing  21/coordinate 3 (+)>>>
             <<<Displacing  22/coordinate 1 (+)>>>
             <<<Displacing  21/coordinate 3 (-)>>>
             <<<Displacing  22/coordinate 1 (-)>>>
             <<<Displacing  22/coordinate 2 (+)>>>
             <<<Displacing  22/coordinate 3 (+)>>>
             <<<Displacing  22/coordinate 2 (-)>>>
             <<<Displacing  22/coordinate 3 (-)>>>
             <<<Displacing  23/coordinate 1 (+)>>>
             <<<Displacing  23/coordinate 2 (+)>>>
             <<<Displacing  23/coordinate 3 (+)>>>
             <<<Displacing  23/coordinate 1 (-)>>>
             <<<Displacing  23/coordinate 2 (-)>>>
             <<<Displacing  23/coordinate 3 (-)>>>
             <<<Displacing  24/coordinate 1 (+)>>>
             <<<Displacing  24/coordinate 1 (-)>>>
             <<<Displacing  24/coordinate 2 (+)>>>
             <<<Displacing  24/coordinate 2 (-)>>>
             <<<Displacing  25/coordinate 2 (+)>>>
             <<<Displacing  24/coordinate 3 (+)>>>
             <<<Displacing  25/coordinate 2 (-)>>>
             <<<Displacing  24/coordinate 3 (-)>>>
             <<<Displacing  25/coordinate 3 (+)>>>
             <<<Displacing  25/coordinate 1 (+)>>>
             <<<Displacing  25/coordinate 3 (-)>>>
             <<<Displacing  26/coordinate 2 (+)>>>
             <<<Displacing  25/coordinate 1 (-)>>>
             <<<Displacing  26/coordinate 1 (+)>>>
             <<<Displacing  26/coordinate 2 (-)>>>
             <<<Displacing  26/coordinate 1 (-)>>>
             <<<Displacing  26/coordinate 3 (+)>>>
             <<<Displacing  26/coordinate 3 (-)>>>
             <<<Displacing  27/coordinate 1 (+)>>>
             <<<Displacing  27/coordinate 1 (-)>>>
             <<<Displacing  27/coordinate 2 (+)>>>
             <<<Displacing  27/coordinate 2 (-)>>>
             <<<Displacing  28/coordinate 2 (+)>>>
             <<<Displacing  27/coordinate 3 (+)>>>
             <<<Displacing  28/coordinate 2 (-)>>>
             <<<Displacing  28/coordinate 1 (+)>>>
             <<<Displacing  27/coordinate 3 (-)>>>
             <<<Displacing  28/coordinate 3 (+)>>>
             <<<Displacing  28/coordinate 1 (-)>>>
             <<<Displacing  29/coordinate 1 (+)>>>
             <<<Displacing  28/coordinate 3 (-)>>>
             <<<Displacing  29/coordinate 2 (+)>>>
             <<<Displacing  29/coordinate 1 (-)>>>
             <<<Displacing  29/coordinate 2 (-)>>>
             <<<Displacing  29/coordinate 3 (+)>>>
             <<<Displacing  30/coordinate 1 (+)>>>
             <<<Displacing  30/coordinate 1 (-)>>>
             <<<Displacing  29/coordinate 3 (-)>>>
             <<<Displacing  30/coordinate 2 (+)>>>
             <<<Displacing  30/coordinate 3 (+)>>>
             <<<Displacing  30/coordinate 2 (-)>>>
             <<<Displacing  31/coordinate 1 (+)>>>
             <<<Displacing  30/coordinate 3 (-)>>>
             <<<Displacing  31/coordinate 3 (+)>>>
             <<<Displacing  31/coordinate 1 (-)>>>
             <<<Displacing  31/coordinate 3 (-)>>>
             <<<Displacing  31/coordinate 2 (+)>>>
             <<<Displacing  31/coordinate 2 (-)>>>
             <<<Displacing  32/coordinate 1 (+)>>>
             <<<Displacing  32/coordinate 1 (-)>>>
             <<<Displacing  32/coordinate 2 (+)>>>
             <<<Displacing  32/coordinate 3 (+)>>>
             <<<Displacing  32/coordinate 3 (-)>>>
             <<<Displacing  32/coordinate 2 (-)>>>
             <<<Displacing  33/coordinate 1 (+)>>>
             <<<Displacing  33/coordinate 1 (-)>>>
             <<<Displacing  33/coordinate 2 (+)>>>
             <<<Displacing  33/coordinate 3 (+)>>>
             <<<Displacing  33/coordinate 2 (-)>>>
             <<<Displacing  34/coordinate 1 (+)>>>
             <<<Displacing  34/coordinate 3 (+)>>>
             <<<Displacing  33/coordinate 3 (-)>>>
             <<<Displacing  34/coordinate 1 (-)>>>
             <<<Displacing  34/coordinate 2 (+)>>>
             <<<Displacing  34/coordinate 3 (-)>>>
             <<<Displacing  34/coordinate 2 (-)>>>
             <<<Displacing  35/coordinate 1 (+)>>>
             <<<Displacing  35/coordinate 1 (-)>>>
             <<<Displacing  35/coordinate 3 (+)>>>
             <<<Displacing  35/coordinate 2 (+)>>>
             <<<Displacing  35/coordinate 3 (-)>>>
             <<<Displacing  35/coordinate 2 (-)>>>
             <<<Displacing  36/coordinate 1 (+)>>>
             <<<Displacing  36/coordinate 1 (-)>>>
             <<<Displacing  36/coordinate 3 (+)>>>
             <<<Displacing  36/coordinate 2 (+)>>>
             <<<Displacing  36/coordinate 3 (-)>>>
             <<<Displacing  37/coordinate 1 (+)>>>
             <<<Displacing  36/coordinate 2 (-)>>>
             <<<Displacing  37/coordinate 3 (+)>>>
             <<<Displacing  37/coordinate 1 (-)>>>
             <<<Displacing  37/coordinate 2 (+)>>>
             <<<Displacing  37/coordinate 3 (-)>>>
             <<<Displacing  37/coordinate 2 (-)>>>
             <<<Displacing  38/coordinate 1 (+)>>>
             <<<Displacing  38/coordinate 2 (+)>>>
             <<<Displacing  38/coordinate 1 (-)>>>
             <<<Displacing  38/coordinate 2 (-)>>>
             <<<Displacing  38/coordinate 3 (+)>>>
             <<<Displacing  38/coordinate 3 (-)>>>
             <<<Displacing  39/coordinate 1 (+)>>>
             <<<Displacing  39/coordinate 1 (-)>>>
             <<<Displacing  39/coordinate 3 (+)>>>
             <<<Displacing  39/coordinate 2 (+)>>>
             <<<Displacing  40/coordinate 3 (+)>>>
             <<<Displacing  39/coordinate 3 (-)>>>
             <<<Displacing  40/coordinate 3 (-)>>>
             <<<Displacing  39/coordinate 2 (-)>>>
             <<<Displacing  40/coordinate 1 (+)>>>
             <<<Displacing  40/coordinate 1 (-)>>>
             <<<Displacing  40/coordinate 2 (+)>>>
             <<<Displacing  40/coordinate 2 (-)>>>
             <<<Displacing  41/coordinate 2 (+)>>>
             <<<Displacing  41/coordinate 1 (+)>>>
             <<<Displacing  41/coordinate 2 (-)>>>
             <<<Displacing  41/coordinate 1 (-)>>>
             <<<Displacing  41/coordinate 3 (+)>>>
             <<<Displacing  41/coordinate 3 (-)>>>
             <<<Displacing  42/coordinate 1 (+)>>>
             <<<Displacing  42/coordinate 1 (-)>>>
             <<<Displacing  43/coordinate 1 (+)>>>
             <<<Displacing  42/coordinate 3 (+)>>>
             <<<Displacing  43/coordinate 1 (-)>>>
             <<<Displacing  42/coordinate 2 (+)>>>
             <<<Displacing  42/coordinate 3 (-)>>>
             <<<Displacing  42/coordinate 2 (-)>>>
             <<<Displacing  43/coordinate 2 (+)>>>
             <<<Displacing  43/coordinate 2 (-)>>>
             <<<Displacing  43/coordinate 3 (+)>>>
             <<<Displacing  43/coordinate 3 (-)>>>
             <<<Displacing  44/coordinate 1 (+)>>>
             <<<Displacing  44/coordinate 2 (+)>>>
             <<<Displacing  44/coordinate 2 (-)>>>
             <<<Displacing  44/coordinate 1 (-)>>>
             <<<Displacing  44/coordinate 3 (+)>>>
             <<<Displacing  44/coordinate 3 (-)>>>
             <<<Displacing  45/coordinate 1 (+)>>>
             <<<Displacing  45/coordinate 1 (-)>>>
             <<<Displacing  45/coordinate 2 (+)>>>
             <<<Displacing  46/coordinate 1 (+)>>>
             <<<Displacing  45/coordinate 2 (-)>>>
             <<<Displacing  45/coordinate 3 (+)>>>
             <<<Displacing  46/coordinate 1 (-)>>>
             <<<Displacing  45/coordinate 3 (-)>>>
             <<<Displacing  47/coordinate 2 (+)>>>
             <<<Displacing  46/coordinate 3 (+)>>>
             <<<Displacing  46/coordinate 2 (+)>>>
             <<<Displacing  46/coordinate 3 (-)>>>
             <<<Displacing  46/coordinate 2 (-)>>>
             <<<Displacing  47/coordinate 2 (-)>>>
             <<<Displacing  47/coordinate 1 (+)>>>
             <<<Displacing  47/coordinate 1 (-)>>>
             <<<Displacing  47/coordinate 3 (+)>>>
             <<<Displacing  47/coordinate 3 (-)>>>
             <<<Displacing  48/coordinate 1 (+)>>>
             <<<Displacing  48/coordinate 1 (-)>>>
             <<<Displacing  48/coordinate 2 (+)>>>
             <<<Displacing  48/coordinate 3 (+)>>>
             <<<Displacing  49/coordinate 1 (+)>>>
             <<<Displacing  48/coordinate 2 (-)>>>
             <<<Displacing  48/coordinate 3 (-)>>>
             <<<Displacing  49/coordinate 1 (-)>>>
             <<<Displacing  49/coordinate 2 (+)>>>
             <<<Displacing  49/coordinate 3 (+)>>>
             <<<Displacing  49/coordinate 2 (-)>>>
             <<<Displacing  49/coordinate 3 (-)>>>

-----------------------
VIBRATIONAL FREQUENCIES
-----------------------

Scaling factor for frequencies =  1.000000000 (already applied!)

   0:         0.00 cm**-1
   1:         0.00 cm**-1
   2:         0.00 cm**-1
   3:         0.00 cm**-1
   4:         0.00 cm**-1
   5:         0.00 cm**-1
   6:      -859.76 cm**-1 ***imaginary mode***
   7:       -49.24 cm**-1 ***imaginary mode***
   8:        38.41 cm**-1
   9:        47.75 cm**-1
  10:        55.42 cm**-1
  11:        66.87 cm**-1
  12:        71.97 cm**-1
  13:        80.26 cm**-1
  14:        83.00 cm**-1
  15:        94.09 cm**-1
  16:       104.76 cm**-1
  17:       110.91 cm**-1
  18:       126.30 cm**-1
  19:       133.01 cm**-1
  20:       153.44 cm**-1
  21:       177.65 cm**-1
  22:       188.99 cm**-1
  23:       212.78 cm**-1
  24:       223.39 cm**-1
  25:       237.26 cm**-1
  26:       260.85 cm**-1
  27:       275.95 cm**-1
  28:       284.87 cm**-1
  29:       344.15 cm**-1
  30:       353.11 cm**-1
  31:       380.68 cm**-1
  32:       390.83 cm**-1
  33:       394.83 cm**-1
  34:       406.19 cm**-1
  35:       418.57 cm**-1
  36:       429.77 cm**-1
  37:       477.28 cm**-1
  38:       521.41 cm**-1
  39:       538.14 cm**-1
  40:       588.97 cm**-1
  41:       607.01 cm**-1
  42:       641.26 cm**-1
  43:       666.52 cm**-1
  44:       681.43 cm**-1
  45:       742.15 cm**-1
  46:       766.44 cm**-1
  47:       772.25 cm**-1
  48:       805.49 cm**-1
  49:       819.71 cm**-1
  50:       828.92 cm**-1
  51:       840.04 cm**-1
  52:       883.92 cm**-1
  53:       899.67 cm**-1
  54:       907.28 cm**-1
  55:       929.92 cm**-1
  56:       933.55 cm**-1
  57:       935.86 cm**-1
  58:       945.54 cm**-1
  59:       952.37 cm**-1
  60:       953.30 cm**-1
  61:       978.04 cm**-1
  62:       996.51 cm**-1
  63:      1014.30 cm**-1
  64:      1027.20 cm**-1
  65:      1042.69 cm**-1
  66:      1070.44 cm**-1
  67:      1072.03 cm**-1
  68:      1089.68 cm**-1
  69:      1094.11 cm**-1
  70:      1095.15 cm**-1
  71:      1110.75 cm**-1
  72:      1121.22 cm**-1
  73:      1127.98 cm**-1
  74:      1138.93 cm**-1
  75:      1154.81 cm**-1
  76:      1158.74 cm**-1
  77:      1177.11 cm**-1
  78:      1185.72 cm**-1
  79:      1196.19 cm**-1
  80:      1197.55 cm**-1
  81:      1218.02 cm**-1
  82:      1236.63 cm**-1
  83:      1246.28 cm**-1
  84:      1254.29 cm**-1
  85:      1269.84 cm**-1
  86:      1274.57 cm**-1
  87:      1277.58 cm**-1
  88:      1278.65 cm**-1
  89:      1281.17 cm**-1
  90:      1282.88 cm**-1
  91:      1285.74 cm**-1
  92:      1293.61 cm**-1
  93:      1312.24 cm**-1
  94:      1341.77 cm**-1
  95:      1352.78 cm**-1
  96:      1372.46 cm**-1
  97:      1373.47 cm**-1
  98:      1413.87 cm**-1
  99:      1419.15 cm**-1
 100:      1428.30 cm**-1
 101:      1429.70 cm**-1
 102:      1445.59 cm**-1
 103:      1456.79 cm**-1
 104:      1467.27 cm**-1
 105:      1468.98 cm**-1
 106:      1480.92 cm**-1
 107:      1494.89 cm**-1
 108:      1496.58 cm**-1
 109:      1502.95 cm**-1
 110:      1504.22 cm**-1
 111:      1507.17 cm**-1
 112:      1507.67 cm**-1
 113:      1511.80 cm**-1
 114:      1513.31 cm**-1
 115:      1555.32 cm**-1
 116:      1565.68 cm**-1
 117:      1573.19 cm**-1
 118:      2172.84 cm**-1
 119:      2652.42 cm**-1
 120:      2938.74 cm**-1
 121:      2945.18 cm**-1
 122:      2945.38 cm**-1
 123:      2955.34 cm**-1
 124:      2955.71 cm**-1
 125:      2964.94 cm**-1
 126:      2972.89 cm**-1
 127:      2975.16 cm**-1
 128:      2975.66 cm**-1
 129:      2978.79 cm**-1
 130:      2981.33 cm**-1
 131:      2984.02 cm**-1
 132:      2985.26 cm**-1
 133:      2989.83 cm**-1
 134:      2998.85 cm**-1
 135:      3001.87 cm**-1
 136:      3015.15 cm**-1
 137:      3024.51 cm**-1
 138:      3040.32 cm**-1
 139:      3048.08 cm**-1
 140:      3052.60 cm**-1
 141:      3062.43 cm**-1
 142:      3065.60 cm**-1
 143:      3091.25 cm**-1
 144:      3360.35 cm**-1
 145:      3397.93 cm**-1
 146:      3606.08 cm**-1


------------
NORMAL MODES
------------

These modes are the cartesian displacements weighted by the diagonal matrix
M(i,i)=1/sqrt(m[i]) where m[i] is the mass of the displaced atom
Thus, these vectors are normalized but *not* orthogonal

                  0          1          2          3          4          5    
      0       0.000000   0.000000   0.000000   0.000000   0.000000   0.000000
      1       0.000000   0.000000   0.000000   0.000000   0.000000   0.000000
      2       0.000000   0.000000   0.000000   0.000000   0.000000   0.000000
      3       0.000000   0.000000   0.000000   0.000000   0.000000   0.000000
      4       0.000000   0.000000   0.000000   0.000000   0.000000   0.000000
      5       0.000000   0.000000   0.000000   0.000000   0.000000   0.000000
      6       0.000000   0.000000   0.000000   0.000000   0.000000   0.000000
      7       0.000000   0.000000   0.000000   0.000000   0.000000   0.000000
      8       0.000000   0.000000   0.000000   0.000000   0.000000   0.000000
      9       0.000000   0.000000   0.000000   0.000000   0.000000   0.000000
     10       0.000000   0.000000   0.000000   0.000000   0.000000   0.000000
     11       0.000000   0.000000   0.000000   0.000000   0.000000   0.000000
     12       0.000000   0.000000   0.000000   0.000000   0.000000   0.000000
     13       0.000000   0.000000   0.000000   0.000000   0.000000   0.000000
     14       0.000000   0.000000   0.000000   0.000000   0.000000   0.000000
     15       0.000000   0.000000   0.000000   0.000000   0.000000   0.000000
     16       0.000000   0.000000   0.000000   0.000000   0.000000   0.000000
     17       0.000000   0.000000   0.000000   0.000000   0.000000   0.000000
     18       0.000000   0.000000   0.000000   0.000000   0.000000   0.000000
     19       0.000000   0.000000   0.000000   0.000000   0.000000   0.000000
     20       0.000000   0.000000   0.000000   0.000000   0.000000   0.000000
     21       0.000000   0.000000   0.000000   0.000000   0.000000   0.000000
     22       0.000000   0.000000   0.000000   0.000000   0.000000   0.000000
     23       0.000000   0.000000   0.000000   0.000000   0.000000   0.000000
     24       0.000000   0.000000   0.000000   0.000000   0.000000   0.000000
     25       0.000000   0.000000   0.000000   0.000000   0.000000   0.000000
     26       0.000000   0.000000   0.000000   0.000000   0.000000   0.000000
     27       0.000000   0.000000   0.000000   0.000000   0.000000   0.000000
     28       0.000000   0.000000   0.000000   0.000000   0.000000   0.000000
     29       0.000000   0.000000   0.000000   0.000000   0.000000   0.000000
     30       0.000000   0.000000   0.000000   0.000000   0.000000   0.000000
     31       0.000000   0.000000   0.000000   0.000000   0.000000   0.000000
     32       0.000000   0.000000   0.000000   0.000000   0.000000   0.000000
     33       0.000000   0.000000   0.000000   0.000000   0.000000   0.000000
     34       0.000000   0.000000   0.000000   0.000000   0.000000   0.000000
     35       0.000000   0.000000   0.000000   0.000000   0.000000   0.000000
     36       0.000000   0.000000   0.000000   0.000000   0.000000   0.000000
     37       0.000000   0.000000   0.000000   0.000000   0.000000   0.000000
     38       0.000000   0.000000   0.000000   0.000000   0.000000   0.000000
     39       0.000000   0.000000   0.000000   0.000000   0.000000   0.000000
     40       0.000000   0.000000   0.000000   0.000000   0.000000   0.000000
     41       0.000000   0.000000   0.000000   0.000000   0.000000   0.000000
     42       0.000000   0.000000   0.000000   0.000000   0.000000   0.000000
     43       0.000000   0.000000   0.000000   0.000000   0.000000   0.000000
     44       0.000000   0.000000   0.000000   0.000000   0.000000   0.000000
     45       0.000000   0.000000   0.000000   0.000000   0.000000   0.000000
     46       0.000000   0.000000   0.000000   0.000000   0.000000   0.000000
     47       0.000000   0.000000   0.000000   0.000000   0.000000   0.000000
     48       0.000000   0.000000   0.000000   0.000000   0.000000   0.000000
     49       0.000000   0.000000   0.000000   0.000000   0.000000   0.000000
     50       0.000000   0.000000   0.000000   0.000000   0.000000   0.000000
     51       0.000000   0.000000   0.000000   0.000000   0.000000   0.000000
     52       0.000000   0.000000   0.000000   0.000000   0.000000   0.000000
     53       0.000000   0.000000   0.000000   0.000000   0.000000   0.000000
     54       0.000000   0.000000   0.000000   0.000000   0.000000   0.000000
     55       0.000000   0.000000   0.000000   0.000000   0.000000   0.000000
     56       0.000000   0.000000   0.000000   0.000000   0.000000   0.000000
     57       0.000000   0.000000   0.000000   0.000000   0.000000   0.000000
     58       0.000000   0.000000   0.000000   0.000000   0.000000   0.000000
     59       0.000000   0.000000   0.000000   0.000000   0.000000   0.000000
     60       0.000000   0.000000   0.000000   0.000000   0.000000   0.000000
     61       0.000000   0.000000   0.000000   0.000000   0.000000   0.000000
     62       0.000000   0.000000   0.000000   0.000000   0.000000   0.000000
     63       0.000000   0.000000   0.000000   0.000000   0.000000   0.000000
     64       0.000000   0.000000   0.000000   0.000000   0.000000   0.000000
     65       0.000000   0.000000   0.000000   0.000000   0.000000   0.000000
     66       0.000000   0.000000   0.000000   0.000000   0.000000   0.000000
     67       0.000000   0.000000   0.000000   0.000000   0.000000   0.000000
     68       0.000000   0.000000   0.000000   0.000000   0.000000   0.000000
     69       0.000000   0.000000   0.000000   0.000000   0.000000   0.000000
     70       0.000000   0.000000   0.000000   0.000000   0.000000   0.000000
     71       0.000000   0.000000   0.000000   0.000000   0.000000   0.000000
     72       0.000000   0.000000   0.000000   0.000000   0.000000   0.000000
     73       0.000000   0.000000   0.000000   0.000000   0.000000   0.000000
     74       0.000000   0.000000   0.000000   0.000000   0.000000   0.000000
     75       0.000000   0.000000   0.000000   0.000000   0.000000   0.000000
     76       0.000000   0.000000   0.000000   0.000000   0.000000   0.000000
     77       0.000000   0.000000   0.000000   0.000000   0.000000   0.000000
     78       0.000000   0.000000   0.000000   0.000000   0.000000   0.000000
     79       0.000000   0.000000   0.000000   0.000000   0.000000   0.000000
     80       0.000000   0.000000   0.000000   0.000000   0.000000   0.000000
     81       0.000000   0.000000   0.000000   0.000000   0.000000   0.000000
     82       0.000000   0.000000   0.000000   0.000000   0.000000   0.000000
     83       0.000000   0.000000   0.000000   0.000000   0.000000   0.000000
     84       0.000000   0.000000   0.000000   0.000000   0.000000   0.000000
     85       0.000000   0.000000   0.000000   0.000000   0.000000   0.000000
     86       0.000000   0.000000   0.000000   0.000000   0.000000   0.000000
     87       0.000000   0.000000   0.000000   0.000000   0.000000   0.000000
     88       0.000000   0.000000   0.000000   0.000000   0.000000   0.000000
     89       0.000000   0.000000   0.000000   0.000000   0.000000   0.000000
     90       0.000000   0.000000   0.000000   0.000000   0.000000   0.000000
     91       0.000000   0.000000   0.000000   0.000000   0.000000   0.000000
     92       0.000000   0.000000   0.000000   0.000000   0.000000   0.000000
     93       0.000000   0.000000   0.000000   0.000000   0.000000   0.000000
     94       0.000000   0.000000   0.000000   0.000000   0.000000   0.000000
     95       0.000000   0.000000   0.000000   0.000000   0.000000   0.000000
     96       0.000000   0.000000   0.000000   0.000000   0.000000   0.000000
     97       0.000000   0.000000   0.000000   0.000000   0.000000   0.000000
     98       0.000000   0.000000   0.000000   0.000000   0.000000   0.000000
     99       0.000000   0.000000   0.000000   0.000000   0.000000   0.000000
    100       0.000000   0.000000   0.000000   0.000000   0.000000   0.000000
    101       0.000000   0.000000   0.000000   0.000000   0.000000   0.000000
    102       0.000000   0.000000   0.000000   0.000000   0.000000   0.000000
    103       0.000000   0.000000   0.000000   0.000000   0.000000   0.000000
    104       0.000000   0.000000   0.000000   0.000000   0.000000   0.000000
    105       0.000000   0.000000   0.000000   0.000000   0.000000   0.000000
    106       0.000000   0.000000   0.000000   0.000000   0.000000   0.000000
    107       0.000000   0.000000   0.000000   0.000000   0.000000   0.000000
    108       0.000000   0.000000   0.000000   0.000000   0.000000   0.000000
    109       0.000000   0.000000   0.000000   0.000000   0.000000   0.000000
    110       0.000000   0.000000   0.000000   0.000000   0.000000   0.000000
    111       0.000000   0.000000   0.000000   0.000000   0.000000   0.000000
    112       0.000000   0.000000   0.000000   0.000000   0.000000   0.000000
    113       0.000000   0.000000   0.000000   0.000000   0.000000   0.000000
    114       0.000000   0.000000   0.000000   0.000000   0.000000   0.000000
    115       0.000000   0.000000   0.000000   0.000000   0.000000   0.000000
    116       0.000000   0.000000   0.000000   0.000000   0.000000   0.000000
    117       0.000000   0.000000   0.000000   0.000000   0.000000   0.000000
    118       0.000000   0.000000   0.000000   0.000000   0.000000   0.000000
    119       0.000000   0.000000   0.000000   0.000000   0.000000   0.000000
    120       0.000000   0.000000   0.000000   0.000000   0.000000   0.000000
    121       0.000000   0.000000   0.000000   0.000000   0.000000   0.000000
    122       0.000000   0.000000   0.000000   0.000000   0.000000   0.000000
    123       0.000000   0.000000   0.000000   0.000000   0.000000   0.000000
    124       0.000000   0.000000   0.000000   0.000000   0.000000   0.000000
    125       0.000000   0.000000   0.000000   0.000000   0.000000   0.000000
    126       0.000000   0.000000   0.000000   0.000000   0.000000   0.000000
    127       0.000000   0.000000   0.000000   0.000000   0.000000   0.000000
    128       0.000000   0.000000   0.000000   0.000000   0.000000   0.000000
    129       0.000000   0.000000   0.000000   0.000000   0.000000   0.000000
    130       0.000000   0.000000   0.000000   0.000000   0.000000   0.000000
    131       0.000000   0.000000   0.000000   0.000000   0.000000   0.000000
    132       0.000000   0.000000   0.000000   0.000000   0.000000   0.000000
    133       0.000000   0.000000   0.000000   0.000000   0.000000   0.000000
    134       0.000000   0.000000   0.000000   0.000000   0.000000   0.000000
    135       0.000000   0.000000   0.000000   0.000000   0.000000   0.000000
    136       0.000000   0.000000   0.000000   0.000000   0.000000   0.000000
    137       0.000000   0.000000   0.000000   0.000000   0.000000   0.000000
    138       0.000000   0.000000   0.000000   0.000000   0.000000   0.000000
    139       0.000000   0.000000   0.000000   0.000000   0.000000   0.000000
    140       0.000000   0.000000   0.000000   0.000000   0.000000   0.000000
    141       0.000000   0.000000   0.000000   0.000000   0.000000   0.000000
    142       0.000000   0.000000   0.000000   0.000000   0.000000   0.000000
    143       0.000000   0.000000   0.000000   0.000000   0.000000   0.000000
    144       0.000000   0.000000   0.000000   0.000000   0.000000   0.000000
    145       0.000000   0.000000   0.000000   0.000000   0.000000   0.000000
    146       0.000000   0.000000   0.000000   0.000000   0.000000   0.000000
                  6          7          8          9         10         11    
      0       0.003588   0.023624  -0.014482   0.022708   0.012680  -0.006713
      1       0.003448   0.001174  -0.021579  -0.002037   0.001032  -0.000066
      2       0.001278  -0.012249  -0.060421  -0.058365   0.030451   0.027923
      3      -0.002565   0.016294  -0.018168   0.011188  -0.025977  -0.030116
      4      -0.000339   0.004562  -0.034104  -0.034068  -0.065107  -0.027327
      5      -0.000190  -0.025167  -0.045540  -0.024645   0.083714   0.041280
      6      -0.001608   0.013880  -0.018629   0.013061  -0.001597  -0.052959
      7      -0.000327   0.005309  -0.042055  -0.062837  -0.152666  -0.036200
      8       0.000366  -0.032074  -0.052746  -0.036987   0.107123  -0.037290
      9      -0.000947   0.017406  -0.017976   0.025917   0.063617  -0.051210
     10      -0.000578   0.002754  -0.036625  -0.058340  -0.178893  -0.017335
     11       0.000418  -0.027668  -0.079733  -0.085728   0.085107  -0.129156
     12       0.000595   0.022723  -0.016680   0.036808   0.102584  -0.025682
     13       0.000643   0.000845  -0.021603  -0.025261  -0.115333   0.009739
     14      -0.000139  -0.019247  -0.099845  -0.121502   0.036049  -0.140484
     15       0.001758   0.025494  -0.014913   0.034954   0.076117  -0.004535
     16       0.001285  -0.000056  -0.014725   0.002908  -0.025303   0.019029
     17       0.001429  -0.011061  -0.090013  -0.108252   0.006398  -0.063670
     18       0.021061   0.037859  -0.005542   0.021424  -0.009508   0.005770
     19       0.025889  -0.010231  -0.015292   0.021590   0.101241   0.013924
     20       0.040686   0.020223  -0.029222  -0.045430   0.012065   0.079185
     21       0.003138   0.012192  -0.020260  -0.000984  -0.074796  -0.032027
     22      -0.002104   0.007309  -0.037355  -0.037082  -0.048121  -0.041644
     23      -0.002498  -0.028425  -0.025407   0.014023   0.105269   0.113270
     24       0.002223   0.030009  -0.015102   0.044464   0.100634   0.014985
     25       0.003168  -0.003161  -0.005839   0.028873   0.025024   0.041542
     26      -0.002511  -0.001521  -0.102387  -0.134701  -0.037320  -0.074468
     27      -0.001755   0.016353  -0.017979   0.027391   0.083183  -0.068782
     28       0.000122   0.002508  -0.044019  -0.080540  -0.247004  -0.023645
     29      -0.001420  -0.031257  -0.084573  -0.095135   0.104604  -0.189397
     30      -0.005455  -0.007756  -0.039958   0.006159  -0.006915  -0.011850
     31       0.021093  -0.013220  -0.030011   0.062183   0.047449   0.005424
     32      -0.043970   0.047067  -0.004928  -0.049242   0.029455   0.091486
     33      -0.010640  -0.005675  -0.041213   0.021034   0.011095  -0.020063
     34       0.003895   0.024074   0.003337   0.012741   0.005388   0.027400
     35      -0.013416   0.131517   0.047845  -0.055933   0.055970   0.082327
     36      -0.119177  -0.012767  -0.039110  -0.032188  -0.038544   0.032968
     37      -0.733830  -0.018801  -0.051144   0.114300   0.017232  -0.017427
     38       0.631984   0.041386  -0.030862   0.000353   0.004806   0.066198
     39      -0.001250  -0.026825  -0.028664  -0.013118  -0.039756  -0.006354
     40       0.000353  -0.037507   0.011742  -0.011262  -0.049032   0.046146
     41      -0.000511  -0.157968   0.025078  -0.006693   0.003468   0.129153
     42      -0.018851   0.010656  -0.072392   0.039682   0.041259  -0.035965
     43      -0.003444  -0.160984  -0.026267   0.034444  -0.041788   0.065489
     44       0.003871   0.347446   0.094263  -0.088567   0.101514   0.041683
     45       0.048086  -0.005585  -0.019454   0.037517   0.031990  -0.025953
     46       0.029192   0.294528   0.054062  -0.032584   0.056142  -0.021699
     47      -0.012083   0.235492   0.068718  -0.072502   0.077007   0.063080
     48      -0.004522  -0.035375   0.018655  -0.054223  -0.067466  -0.090057
     49       0.000675   0.137704   0.045017  -0.036522   0.004972  -0.039548
     50      -0.001396  -0.392213  -0.044492   0.048841  -0.055294   0.287585
     51       0.007586  -0.057522  -0.076296  -0.002496  -0.071878   0.118673
     52       0.011070  -0.320063  -0.054794   0.050267  -0.113832   0.198397
     53       0.004590  -0.249603   0.003681   0.013196  -0.017479   0.178077
     54       0.005346   0.039904   0.009780   0.043908   0.022404   0.025801
     55      -0.018312  -0.020129  -0.008623   0.019734   0.164422   0.025100
     56      -0.000193   0.037995  -0.026303  -0.022066  -0.060852   0.080036
     57      -0.002401  -0.004086  -0.116213   0.015155   0.019622   0.017250
     58       0.017684  -0.021968  -0.043406   0.081604   0.128548  -0.009699
     59       0.016217   0.049511  -0.075954   0.088139  -0.136756   0.017323
     60      -0.010866   0.012375  -0.061553   0.025772   0.028242   0.014818
     61       0.071250  -0.024579  -0.024864   0.058947   0.150234   0.003550
     62      -0.017848   0.045587  -0.058872   0.038377  -0.106864   0.042359
     63      -0.009428   0.008214  -0.110858   0.012689   0.033070   0.008146
     64       0.013026  -0.014698  -0.058167   0.060639   0.148064  -0.014379
     65      -0.000195   0.087592  -0.032869   0.109557  -0.111736  -0.012399
     66       0.019676  -0.017753  -0.133610  -0.016944  -0.076199   0.046884
     67      -0.032907  -0.018640  -0.055858   0.122488   0.025722  -0.024455
     68      -0.094795   0.037202  -0.087574   0.054469  -0.074887   0.034628
     69      -0.028187   0.067324   0.009594   0.010261  -0.061158   0.011760
     70      -0.024957  -0.011799  -0.008780   0.008124   0.141334   0.021172
     71      -0.062588   0.018516  -0.018550  -0.065219   0.073978   0.088989
     72       0.016876  -0.038977  -0.066260   0.021906   0.016148  -0.025456
     73       0.045854  -0.023112  -0.049921   0.097033   0.055877  -0.012571
     74      -0.085460   0.029515   0.000603  -0.096174   0.041507   0.108478
     75      -0.002170   0.009972  -0.016988   0.006224  -0.034427  -0.071593
     76       0.001815   0.007779  -0.053107  -0.088787  -0.199286  -0.057223
     77      -0.002143  -0.039833  -0.034684  -0.006357   0.139964  -0.026349
     78      -0.000005   0.025499  -0.016604   0.046443   0.153019  -0.023326
     79       0.001518  -0.000868  -0.016576  -0.021110  -0.134710   0.024416
     80      -0.004039  -0.017393  -0.121898  -0.159410   0.017849  -0.210031
     81      -0.001139  -0.008683  -0.016677  -0.006413  -0.011834  -0.051490
     82      -0.001297   0.043176   0.065899  -0.085585  -0.092961  -0.033014
     83       0.000464   0.001549   0.130694  -0.066674   0.056680  -0.122405
     84      -0.003532  -0.044749  -0.070785   0.044309   0.023624   0.050884
     85       0.002384  -0.067324   0.038973  -0.067829  -0.149739   0.038508
     86      -0.001225   0.179692   0.195596  -0.116656   0.122104  -0.275154
     87      -0.002289   0.049604   0.036615  -0.023836   0.020475  -0.191632
     88       0.002617   0.236984   0.123903  -0.135927  -0.019910  -0.168924
     89       0.000157   0.061613   0.148580  -0.082266   0.079257  -0.164284
     90       0.000451  -0.015270  -0.002984  -0.044086  -0.072122  -0.050487
     91      -0.000487   0.013207   0.078532  -0.116968  -0.159661  -0.032419
     92       0.000242  -0.138258   0.129563  -0.044133  -0.003433  -0.126251
     93      -0.000120  -0.009784   0.033624  -0.082129  -0.110121  -0.120371
     94       0.000475   0.097007   0.095127  -0.127567  -0.108747  -0.080272
     95      -0.001318  -0.260689   0.090742  -0.013340  -0.060870  -0.028959
     96       0.000063  -0.008802   0.001486  -0.036118  -0.051590  -0.073107
     97       0.000698   0.049293   0.105936  -0.160888  -0.192012  -0.071691
     98      -0.001071  -0.074604   0.176579  -0.068075   0.028832  -0.248680
     99       0.001441  -0.033319  -0.034415  -0.041428  -0.098904   0.042816
    100       0.001144  -0.129186   0.043356  -0.085229  -0.227075   0.055624
    101       0.000678  -0.181092   0.120175  -0.034491  -0.022875  -0.103403
    102       0.030622  -0.027278  -0.031082  -0.049790  -0.038829   0.055423
    103       0.019304  -0.020737  -0.135962   0.161442  -0.042594  -0.048974
    104      -0.026021   0.046298  -0.094272   0.047178  -0.056813   0.043362
    105      -0.012383  -0.026843  -0.035047  -0.044800  -0.040427   0.050617
    106       0.003002  -0.003702   0.004801   0.105224   0.017447  -0.025448
    107      -0.000381   0.024098  -0.002876   0.027950  -0.013011   0.037974
    108      -0.020873  -0.019615  -0.075645  -0.042478  -0.056719   0.053729
    109       0.000343   0.003002   0.086151   0.135864  -0.006721   0.025935
    110       0.011635   0.016364   0.031631   0.023568   0.005861   0.030217
    111       0.047592  -0.042333  -0.076336  -0.043039  -0.028005   0.018541
    112       0.000313  -0.001905  -0.009487   0.078002   0.037339  -0.044878
    113      -0.022357   0.025633  -0.028823  -0.014288   0.018930   0.004381
    114       0.003382  -0.021643   0.098005  -0.053909  -0.019175   0.082929
    115      -0.000206   0.001249  -0.002531   0.058334   0.050891  -0.045845
    116      -0.001391   0.018866   0.043654   0.088558  -0.051548   0.074434
    117      -0.000206  -0.011079   0.122385  -0.139668  -0.011752   0.203191
    118      -0.002852  -0.001051   0.009305   0.086577   0.027904  -0.025949
    119      -0.003595   0.016513   0.063931   0.121902  -0.085030   0.116846
    120      -0.006272  -0.024924   0.146099  -0.009678  -0.013331   0.030779
    121       0.000939  -0.002735  -0.071957   0.068770   0.068062  -0.140276
    122       0.005578   0.022638  -0.001174   0.041918  -0.059084   0.135678
    123      -0.000342  -0.025257   0.134249  -0.006535  -0.015916   0.024795
    124      -0.001520   0.014797   0.069339  -0.050281   0.097702   0.042433
    125      -0.000626   0.012390   0.122151   0.176254  -0.041739  -0.035436
    126      -0.000571  -0.022239   0.087506  -0.051469  -0.020674   0.080918
    127       0.003152   0.014915   0.077841  -0.071357   0.082296   0.077042
    128       0.001068   0.009339   0.168041   0.224319  -0.034643  -0.096840
    129      -0.000600  -0.034075   0.135090   0.089697  -0.027536  -0.077687
    130       0.001967   0.019171   0.087809  -0.076412   0.121394   0.054221
    131       0.001545   0.017840   0.148721   0.147876  -0.008826  -0.028353
    132       0.001051  -0.021124   0.225534  -0.028361   0.009299   0.026456
    133      -0.000923   0.022052   0.103613  -0.097799   0.133002   0.071214
    134      -0.000572   0.003153   0.102093   0.238001  -0.084423  -0.076565
    135       0.000449  -0.016981   0.214347  -0.101720   0.027801   0.082295
    136      -0.000474   0.017738   0.083816  -0.075637   0.113389   0.057150
    137       0.000120  -0.003194   0.072006   0.268785  -0.112883  -0.096211
    138       0.000987  -0.021896   0.251622  -0.003184   0.008157   0.002837
    139       0.000031   0.029218   0.147022  -0.163048   0.167912   0.112914
    140      -0.001690   0.002562   0.161674   0.280644  -0.081919  -0.119191
    141      -0.000655  -0.021637   0.275254   0.003233   0.011225  -0.006073
    142       0.000595   0.024534   0.105063  -0.089789   0.143806   0.065157
    143       0.000289   0.003266   0.054332   0.206726  -0.087781  -0.044839
    144       0.004917  -0.019232  -0.060134  -0.041780  -0.052787   0.054195
    145      -0.006153  -0.017539  -0.066845   0.134337  -0.001005  -0.034046
    146      -0.020880   0.037227  -0.058841   0.036954  -0.039626   0.045561
                 12         13         14         15         16         17    
      0       0.043901  -0.033461   0.018559  -0.007516   0.006399   0.009149
      1      -0.022913  -0.003015   0.000153  -0.005774  -0.009259   0.016971
      2       0.028893   0.008512  -0.037635   0.014602  -0.002104  -0.005019
      3       0.077181  -0.010051   0.000862   0.008850   0.033535   0.016651
      4      -0.069198  -0.032474   0.039281  -0.003862  -0.015031   0.004764
      5       0.135503   0.078750  -0.115394   0.030272   0.038077   0.021552
      6       0.081795  -0.013209   0.014733   0.003661   0.042563   0.024896
      7      -0.081740  -0.033891   0.039437   0.011713  -0.010293  -0.007018
      8       0.142491   0.069072  -0.072551   0.023448   0.069548   0.040303
      9       0.053841  -0.039562   0.045530  -0.017044   0.019795   0.024685
     10      -0.048538  -0.005037  -0.000756   0.026749   0.004088  -0.004509
     11       0.049489  -0.008146   0.044176  -0.002189   0.052505   0.029109
     12       0.017989  -0.061229   0.061333  -0.030972  -0.013604   0.013615
     13       0.001581   0.023776  -0.039729   0.023623   0.015819   0.011752
     14      -0.060136  -0.072819   0.116405  -0.013641  -0.000372  -0.006008
     15       0.010257  -0.059352   0.049715  -0.023796  -0.019256   0.006465
     16       0.016367   0.025553  -0.040461   0.006301   0.008361   0.022443
     17      -0.075366  -0.064883   0.075997  -0.002522  -0.024834  -0.021940
     18       0.039169  -0.038687   0.016804  -0.007166   0.013769   0.016408
     19      -0.020059  -0.008156   0.005751  -0.017428  -0.040426   0.005257
     20       0.016690  -0.017222  -0.033287   0.010050  -0.001611   0.009439
     21       0.093663   0.006917  -0.017627   0.027194   0.042776   0.013564
     22      -0.093036  -0.053609   0.065918  -0.015181  -0.021474   0.004334
     23       0.212754   0.141970  -0.205214   0.045855   0.048608   0.030394
     24      -0.021605  -0.072363   0.060302  -0.026327  -0.036096   0.003099
     25       0.053947   0.050525  -0.073024   0.007204   0.014847   0.034016
     26      -0.163671  -0.116600   0.135748  -0.008768  -0.054478  -0.042893
     27       0.059269  -0.042134   0.056655  -0.022589   0.027475   0.032076
     28      -0.060065  -0.005300  -0.002302   0.039626   0.006390  -0.014684
     29       0.059460  -0.016527   0.078793  -0.011885   0.078251   0.046275
     30       0.060229   0.002173  -0.011208   0.015331  -0.019109  -0.020659
     31      -0.005745  -0.008759   0.009504  -0.093739   0.064860   0.036659
     32      -0.001715  -0.041677  -0.013012   0.024630  -0.021375   0.016680
     33       0.053553   0.003810  -0.010755   0.012183  -0.028789  -0.021077
     34      -0.005803  -0.031013   0.019722  -0.087175   0.093016   0.049936
     35      -0.043061  -0.074530   0.010393   0.011401  -0.008730   0.058924
     36       0.015891   0.030969  -0.022724  -0.048003   0.000567  -0.008949
     37       0.011468   0.024493   0.011765  -0.112211   0.048395   0.018686
     38      -0.001821  -0.007207  -0.006979   0.020917  -0.043655  -0.002522
     39       0.082544  -0.007368  -0.011547   0.056534  -0.035287  -0.062532
     40       0.026273  -0.045902   0.022345  -0.044121   0.103852  -0.011166
     41      -0.005434  -0.107217   0.031092   0.035011   0.090518  -0.110380
     42       0.054048   0.033313  -0.026535   0.000851  -0.065146   0.002997
     43       0.035388  -0.045418   0.024848  -0.056702   0.139600  -0.064143
     44      -0.092459  -0.067171   0.009683  -0.020862  -0.051727   0.186835
     45       0.028696  -0.013293   0.004018  -0.002545  -0.006267  -0.018957
     46      -0.060257  -0.017010   0.014292  -0.120898   0.030406   0.209503
     47      -0.065483  -0.069836   0.009066  -0.002684  -0.031958   0.120244
     48       0.090595   0.048306  -0.033492   0.069232  -0.031574  -0.149222
     49      -0.017888   0.014004  -0.000788  -0.092776   0.074007   0.056400
     50       0.049609  -0.215964   0.073418   0.095859   0.127756  -0.158032
     51       0.117209  -0.094623   0.014254   0.117448  -0.072526  -0.015697
     52       0.083710  -0.150464   0.065290   0.013348   0.161220  -0.093164
     53       0.013423  -0.140973   0.045039   0.053727   0.109139  -0.136610
     54       0.038698  -0.062191   0.031956  -0.035177   0.027532   0.022909
     55      -0.025559  -0.011830   0.011849   0.003882  -0.088824  -0.015983
     56       0.021907  -0.034471  -0.026469  -0.047280   0.091422   0.050103
     57      -0.251212   0.095242  -0.016811   0.278847   0.097043   0.044327
     58      -0.054337   0.052459   0.004254   0.022835  -0.130092  -0.052428
     59       0.002853   0.054685  -0.036988  -0.050553   0.037463   0.005124
     60      -0.127556   0.024918   0.009964   0.152076   0.059994   0.028520
     61      -0.031883   0.024960   0.008525   0.005384  -0.136051  -0.051936
     62       0.003920   0.020022  -0.036469  -0.041797   0.054525   0.022857
     63      -0.276993   0.107359  -0.011395   0.341538   0.122177   0.055891
     64      -0.145901   0.094352  -0.002652   0.166761  -0.077744  -0.027058
     65       0.035101   0.041002  -0.004900  -0.012240   0.059654   0.013238
     66      -0.127530   0.074131  -0.073715  -0.112535   0.012049   0.014228
     67       0.004234   0.034376   0.015654  -0.096981   0.022071   0.005693
     68      -0.031760   0.036573  -0.043128   0.035112  -0.062696  -0.022933
     69       0.028723  -0.052221   0.023312   0.001501   0.019022   0.032576
     70      -0.028969  -0.008400   0.008095   0.017585  -0.092460  -0.012386
     71       0.004383  -0.018364  -0.028206   0.060163  -0.081843  -0.017827
     72       0.072785   0.024259  -0.029957   0.032336  -0.056006  -0.041923
     73       0.001970   0.004887   0.004430  -0.099963   0.056739   0.033421
     74      -0.001397  -0.040293  -0.025672   0.057431  -0.053471  -0.003060
     75       0.105623   0.004186   0.003419   0.015807   0.067891   0.031798
[...]
  28:       284.87    0.000000  (  0.000000   0.000000   0.000000)
  29:       344.15    0.000000  (  0.000000   0.000000   0.000000)
  30:       353.11    0.000000  (  0.000000   0.000000   0.000000)
  31:       380.68    0.000000  (  0.000000   0.000000   0.000000)
  32:       390.83    0.000000  (  0.000000   0.000000   0.000000)
  33:       394.83    0.000000  (  0.000000   0.000000   0.000000)
  34:       406.19    0.000000  (  0.000000   0.000000   0.000000)
  35:       418.57    0.000000  (  0.000000   0.000000   0.000000)
  36:       429.77    0.000000  (  0.000000   0.000000   0.000000)
  37:       477.28    0.000000  (  0.000000   0.000000   0.000000)
  38:       521.41    0.000000  (  0.000000   0.000000   0.000000)
  39:       538.14    0.000000  (  0.000000   0.000000   0.000000)
  40:       588.97    0.000000  (  0.000000   0.000000   0.000000)
  41:       607.01    0.000000  (  0.000000   0.000000   0.000000)
  42:       641.26    0.000000  (  0.000000   0.000000   0.000000)
  43:       666.52    0.000000  (  0.000000   0.000000   0.000000)
  44:       681.43    0.000000  (  0.000000   0.000000   0.000000)
  45:       742.15    0.000000  (  0.000000   0.000000   0.000000)
  46:       766.44    0.000000  (  0.000000   0.000000   0.000000)
  47:       772.25    0.000000  (  0.000000   0.000000   0.000000)
  48:       805.49    0.000000  (  0.000000   0.000000   0.000000)
  49:       819.71    0.000000  (  0.000000   0.000000   0.000000)
  50:       828.92    0.000000  (  0.000000   0.000000   0.000000)
  51:       840.04    0.000000  (  0.000000   0.000000   0.000000)
  52:       883.92    0.000000  (  0.000000   0.000000   0.000000)
  53:       899.67    0.000000  (  0.000000   0.000000   0.000000)
  54:       907.28    0.000000  (  0.000000   0.000000   0.000000)
  55:       929.92    0.000000  (  0.000000   0.000000   0.000000)
  56:       933.55    0.000000  (  0.000000   0.000000   0.000000)
  57:       935.86    0.000000  (  0.000000   0.000000   0.000000)
  58:       945.54    0.000000  (  0.000000   0.000000   0.000000)
  59:       952.37    0.000000  (  0.000000   0.000000   0.000000)
  60:       953.30    0.000000  (  0.000000   0.000000   0.000000)
  61:       978.04    0.000000  (  0.000000   0.000000   0.000000)
  62:       996.51    0.000000  (  0.000000   0.000000   0.000000)
  63:      1014.30    0.000000  (  0.000000   0.000000   0.000000)
  64:      1027.20    0.000000  (  0.000000   0.000000   0.000000)
  65:      1042.69    0.000000  (  0.000000   0.000000   0.000000)
  66:      1070.44    0.000000  (  0.000000   0.000000   0.000000)
  67:      1072.03    0.000000  (  0.000000   0.000000   0.000000)
  68:      1089.68    0.000000  (  0.000000   0.000000   0.000000)
  69:      1094.11    0.000000  (  0.000000   0.000000   0.000000)
  70:      1095.15    0.000000  (  0.000000   0.000000   0.000000)
  71:      1110.75    0.000000  (  0.000000   0.000000   0.000000)
  72:      1121.22    0.000000  (  0.000000   0.000000   0.000000)
  73:      1127.98    0.000000  (  0.000000   0.000000   0.000000)
  74:      1138.93    0.000000  (  0.000000   0.000000   0.000000)
  75:      1154.81    0.000000  (  0.000000   0.000000   0.000000)
  76:      1158.74    0.000000  (  0.000000   0.000000   0.000000)
  77:      1177.11    0.000000  (  0.000000   0.000000   0.000000)
  78:      1185.72    0.000000  (  0.000000   0.000000   0.000000)
  79:      1196.19    0.000000  (  0.000000   0.000000   0.000000)
  80:      1197.55    0.000000  (  0.000000   0.000000   0.000000)
  81:      1218.02    0.000000  (  0.000000   0.000000   0.000000)
  82:      1236.63    0.000000  (  0.000000   0.000000   0.000000)
  83:      1246.28    0.000000  (  0.000000   0.000000   0.000000)
  84:      1254.29    0.000000  (  0.000000   0.000000   0.000000)
  85:      1269.84    0.000000  (  0.000000   0.000000   0.000000)
  86:      1274.57    0.000000  (  0.000000   0.000000   0.000000)
  87:      1277.58    0.000000  (  0.000000   0.000000   0.000000)
  88:      1278.65    0.000000  (  0.000000   0.000000   0.000000)
  89:      1281.17    0.000000  (  0.000000   0.000000   0.000000)
  90:      1282.88    0.000000  (  0.000000   0.000000   0.000000)
  91:      1285.74    0.000000  (  0.000000   0.000000   0.000000)
  92:      1293.61    0.000000  (  0.000000   0.000000   0.000000)
  93:      1312.24    0.000000  (  0.000000   0.000000   0.000000)
  94:      1341.77    0.000000  (  0.000000   0.000000   0.000000)
  95:      1352.78    0.000000  (  0.000000   0.000000   0.000000)
  96:      1372.46    0.000000  (  0.000000   0.000000   0.000000)
  97:      1373.47    0.000000  (  0.000000   0.000000   0.000000)
  98:      1413.87    0.000000  (  0.000000   0.000000   0.000000)
  99:      1419.15    0.000000  (  0.000000   0.000000   0.000000)
 100:      1428.30    0.000000  (  0.000000   0.000000   0.000000)
 101:      1429.70    0.000000  (  0.000000   0.000000   0.000000)
 102:      1445.59    0.000000  (  0.000000   0.000000   0.000000)
 103:      1456.79    0.000000  (  0.000000   0.000000   0.000000)
 104:      1467.27    0.000000  (  0.000000   0.000000   0.000000)
 105:      1468.98    0.000000  (  0.000000   0.000000   0.000000)
 106:      1480.92    0.000000  (  0.000000   0.000000   0.000000)
 107:      1494.89    0.000000  (  0.000000   0.000000   0.000000)
 108:      1496.58    0.000000  (  0.000000   0.000000   0.000000)
 109:      1502.95    0.000000  (  0.000000   0.000000   0.000000)
 110:      1504.22    0.000000  (  0.000000   0.000000   0.000000)
 111:      1507.17    0.000000  (  0.000000   0.000000   0.000000)
 112:      1507.67    0.000000  (  0.000000   0.000000   0.000000)
 113:      1511.80    0.000000  (  0.000000   0.000000   0.000000)
 114:      1513.31    0.000000  (  0.000000   0.000000   0.000000)
 115:      1555.32    0.000000  (  0.000000   0.000000   0.000000)
 116:      1565.68    0.000000  (  0.000000   0.000000   0.000000)
 117:      1573.19    0.000000  (  0.000000   0.000000   0.000000)
 118:      2172.84    0.000000  (  0.000000   0.000000   0.000000)
 119:      2652.42    0.000000  (  0.000000   0.000000   0.000000)
 120:      2938.74    0.000000  (  0.000000   0.000000   0.000000)
 121:      2945.18    0.000000  (  0.000000   0.000000   0.000000)
 122:      2945.38    0.000000  (  0.000000   0.000000   0.000000)
 123:      2955.34    0.000000  (  0.000000   0.000000   0.000000)
 124:      2955.71    0.000000  (  0.000000   0.000000   0.000000)
 125:      2964.94    0.000000  (  0.000000   0.000000   0.000000)
 126:      2972.89    0.000000  (  0.000000   0.000000   0.000000)
 127:      2975.16    0.000000  (  0.000000   0.000000   0.000000)
 128:      2975.66    0.000000  (  0.000000   0.000000   0.000000)
 129:      2978.79    0.000000  (  0.000000   0.000000   0.000000)
 130:      2981.33    0.000000  (  0.000000   0.000000   0.000000)
 131:      2984.02    0.000000  (  0.000000   0.000000   0.000000)
 132:      2985.26    0.000000  (  0.000000   0.000000   0.000000)
 133:      2989.83    0.000000  (  0.000000   0.000000   0.000000)
 134:      2998.85    0.000000  (  0.000000   0.000000   0.000000)
 135:      3001.87    0.000000  (  0.000000   0.000000   0.000000)
 136:      3015.15    0.000000  (  0.000000   0.000000   0.000000)
 137:      3024.51    0.000000  (  0.000000   0.000000   0.000000)
 138:      3040.32    0.000000  (  0.000000   0.000000   0.000000)
 139:      3048.08    0.000000  (  0.000000   0.000000   0.000000)
 140:      3052.60    0.000000  (  0.000000   0.000000   0.000000)
 141:      3062.43    0.000000  (  0.000000   0.000000   0.000000)
 142:      3065.60    0.000000  (  0.000000   0.000000   0.000000)
 143:      3091.25    0.000000  (  0.000000   0.000000   0.000000)
 144:      3360.35    0.000000  (  0.000000   0.000000   0.000000)
 145:      3397.93    0.000000  (  0.000000   0.000000   0.000000)
 146:      3606.08    0.000000  (  0.000000   0.000000   0.000000)

The first frequency considered to be a vibration is 8
The total number of vibrations considered is 139


--------------------------
THERMOCHEMISTRY AT 298.15K
--------------------------

Temperature         ... 298.15 K
Pressure            ... 1.00 atm
Total Mass          ... 270.42 AMU

Throughout the following assumptions are being made:
  (1) The electronic state is orbitally nondegenerate
  (2) There are no thermally accessible electronically excited states
  (3) Hindered rotations indicated by low frequency modes are not
      treated as such but are treated as vibrations and this may
      cause some error
  (4) All equations used are the standard statistical mechanics
      equations for an ideal gas
  (5) All vibrations are strictly harmonic

freq.      38.41  E(vib)   ...       0.54 
freq.      47.75  E(vib)   ...       0.53 
freq.      55.42  E(vib)   ...       0.52 
freq.      66.87  E(vib)   ...       0.50 
freq.      71.97  E(vib)   ...       0.50 
freq.      80.26  E(vib)   ...       0.49 
freq.      83.00  E(vib)   ...       0.48 
freq.      94.09  E(vib)   ...       0.47 
freq.     104.76  E(vib)   ...       0.46 
freq.     110.91  E(vib)   ...       0.45 
freq.     126.30  E(vib)   ...       0.43 
freq.     133.01  E(vib)   ...       0.42 
freq.     153.44  E(vib)   ...       0.40 
freq.     177.65  E(vib)   ...       0.37 
freq.     188.99  E(vib)   ...       0.36 
freq.     212.78  E(vib)   ...       0.34 
freq.     223.39  E(vib)   ...       0.33 
freq.     237.26  E(vib)   ...       0.32 
freq.     260.85  E(vib)   ...       0.30 
freq.     275.95  E(vib)   ...       0.28 
freq.     284.87  E(vib)   ...       0.28 
freq.     344.15  E(vib)   ...       0.23 
freq.     353.11  E(vib)   ...       0.22 
freq.     380.68  E(vib)   ...       0.21 
freq.     390.83  E(vib)   ...       0.20 
freq.     394.83  E(vib)   ...       0.20 
freq.     406.19  E(vib)   ...       0.19 
freq.     418.57  E(vib)   ...       0.18 
freq.     429.77  E(vib)   ...       0.18 
freq.     477.28  E(vib)   ...       0.15 
freq.     521.41  E(vib)   ...       0.13 
freq.     538.14  E(vib)   ...       0.12 
freq.     588.97  E(vib)   ...       0.10 
freq.     607.01  E(vib)   ...       0.10 
freq.     641.26  E(vib)   ...       0.09 
freq.     666.52  E(vib)   ...       0.08 
freq.     681.43  E(vib)   ...       0.08 
freq.     742.15  E(vib)   ...       0.06 
freq.     766.44  E(vib)   ...       0.06 
freq.     772.25  E(vib)   ...       0.05 
freq.     805.49  E(vib)   ...       0.05 
freq.     819.71  E(vib)   ...       0.05 
freq.     828.92  E(vib)   ...       0.04 
freq.     840.04  E(vib)   ...       0.04 
freq.     883.92  E(vib)   ...       0.04 
freq.     899.67  E(vib)   ...       0.03 
freq.     907.28  E(vib)   ...       0.03 
freq.     929.92  E(vib)   ...       0.03 
freq.     933.55  E(vib)   ...       0.03 
freq.     935.86  E(vib)   ...       0.03 
freq.     945.54  E(vib)   ...       0.03 
freq.     952.37  E(vib)   ...       0.03 
freq.     953.30  E(vib)   ...       0.03 
freq.     978.04  E(vib)   ...       0.03 
freq.     996.51  E(vib)   ...       0.02 
freq.    1014.30  E(vib)   ...       0.02 
freq.    1027.20  E(vib)   ...       0.02 
freq.    1042.69  E(vib)   ...       0.02 
freq.    1070.44  E(vib)   ...       0.02 
freq.    1072.03  E(vib)   ...       0.02 
freq.    1089.68  E(vib)   ...       0.02 
freq.    1094.11  E(vib)   ...       0.02 
freq.    1095.15  E(vib)   ...       0.02 
freq.    1110.75  E(vib)   ...       0.01 
freq.    1121.22  E(vib)   ...       0.01 
freq.    1127.98  E(vib)   ...       0.01 
freq.    1138.93  E(vib)   ...       0.01 
freq.    1154.81  E(vib)   ...       0.01 
freq.    1158.74  E(vib)   ...       0.01 
freq.    1177.11  E(vib)   ...       0.01 
freq.    1185.72  E(vib)   ...       0.01 
freq.    1196.19  E(vib)   ...       0.01 
freq.    1197.55  E(vib)   ...       0.01 
freq.    1218.02  E(vib)   ...       0.01 
freq.    1236.63  E(vib)   ...       0.01 
freq.    1246.28  E(vib)   ...       0.01 
freq.    1254.29  E(vib)   ...       0.01 
freq.    1269.84  E(vib)   ...       0.01 
freq.    1274.57  E(vib)   ...       0.01 
freq.    1277.58  E(vib)   ...       0.01 
freq.    1278.65  E(vib)   ...       0.01 
freq.    1281.17  E(vib)   ...       0.01 
freq.    1282.88  E(vib)   ...       0.01 
freq.    1285.74  E(vib)   ...       0.01 
freq.    1293.61  E(vib)   ...       0.01 
freq.    1312.24  E(vib)   ...       0.01 
freq.    1341.77  E(vib)   ...       0.01 
freq.    1352.78  E(vib)   ...       0.01 
freq.    1372.46  E(vib)   ...       0.01 
freq.    1373.47  E(vib)   ...       0.01 
freq.    1413.87  E(vib)   ...       0.00 
freq.    1419.15  E(vib)   ...       0.00 
freq.    1428.30  E(vib)   ...       0.00 
freq.    1429.70  E(vib)   ...       0.00 
freq.    1445.59  E(vib)   ...       0.00 
freq.    1456.79  E(vib)   ...       0.00 
freq.    1467.27  E(vib)   ...       0.00 
freq.    1468.98  E(vib)   ...       0.00 
freq.    1480.92  E(vib)   ...       0.00 
freq.    1494.89  E(vib)   ...       0.00 
freq.    1496.58  E(vib)   ...       0.00 
freq.    1502.95  E(vib)   ...       0.00 
freq.    1504.22  E(vib)   ...       0.00 
freq.    1507.17  E(vib)   ...       0.00 
freq.    1507.67  E(vib)   ...       0.00 
freq.    1511.80  E(vib)   ...       0.00 
freq.    1513.31  E(vib)   ...       0.00 
freq.    1555.32  E(vib)   ...       0.00 
freq.    1565.68  E(vib)   ...       0.00 
freq.    1573.19  E(vib)   ...       0.00 
freq.    2172.84  E(vib)   ...       0.00 
freq.    2652.42  E(vib)   ...       0.00 
freq.    2938.74  E(vib)   ...       0.00 
freq.    2945.18  E(vib)   ...       0.00 
freq.    2945.38  E(vib)   ...       0.00 
freq.    2955.34  E(vib)   ...       0.00 
freq.    2955.71  E(vib)   ...       0.00 
freq.    2964.94  E(vib)   ...       0.00 
freq.    2972.89  E(vib)   ...       0.00 
freq.    2975.16  E(vib)   ...       0.00 
freq.    2975.66  E(vib)   ...       0.00 
freq.    2978.79  E(vib)   ...       0.00 
freq.    2981.33  E(vib)   ...       0.00 
freq.    2984.02  E(vib)   ...       0.00 
freq.    2985.26  E(vib)   ...       0.00 
freq.    2989.83  E(vib)   ...       0.00 
freq.    2998.85  E(vib)   ...       0.00 
freq.    3001.87  E(vib)   ...       0.00 
freq.    3015.15  E(vib)   ...       0.00 
freq.    3024.51  E(vib)   ...       0.00 
freq.    3040.32  E(vib)   ...       0.00 
freq.    3048.08  E(vib)   ...       0.00 
freq.    3052.60  E(vib)   ...       0.00 
freq.    3062.43  E(vib)   ...       0.00 
freq.    3065.60  E(vib)   ...       0.00 
freq.    3091.25  E(vib)   ...       0.00 
freq.    3360.35  E(vib)   ...       0.00 
freq.    3397.93  E(vib)   ...       0.00 
freq.    3606.08  E(vib)   ...       0.00 

------------
INNER ENERGY
------------

The inner energy is: U= E(el) + E(ZPE) + E(vib) + E(rot) + E(trans)
    E(el)   - is the total energy from the electronic structure calculation
              = E(kin-el) + E(nuc-el) + E(el-el) + E(nuc-nuc)
    E(ZPE)  - the the zero temperature vibrational energy from the frequency calculation
    E(vib)  - the the finite temperature correction to E(ZPE) due to population
              of excited vibrational states
    E(rot)  - is the rotational thermal energy
    E(trans)- is the translational thermal energy

Summary of contributions to the inner energy U:
Electronic energy                ...    -61.37212685 Eh
Zero point energy                ...      0.42298157 Eh     265.42 kcal/mol
Thermal vibrational correction   ...      0.01967894 Eh      12.35 kcal/mol
Thermal rotational correction    ...      0.00141627 Eh       0.89 kcal/mol
Thermal translational correction ...      0.00141627 Eh       0.89 kcal/mol
-----------------------------------------------------------------------
Total thermal energy                    -60.92663380 Eh


Summary of corrections to the electronic energy:
(perhaps to be used in another calculation)
Total thermal correction                  0.02251148 Eh      14.13 kcal/mol
Non-thermal (ZPE) correction              0.42298157 Eh     265.42 kcal/mol
-----------------------------------------------------------------------
Total correction                          0.44549306 Eh     279.55 kcal/mol


--------
ENTHALPY
--------

The enthalpy is H = U + kB*T
                kB is Boltzmann's constant
Total free energy                 ...    -60.92663380 Eh 
Thermal Enthalpy correction       ...      0.00094421 Eh       0.59 kcal/mol
-----------------------------------------------------------------------
Total Enthalpy                    ...    -60.92568959 Eh


Note: Only C1 symmetry has been detected, increase convergence thresholds 
      if your molecule has a higher symmetry. Symmetry factor of 1.0 is   
      used for the rotational entropy correction. 
 

Note: Rotational entropy computed according to Herzberg 
Infrared and Raman Spectra, Chapter V,1, Van Nostrand Reinhold, 1945 
Point Group:  C1, Symmetry Number:   1  
Rotational constants in cm-1:     0.015039     0.007136     0.005988 

Vibrational entropy computed according to the QRRHO of S. Grimme
Chem.Eur.J. 2012 18 9955


-------
ENTROPY
-------

The entropy contributions are T*S = T*(S(el)+S(vib)+S(rot)+S(trans))
     S(el)   - electronic entropy
     S(vib)  - vibrational entropy
     S(rot)  - rotational entropy
     S(trans)- translational entropy
The entropies will be listed as mutliplied by the temperature to get
units of energy

Electronic entropy                ...      0.00000000 Eh      0.00 kcal/mol
Vibrational entropy               ...      0.03506933 Eh     22.01 kcal/mol
Rotational entropy                ...      0.01624174 Eh     10.19 kcal/mol
Translational entropy             ...      0.02028014 Eh     12.73 kcal/mol
-----------------------------------------------------------------------
Final entropy term                ...      0.07159121 Eh     44.92 kcal/mol

In case the symmetry of your molecule has not been determined correctly
or in case you have a reason to use a different symmetry number we print 
out the resulting rotational entropy values for sn=1,12 :
 --------------------------------------------------------
|  sn= 1 | S(rot)=       0.01624174 Eh     10.19 kcal/mol|
|  sn= 2 | S(rot)=       0.01558728 Eh      9.78 kcal/mol|
|  sn= 3 | S(rot)=       0.01520445 Eh      9.54 kcal/mol|
|  sn= 4 | S(rot)=       0.01493282 Eh      9.37 kcal/mol|
|  sn= 5 | S(rot)=       0.01472214 Eh      9.24 kcal/mol|
|  sn= 6 | S(rot)=       0.01454999 Eh      9.13 kcal/mol|
|  sn= 7 | S(rot)=       0.01440445 Eh      9.04 kcal/mol|
|  sn= 8 | S(rot)=       0.01427837 Eh      8.96 kcal/mol|
|  sn= 9 | S(rot)=       0.01416716 Eh      8.89 kcal/mol|
|  sn=10 | S(rot)=       0.01406768 Eh      8.83 kcal/mol|
|  sn=11 | S(rot)=       0.01397769 Eh      8.77 kcal/mol|
|  sn=12 | S(rot)=       0.01389554 Eh      8.72 kcal/mol|
 --------------------------------------------------------


-------------------
GIBBS FREE ENERGY
-------------------

The Gibbs free energy is G = H - T*S

Total enthalpy                    ...    -60.92568959 Eh 
Total entropy correction          ...     -0.07159121 Eh    -44.92 kcal/mol
-----------------------------------------------------------------------
Final Gibbs free energy         ...    -60.99728079 Eh

For completeness - the Gibbs free energy minus the electronic energy
G-E(el)                           ...      0.37484606 Eh    235.22 kcal/mol


Total Time for Numerical Frequencies  :       198.687 sec
Time for Reference State(s)           :         0.282 sec
Time for Displacements                :       180.793 sec

Timings for individual modules:

Sum of individual times         ...        0.500 sec (=   0.008 min)
XTB module                      ...        0.500 sec (=   0.008 min) 100.0 %
                             ****ORCA TERMINATED NORMALLY****
TOTAL RUN TIME: 0 days 0 hours 3 minutes 19 seconds 947 msec
(SLURM) EXECUTION TIME: 200.644572819 seconds.
