
                                 *****************
                                 * O   R   C   A *
                                 *****************

           --- An Ab Initio, DFT and Semiempirical electronic structure package ---

                  #######################################################
                  #                        -***-                        #
                  #          Department of theory and spectroscopy      #
                  #               Directorship: Frank Neese             #
                  #        Max Planck Institute fuer Kohlenforschung    #
                  #                Kaiser Wilhelm Platz 1               #
                  #                 D-45470 Muelheim/Ruhr               #
                  #                      Germany                        #
                  #                                                     #
                  #                  All rights reserved                #
                  #                        -***-                        #
                  #######################################################


                         Program Version 4.2.1 -  RELEASE  -


 With contributions from (in alphabetic order):
   Daniel Aravena         : Magnetic Suceptibility
   Michael Atanasov       : Ab Initio Ligand Field Theory (pilot matlab implementation)
   Alexander A. Auer      : GIAO ZORA, VPT2
   Ute Becker             : Parallelization
   Giovanni Bistoni       : ED, misc. LED, open-shell LED, HFLD
   Martin Brehm           : Molecular dynamics
   Dmytro Bykov           : SCF Hessian
   Vijay G. Chilkuri      : MRCI spin determinant printing, contributions to CSF-ICE
   Dipayan Datta          : RHF DLPNO-CCSD density
   Achintya Kumar Dutta   : EOM-CC, STEOM-CC
   Dmitry Ganyushin       : Spin-Orbit,Spin-Spin,Magnetic field MRCI
   Miquel Garcia          : C-PCM Hessian, Gaussian charge scheme
   Yang Guo               : DLPNO-NEVPT2, CIM, IAO-localization
   Andreas Hansen         : Spin unrestricted coupled pair/coupled cluster methods
   Benjamin Helmich-Paris : CASSCF linear response (MC-RPA)
   Lee Huntington         : MR-EOM, pCC
   Robert Izsak           : Overlap fitted RIJCOSX, COSX-SCS-MP3, EOM
   Christian Kollmar      : KDIIS, OOCD, Brueckner-CCSD(T), CCSD density
   Simone Kossmann        : Meta GGA functionals, TD-DFT gradient, OOMP2, MP2 Hessian
   Martin Krupicka        : AUTO-CI
   Lucas Lang             : DCDCAS
   Dagmar Lenk            : GEPOL surface, SMD
   Dimitrios Liakos       : Extrapolation schemes; Compound Job, initial MDCI parallelization
   Dimitrios Manganas     : Further ROCIS development; embedding schemes
   Dimitrios Pantazis     : SARC Basis sets
   Taras Petrenko         : DFT Hessian,TD-DFT gradient, ASA, ECA, R-Raman, ABS, FL, XAS/XES, NRVS
   Peter Pinski           : DLPNO-MP2, DLPNO-MP2 Gradient
   Christoph Reimann      : Effective Core Potentials
   Marius Retegan         : Local ZFS, SOC
   Christoph Riplinger    : Optimizer, TS searches, QM/MM, DLPNO-CCSD(T), (RO)-DLPNO pert. Triples
   Tobias Risthaus        : Range-separated hybrids, TD-DFT gradient, RPA, STAB
   Michael Roemelt        : Original ROCIS implementation
   Masaaki Saitow         : Open-shell DLPNO-CCSD energy and density
   Barbara Sandhoefer     : DKH picture change effects
   Avijit Sen             : IP-ROCIS
   Kantharuban Sivalingam : CASSCF convergence, NEVPT2, FIC-MRCI
   Bernardo de Souza      : ESD, SOC TD-DFT
   Georgi Stoychev        : AutoAux, RI-MP2 NMR
   Willem Van den Heuvel  : Paramagnetic NMR
   Boris Wezisla          : Elementary symmetry handling
   Frank Wennmohs         : Technical directorship


 We gratefully acknowledge several colleagues who have allowed us to
 interface, adapt or use parts of their codes:
   Stefan Grimme, W. Hujo, H. Kruse,             : VdW corrections, initial TS optimization,
                  C. Bannwarth                     DFT functionals, gCP, sTDA/sTD-DF
   Ed Valeev, F. Pavosevic, A. Kumar             : LibInt (2-el integral package), F12 methods
   Garnet Chan, S. Sharma, J. Yang, R. Olivares  : DMRG
   Ulf Ekstrom                                   : XCFun DFT Library
   Mihaly Kallay                                 : mrcc  (arbitrary order and MRCC methods)
   Andreas Klamt, Michael Diedenhofen            : otool_cosmo (COSMO solvation model)
   Jiri Pittner, Ondrej Demel                    : Mk-CCSD
   Frank Weinhold                                : gennbo (NPA and NBO analysis)
   Christopher J. Cramer and Donald G. Truhlar   : smd solvation model
   Lars Goerigk                                  : TD-DFT with DH, B97 family of functionals
   V. Asgeirsson, H. Jonsson                     : NEB implementation
   FAccTs GmbH                                   : IRC, NEB, NEB-TS, Multilevel, MM, QM/MM, CI optimization
   S Lehtola, MJT Oliveira, MAL Marques          : LibXC Library


 Your calculation uses the libint2 library for the computation of 2-el integrals
 For citations please refer to: http://libint.valeyev.net

 Your ORCA version has been built with support for libXC version: 4.2.3
 For citations please refer to: https://tddft.org/programs/libxc/

 This ORCA versions uses:
   CBLAS   interface :  Fast vector & matrix operations
   LAPACKE interface :  Fast linear algebra routines
   SCALAPACK package :  Parallel linear algebra routines




***************************************
The coordinates will be read from file: init.xyz
***************************************


----- Orbital basis set information -----
Your calculation utilizes the basis: cc-pVTZ 
       H, B-Ne : Obtained from the ccRepo (grant-hill.group.shef.ac.uk/ccrepo) Feb. 2017
                 T. H. Dunning, Jr., J. Chem. Phys. 90, 1007 (1989)
            He : Obtained from the ccRepo (grant-hill.group.shef.ac.uk/ccrepo) Feb. 2017
                 D. E. Woon, T. H. Dunning, Jr., J. Chem. Phys. 100, 2975 (1994)
  Li-Be, Na-Mg : Obtained from the ccRepo (grant-hill.group.shef.ac.uk/ccrepo) Feb. 2017
                 B. P. Prascher, D. E. Woon, K. A. Peterson, T. H. Dunning, Jr., A. K. Wilson, Theor. Chem. Acc. 128, 69 (2011)
         Al-Ar : Obtained from the ccRepo (grant-hill.group.shef.ac.uk/ccrepo) Feb. 2017
                 D. E. Woon, T. H. Dunning, Jr., J. Chem. Phys. 98, 1358 (1993)
            Ca : Obtained from the Peterson Research Group Website (tyr0.chem.wsu.edu/~kipeters) Feb. 2017
                 J. Koput, K. A. Peterson, J. Phys. Chem. 106, 9595 (2002)
         Sc-Zn : Obtained from the ccRepo (grant-hill.group.shef.ac.uk/ccrepo) Feb. 2017
                 N. B. Balabanov, K. A. Peterson, J. Chem. Phys. 123, 064107 (2005)
                 N. B. Balabanov, K. A. Peterson, J. Chem. Phys. 125, 074110 (2006)
         Ga-Kr : Obtained from the ccRepo (grant-hill.group.shef.ac.uk/ccrepo) Feb. 2017
                 A. K. Wilson, D. E. Woon, K. A. Peterson, T. H. Dunning, Jr., J. Chem. Phys. 110, 7667 (1999)
             Y : Obtained from the ccRepo (grant-hill.group.shef.ac.uk/ccrepo) Feb. 2017
                 K. A. Peterson, D. Figgen, M. Dolg, H. Stoll, J. Chem. Phys. 126, 124101 (2007)
        Ag, Au : Obtained from the Peterson Research Group Website (tyr0.chem.wsu.edu/~kipeters) Feb. 2017
                 K. A. Peterson, C. Puzzarini, Theor. Chem. Acc. 114, 283 (2005)

----- AuxJ basis set information -----
Your calculation utilizes the AutoAux generation procedure.
  G. L. Stoychev, A. A. Auer, F. Neese, J. Chem. Theory Comput. 13, 554 (2017)

----- AuxC basis set information -----
Your calculation utilizes the AutoAux generation procedure.
  G. L. Stoychev, A. A. Auer, F. Neese, J. Chem. Theory Comput. 13, 554 (2017)

----- AuxJK basis set information -----
Your calculation utilizes the AutoAux generation procedure.
  G. L. Stoychev, A. A. Auer, F. Neese, J. Chem. Theory Comput. 13, 554 (2017)

================================================================================
                                        WARNINGS
                       Please study these warnings very carefully!
================================================================================


WARNING: MDCI localization with Augmented Hessian Foster-Boys
  ===> : Switching off randomization!

WARNING: Post HF methods need fully converged wavefunctions
  ===> : Setting SCFConvForced true
         You can overwrite this default with %scf ConvForced false 


INFO   : the flag for use of LIBINT has been found!

================================================================================
                                       INPUT FILE
================================================================================
NAME = argon.inp
|  1> ! DLPNO-CCSD(T) cc-pVTZ RIJCOSX AutoAux TightSCF Grid4 FinalGrid5 PrintBasis PrintMOs
|  2> %maxcore 1150
|  3> 
|  4> * xyzfile 0 1 init.xyz
|  5> 
|  6>                          ****END OF INPUT****
================================================================================

                       ****************************
                       * Single Point Calculation *
                       ****************************

---------------------------------
CARTESIAN COORDINATES (ANGSTROEM)
---------------------------------
  Ar     0.000000    0.000000    0.000000

----------------------------
CARTESIAN COORDINATES (A.U.)
----------------------------
  NO LB      ZA    FRAG     MASS         X           Y           Z
   0 Ar   18.0000    0    39.948    0.000000    0.000000    0.000000

--------------------------------
INTERNAL COORDINATES (ANGSTROEM)
--------------------------------
 Ar     0   0   0     0.000000000000     0.00000000     0.00000000

---------------------------
INTERNAL COORDINATES (A.U.)
---------------------------
 Ar     0   0   0     0.000000000000     0.00000000     0.00000000

---------------------
BASIS SET INFORMATION
---------------------
There are 1 groups of distinct atoms

 Group   1 Type Ar  : 41s16p2d1f contracted to 5s4p2d1f pattern {13131311/7711/11/1}

Atom   0Ar   basis set group =>   1

-------------------------
BASIS SET IN INPUT FORMAT
-------------------------

 # Basis set for element : Ar
 NewGTO Ar
 S 13 
   1  545000.0000000000      0.0000455817
   2   81640.0000000000      0.0003540993
   3   18580.0000000000      0.0018579246
   4    5261.0000000000      0.0077683200
   5    1717.0000000000      0.0274225293
   6     619.9000000000      0.0823815850
   7     241.6000000000      0.2012250782
   8      99.7900000000      0.3567722736
   9      43.1500000000      0.3495544502
  10      19.1400000000      0.1182631074
  11       7.4880000000      0.0056017630
  12       3.2050000000      0.0004834612
  13       0.5204000000      0.0000292018
 S 13 
   1  545000.0000000000     -0.0000138905
   2   81640.0000000000     -0.0001076794
   3   18580.0000000000     -0.0005678217
   4    5261.0000000000     -0.0023738198
   5    1717.0000000000     -0.0085438150
   6     619.9000000000     -0.0263551299
   7     241.6000000000     -0.0705294555
   8      99.7900000000     -0.1479021546
   9      43.1500000000     -0.2161887709
  10      19.1400000000     -0.0442642836
  11       7.4880000000      0.5196765040
  12       3.2050000000      0.6210470895
  13       0.5204000000     -0.0078008624
 S 13 
   1  545000.0000000000      0.0000062421
   2   81640.0000000000      0.0000483489
   3   18580.0000000000      0.0002553088
   4    5261.0000000000      0.0010660528
   5    1717.0000000000      0.0038499920
   6     619.9000000000      0.0118844979
   7     241.6000000000      0.0321689111
   8      99.7900000000      0.0684279475
   9      43.1500000000      0.1048423460
  10      19.1400000000      0.0217861552
  11       7.4880000000     -0.3198010291
  12       3.2050000000     -0.6551182396
  13       0.5204000000      1.1307330489
 S 1 
   1       1.1960000000      1.0000000000
 S 1 
   1       0.1954000000      1.0000000000
 P 7 
   1     761.8000000000      0.0024360729
   2     180.2000000000      0.0195521334
   3      57.5000000000      0.0905454602
   4      21.2400000000      0.2635511917
   5       8.3880000000      0.4509874399
   6       3.4160000000      0.3572950154
   7       0.4523000000     -0.0053854178
 P 7 
   1     761.8000000000     -0.0011415941
   2     180.2000000000     -0.0091147568
   3      57.5000000000     -0.0437148745
   4      21.2400000000     -0.1295559654
   5       8.3880000000     -0.2414777404
   6       3.4160000000     -0.1595960611
   7       0.4523000000      0.9623486717
 P 1 
   1       1.2060000000      1.0000000000
 P 1 
   1       0.1545000000      1.0000000000
 D 1 
   1       0.4100000000      1.0000000000
 D 1 
   1       1.2540000000      1.0000000000
 F 1 
   1       0.8900000000      1.0000000000
  end;

---------------------------------
AUXILIARY/J BASIS SET INFORMATION
---------------------------------
There are 1 groups of distinct atoms

 Group   1 Type Ar  : 17s15p13d8f5g contracted to 17s15p13d8f5g pattern {11111111111111111/111111111111111/1111111111111/11111111/11111}

Atom   0Ar   basis set group =>   1

-------------------------------------
AUXILIARY/J BASIS SET IN INPUT FORMAT
-------------------------------------

 # Auxiliary/J basis set for element : Ar
 NewAuxJGTO Ar
 S 1 
   1    3752.4815108848      1.0000000000
 S 1 
   1    2084.7119504915      1.0000000000
 S 1 
   1    1158.1733058286      1.0000000000
 S 1 
   1     643.4296143492      1.0000000000
 S 1 
   1     357.4608968607      1.0000000000
 S 1 
   1     198.5893871448      1.0000000000
 S 1 
   1     110.3274373027      1.0000000000
 S 1 
   1      61.2930207237      1.0000000000
 S 1 
   1      34.0516781798      1.0000000000
 S 1 
   1      18.9175989888      1.0000000000
 S 1 
   1      10.5097772160      1.0000000000
 S 1 
   1       5.8387651200      1.0000000000
 S 1 
   1       3.2437584000      1.0000000000
 S 1 
   1       1.8020880000      1.0000000000
 S 1 
   1       1.0011600000      1.0000000000
 S 1 
   1       0.5562000000      1.0000000000
 S 1 
   1       0.3090000000      1.0000000000
 P 1 
   1    1158.1733058286      1.0000000000
 P 1 
   1     643.4296143492      1.0000000000
 P 1 
   1     357.4608968607      1.0000000000
 P 1 
   1     198.5893871448      1.0000000000
 P 1 
   1     110.3274373027      1.0000000000
 P 1 
   1      61.2930207237      1.0000000000
 P 1 
   1      34.0516781798      1.0000000000
 P 1 
   1      18.9175989888      1.0000000000
 P 1 
   1      10.5097772160      1.0000000000
 P 1 
   1       5.8387651200      1.0000000000
 P 1 
   1       3.2437584000      1.0000000000
 P 1 
   1       1.8020880000      1.0000000000
 P 1 
   1       1.0011600000      1.0000000000
 P 1 
   1       0.5562000000      1.0000000000
 P 1 
   1       0.3090000000      1.0000000000
 D 1 
   1     357.4608968607      1.0000000000
 D 1 
   1     198.5893871448      1.0000000000
 D 1 
   1     110.3274373027      1.0000000000
 D 1 
   1      61.2930207237      1.0000000000
 D 1 
   1      34.0516781798      1.0000000000
 D 1 
   1      18.9175989888      1.0000000000
 D 1 
   1      10.5097772160      1.0000000000
 D 1 
   1       5.8387651200      1.0000000000
 D 1 
   1       3.2437584000      1.0000000000
 D 1 
   1       1.8020880000      1.0000000000
 D 1 
   1       1.0011600000      1.0000000000
 D 1 
   1       0.5562000000      1.0000000000
 D 1 
   1       0.3090000000      1.0000000000
 F 1 
   1     140.8065027776      1.0000000000
 F 1 
   1      64.0029558080      1.0000000000
 F 1 
   1      29.0922526400      1.0000000000
 F 1 
   1      13.2237512000      1.0000000000
 F 1 
   1       6.0107960000      1.0000000000
 F 1 
   1       2.7321800000      1.0000000000
 F 1 
   1       1.2419000000      1.0000000000
 F 1 
   1       0.5645000000      1.0000000000
 G 1 
   1      19.2089920000      1.0000000000
 G 1 
   1       8.7313600000      1.0000000000
 G 1 
   1       3.9688000000      1.0000000000
 G 1 
   1       1.8040000000      1.0000000000
 G 1 
   1       0.8200000000      1.0000000000
  end;

---------------------------------
AUXILIARY/C BASIS SET INFORMATION
---------------------------------
There are 1 groups of distinct atoms

 Group   1 Type Ar  : 17s15p13d8f5g contracted to 17s15p13d8f5g pattern {11111111111111111/111111111111111/1111111111111/11111111/11111}

Atom   0Ar   basis set group =>   1

-------------------------------------
AUXILIARY/C BASIS SET IN INPUT FORMAT
-------------------------------------

 # Auxiliary/C basis set for element : Ar
 NewAuxCGTO Ar
 S 1 
   1    3752.4815108848      1.0000000000
 S 1 
   1    2084.7119504915      1.0000000000
 S 1 
   1    1158.1733058286      1.0000000000
 S 1 
   1     643.4296143492      1.0000000000
 S 1 
   1     357.4608968607      1.0000000000
 S 1 
   1     198.5893871448      1.0000000000
 S 1 
   1     110.3274373027      1.0000000000
 S 1 
   1      61.2930207237      1.0000000000
 S 1 
   1      34.0516781798      1.0000000000
 S 1 
   1      18.9175989888      1.0000000000
 S 1 
   1      10.5097772160      1.0000000000
 S 1 
   1       5.8387651200      1.0000000000
 S 1 
   1       3.2437584000      1.0000000000
 S 1 
   1       1.8020880000      1.0000000000
 S 1 
   1       1.0011600000      1.0000000000
 S 1 
   1       0.5562000000      1.0000000000
 S 1 
   1       0.3090000000      1.0000000000
 P 1 
   1    1158.1733058286      1.0000000000
 P 1 
   1     643.4296143492      1.0000000000
 P 1 
   1     357.4608968607      1.0000000000
 P 1 
   1     198.5893871448      1.0000000000
 P 1 
   1     110.3274373027      1.0000000000
 P 1 
   1      61.2930207237      1.0000000000
 P 1 
   1      34.0516781798      1.0000000000
 P 1 
   1      18.9175989888      1.0000000000
 P 1 
   1      10.5097772160      1.0000000000
 P 1 
   1       5.8387651200      1.0000000000
 P 1 
   1       3.2437584000      1.0000000000
 P 1 
   1       1.8020880000      1.0000000000
 P 1 
   1       1.0011600000      1.0000000000
 P 1 
   1       0.5562000000      1.0000000000
 P 1 
   1       0.3090000000      1.0000000000
 D 1 
   1     357.4608968607      1.0000000000
 D 1 
   1     198.5893871448      1.0000000000
 D 1 
   1     110.3274373027      1.0000000000
 D 1 
   1      61.2930207237      1.0000000000
 D 1 
   1      34.0516781798      1.0000000000
 D 1 
   1      18.9175989888      1.0000000000
 D 1 
   1      10.5097772160      1.0000000000
 D 1 
   1       5.8387651200      1.0000000000
 D 1 
   1       3.2437584000      1.0000000000
 D 1 
   1       1.8020880000      1.0000000000
 D 1 
   1       1.0011600000      1.0000000000
 D 1 
   1       0.5562000000      1.0000000000
 D 1 
   1       0.3090000000      1.0000000000
 F 1 
   1     140.8065027776      1.0000000000
 F 1 
   1      64.0029558080      1.0000000000
 F 1 
   1      29.0922526400      1.0000000000
 F 1 
   1      13.2237512000      1.0000000000
 F 1 
   1       6.0107960000      1.0000000000
 F 1 
   1       2.7321800000      1.0000000000
 F 1 
   1       1.2419000000      1.0000000000
 F 1 
   1       0.5645000000      1.0000000000
 G 1 
   1      19.2089920000      1.0000000000
 G 1 
   1       8.7313600000      1.0000000000
 G 1 
   1       3.9688000000      1.0000000000
 G 1 
   1       1.8040000000      1.0000000000
 G 1 
   1       0.8200000000      1.0000000000
  end;

----------------------------------
AUXILIARY/JK BASIS SET INFORMATION
----------------------------------
There are 1 groups of distinct atoms

 Group   1 Type Ar  : 17s15p13d8f5g contracted to 17s15p13d8f5g pattern {11111111111111111/111111111111111/1111111111111/11111111/11111}

Atom   0Ar   basis set group =>   1

--------------------------------------
AUXILIARY/JK BASIS SET IN INPUT FORMAT
--------------------------------------

 # Auxiliary/JK basis set for element : Ar
 NewAuxJKGTO Ar
 S 1 
   1    3752.4815108848      1.0000000000
 S 1 
   1    2084.7119504915      1.0000000000
 S 1 
   1    1158.1733058286      1.0000000000
 S 1 
   1     643.4296143492      1.0000000000
 S 1 
   1     357.4608968607      1.0000000000
 S 1 
   1     198.5893871448      1.0000000000
 S 1 
   1     110.3274373027      1.0000000000
 S 1 
   1      61.2930207237      1.0000000000
 S 1 
   1      34.0516781798      1.0000000000
 S 1 
   1      18.9175989888      1.0000000000
 S 1 
   1      10.5097772160      1.0000000000
 S 1 
   1       5.8387651200      1.0000000000
 S 1 
   1       3.2437584000      1.0000000000
 S 1 
   1       1.8020880000      1.0000000000
 S 1 
   1       1.0011600000      1.0000000000
 S 1 
   1       0.5562000000      1.0000000000
 S 1 
   1       0.3090000000      1.0000000000
 P 1 
   1    1158.1733058286      1.0000000000
 P 1 
   1     643.4296143492      1.0000000000
 P 1 
   1     357.4608968607      1.0000000000
 P 1 
   1     198.5893871448      1.0000000000
 P 1 
   1     110.3274373027      1.0000000000
 P 1 
   1      61.2930207237      1.0000000000
 P 1 
   1      34.0516781798      1.0000000000
 P 1 
   1      18.9175989888      1.0000000000
 P 1 
   1      10.5097772160      1.0000000000
 P 1 
   1       5.8387651200      1.0000000000
 P 1 
   1       3.2437584000      1.0000000000
 P 1 
   1       1.8020880000      1.0000000000
 P 1 
   1       1.0011600000      1.0000000000
 P 1 
   1       0.5562000000      1.0000000000
 P 1 
   1       0.3090000000      1.0000000000
 D 1 
   1     357.4608968607      1.0000000000
 D 1 
   1     198.5893871448      1.0000000000
 D 1 
   1     110.3274373027      1.0000000000
 D 1 
   1      61.2930207237      1.0000000000
 D 1 
   1      34.0516781798      1.0000000000
 D 1 
   1      18.9175989888      1.0000000000
 D 1 
   1      10.5097772160      1.0000000000
 D 1 
   1       5.8387651200      1.0000000000
 D 1 
   1       3.2437584000      1.0000000000
 D 1 
   1       1.8020880000      1.0000000000
 D 1 
   1       1.0011600000      1.0000000000
 D 1 
   1       0.5562000000      1.0000000000
 D 1 
   1       0.3090000000      1.0000000000
 F 1 
   1     140.8065027776      1.0000000000
 F 1 
   1      64.0029558080      1.0000000000
 F 1 
   1      29.0922526400      1.0000000000
 F 1 
   1      13.2237512000      1.0000000000
 F 1 
   1       6.0107960000      1.0000000000
 F 1 
   1       2.7321800000      1.0000000000
 F 1 
   1       1.2419000000      1.0000000000
 F 1 
   1       0.5645000000      1.0000000000
 G 1 
   1      19.2089920000      1.0000000000
 G 1 
   1       8.7313600000      1.0000000000
 G 1 
   1       3.9688000000      1.0000000000
 G 1 
   1       1.8040000000      1.0000000000
 G 1 
   1       0.8200000000      1.0000000000
  end;

------------------------------------------------------------------------------
                           ORCA GTO INTEGRAL CALCULATION
                           -- RI-GTO INTEGRALS CHOSEN --
------------------------------------------------------------------------------

                         BASIS SET STATISTICS AND STARTUP INFO

Gaussian basis set:
 # of primitive gaussian shells          ...   60
 # of primitive gaussian functions       ...  106
 # of contracted shells                  ...   12
 # of contracted basis functions         ...   34
 Highest angular momentum                ...    3
 Maximum contraction depth               ...   13
Auxiliary gaussian basis set:
 # of primitive gaussian shells          ...   58
 # of primitive gaussian functions       ...  228
 # of contracted shells                  ...   58
 # of contracted aux-basis functions     ...  228
 Highest angular momentum                ...    4
 Maximum contraction depth               ...    1
Ratio of auxiliary to basis functions    ...  6.71
Integral package used                  ... LIBINT
 One Electron integrals                  ... done
 Ordering auxiliary basis shells         ... done
 Integral threshhold             Thresh  ...  2.500e-11
 Primitive cut-off               TCut    ...  2.500e-12
 Pre-screening matrix                    ... done
 Shell pair data                         ... 
 Ordering of the shell pairs             ... done (   0.000 sec) 78 of 78 pairs
 Determination of significant pairs      ... done (   0.000 sec)
 Creation of shell pair data             ... done (   0.000 sec)
 Storage of shell pair data              ... done (   0.000 sec)
 Shell pair data done in (   0.000 sec)
 Computing two index integrals           ... done
 Cholesky decomposition of the V-matrix  ... done


Timings:
 Total evaluation time                   ...   0.101 sec (  0.002 min)
 One electron matrix time                ...   0.003 sec (  0.000 min) =  2.8%
 Schwartz matrix evaluation time         ...   0.078 sec (  0.001 min) = 76.7%
 Two index repulsion integral time       ...   0.001 sec (  0.000 min) =  0.6%
 Cholesky decomposition of V             ...   0.001 sec (  0.000 min) =  1.1%
 Three index repulsion integral time     ...   0.000 sec (  0.000 min) =  0.0%

-------------------------------------------------------------------------------
                                 ORCA SCF
-------------------------------------------------------------------------------

------------
SCF SETTINGS
------------
Hamiltonian:
 Ab initio Hamiltonian  Method          .... Hartree-Fock(GTOs)
 RI-approximation to the Coulomb term is turned on
   Number of auxiliary basis functions  .... 228
   RIJ-COSX (HFX calculated with COS-X)).... on


General Settings:
 Integral files         IntName         .... argon
 Hartree-Fock type      HFTyp           .... RHF
 Total Charge           Charge          ....    0
 Multiplicity           Mult            ....    1
 Number of Electrons    NEL             ....   18
 Basis Dimension        Dim             ....   34
 Nuclear Repulsion      ENuc            ....      0.0000000000 Eh

Convergence Acceleration:
 DIIS                   CNVDIIS         .... on
   Start iteration      DIISMaxIt       ....    12
   Startup error        DIISStart       ....  0.200000
   # of expansion vecs  DIISMaxEq       ....     5
   Bias factor          DIISBfac        ....   1.050
   Max. coefficient     DIISMaxC        ....  10.000
 Newton-Raphson         CNVNR           .... off
 SOSCF                  CNVSOSCF        .... on
   Start iteration      SOSCFMaxIt      ....   150
   Startup grad/error   SOSCFStart      ....  0.003300
 Level Shifting         CNVShift        .... on
   Level shift para.    LevelShift      ....    0.2500
   Turn off err/grad.   ShiftErr        ....    0.0010
 Zerner damping         CNVZerner       .... off
 Static damping         CNVDamp         .... on
   Fraction old density DampFac         ....    0.7000
   Max. Damping (<1)    DampMax         ....    0.9800
   Min. Damping (>=0)   DampMin         ....    0.0000
   Turn off err/grad.   DampErr         ....    0.1000
 Fernandez-Rico         CNVRico         .... off

SCF Procedure:
 Maximum # iterations   MaxIter         ....   125
 SCF integral mode      SCFMode         .... Direct
   Integral package                     .... LIBINT
 Reset frequency        DirectResetFreq ....    20
 Integral Threshold     Thresh          ....  2.500e-11 Eh
 Primitive CutOff       TCut            ....  2.500e-12 Eh

Convergence Tolerance:
 Convergence Check Mode ConvCheckMode   .... Total+1el-Energy
 Convergence forced     ConvForced      .... 1
 Energy Change          TolE            ....  1.000e-08 Eh
 1-El. energy change                    ....  1.000e-05 Eh
 Orbital Gradient       TolG            ....  1.000e-05
 Orbital Rotation angle TolX            ....  1.000e-05
 DIIS Error             TolErr          ....  5.000e-07


Diagonalization of the overlap matrix:
Smallest eigenvalue                        ... 1.878e-02
Time for diagonalization                   ...    0.000 sec
Threshold for overlap eigenvalues          ... 1.000e-08
Number of eigenvalues below threshold      ... 0
Time for construction of square roots      ...    0.000 sec
Total time needed                          ...    0.001 sec

-------------------
DFT GRID GENERATION
-------------------

General Integration Accuracy     IntAcc      ...  4.670
Radial Grid Type                 RadialGrid  ... Gauss-Chebyshev
Angular Grid (max. acc.)         AngularGrid ... Lebedev-302
Angular grid pruning method      GridPruning ... 3 (G Style)
Weight generation scheme         WeightScheme... Becke
Basis function cutoff            BFCut       ...    1.0000e-11
Integration weight cutoff        WCut        ...    1.0000e-14
Grids for H and He will be reduced by one unit

# of grid points (after initial pruning)     ...   6822 (   0.0 sec)
# of grid points (after weights+screening)   ...   6822 (   0.0 sec)
Grid point division into batches done        ...    0.0 sec
Reduced shell lists constructed in    0.1 sec

Total number of grid points                  ...     6822
Total number of batches                      ...      107
Average number of points per batch           ...       63
Average number of grid points per atom       ...     6822
Average number of shells per batch           ...     9.94 (82.79%)
Average number of basis functions per batch  ...    28.16 (82.82%)
Average number of large shells per batch     ...     9.13 (91.89%)
Average number of large basis fcns per batch ...    26.33 (93.52%)
Maximum spatial batch extension              ...  25.31, 19.50, 17.78 au
Average spatial batch extension              ...   4.90,  4.71,  4.47 au

Time for grid setup =    0.059 sec

------------------------------
INITIAL GUESS: MODEL POTENTIAL
------------------------------
Loading Hartree-Fock densities                     ... done
Calculating cut-offs                               ... done
Setting up the integral package                    ... done
Initializing the effective Hamiltonian             ... done
Starting the Coulomb interaction                   ... done (   0.0 sec)
Reading the grid                                   ... done
Mapping shells                                     ... done
Starting the XC term evaluation                    ... done (   0.0 sec)
Transforming the Hamiltonian                       ... done (   0.0 sec)
Diagonalizing the Hamiltonian                      ... done (   0.0 sec)
Back transforming the eigenvectors                 ... done (   0.0 sec)
Now organizing SCF variables                       ... done
                      ------------------
                      INITIAL GUESS DONE (   0.1 sec)
                      ------------------
--------------------
COSX GRID GENERATION
--------------------

General Integration Accuracy     IntAcc      ...  3.340
Radial Grid Type                 RadialGrid  ... Gauss-Chebyshev
Angular Grid (max. acc.)         AngularGrid ... Lebedev-50
Angular grid pruning method      GridPruning ... 3 (G Style)
Weight generation scheme         WeightScheme... Becke
Basis function cutoff            BFCut       ...    1.0000e-11
Integration weight cutoff        WCut        ...    1.0000e-14
Grids for H and He will be reduced by one unit

# of grid points (after initial pruning)     ...    696 (   0.0 sec)
# of grid points (after weights+screening)   ...    696 (   0.0 sec)
Grid point division into batches done        ...    0.0 sec
Reduced shell lists constructed in    0.0 sec

Total number of grid points                  ...      696
Total number of batches                      ...       11
Average number of points per batch           ...       63
Average number of grid points per atom       ...      696
Average number of shells per batch           ...    11.00 (91.67%)
Average number of basis functions per batch  ...    31.17 (91.67%)
Average number of large shells per batch     ...    10.83 (98.48%)
Average number of large basis fcns per batch ...    31.00 (99.47%)
Maximum spatial batch extension              ...  20.57, 25.19, 25.19 au
Average spatial batch extension              ...   9.30, 10.32, 12.86 au

Overlap Fitting                  UseSFitting ... on
Constructing numerical overlap ... done (      0.0 sec)
Inverting numerical overlap    ... done (      0.0 sec)
Obtaining analytic overlap     ... done (      0.0 sec)
Final contraction and storage  ... done (      0.0 sec)


General Integration Accuracy     IntAcc      ...  3.670
Radial Grid Type                 RadialGrid  ... Gauss-Chebyshev
Angular Grid (max. acc.)         AngularGrid ... Lebedev-50
Angular grid pruning method      GridPruning ... 3 (G Style)
Weight generation scheme         WeightScheme... Becke
Basis function cutoff            BFCut       ...    1.0000e-11
Integration weight cutoff        WCut        ...    1.0000e-14
Grids for H and He will be reduced by one unit

# of grid points (after initial pruning)     ...    846 (   0.0 sec)
# of grid points (after weights+screening)   ...    846 (   0.0 sec)
Grid point division into batches done        ...    0.0 sec
Reduced shell lists constructed in    0.0 sec

Total number of grid points                  ...      846
Total number of batches                      ...       14
Average number of points per batch           ...       60
Average number of grid points per atom       ...      846
Average number of shells per batch           ...    11.20 (93.33%)
Average number of basis functions per batch  ...    31.73 (93.33%)
Average number of large shells per batch     ...    10.93 (97.62%)
Average number of large basis fcns per batch ...    31.47 (99.16%)
Maximum spatial batch extension              ...  22.03, 26.98, 26.98 au
Average spatial batch extension              ...   7.45, 10.59, 11.38 au

Overlap Fitting                  UseSFitting ... on
Constructing numerical overlap ... done (      0.0 sec)
Inverting numerical overlap    ... done (      0.0 sec)
Obtaining analytic overlap     ... done (      0.0 sec)
Final contraction and storage  ... done (      0.0 sec)


General Integration Accuracy     IntAcc      ...  4.010
Radial Grid Type                 RadialGrid  ... Gauss-Chebyshev
Angular Grid (max. acc.)         AngularGrid ... Lebedev-110
Angular grid pruning method      GridPruning ... 3 (G Style)
Weight generation scheme         WeightScheme... Becke
Basis function cutoff            BFCut       ...    1.0000e-11
Integration weight cutoff        WCut        ...    1.0000e-14
Grids for H and He will be reduced by one unit

# of grid points (after initial pruning)     ...   1610 (   0.0 sec)
# of grid points (after weights+screening)   ...   1610 (   0.0 sec)
Grid point division into batches done        ...    0.0 sec
Reduced shell lists constructed in    0.0 sec

Total number of grid points                  ...     1610
Total number of batches                      ...       26
Average number of points per batch           ...       61
Average number of grid points per atom       ...     1610
Average number of shells per batch           ...    11.33 (94.44%)
Average number of basis functions per batch  ...    32.07 (94.34%)
Average number of large shells per batch     ...    10.15 (89.54%)
Average number of large basis fcns per batch ...    29.41 (91.69%)
Maximum spatial batch extension              ...  15.43, 28.50, 28.50 au
Average spatial batch extension              ...   7.60,  9.10, 10.29 au

Overlap Fitting                  UseSFitting ... on
Constructing numerical overlap ... done (      0.0 sec)
Inverting numerical overlap    ... done (      0.0 sec)
Obtaining analytic overlap     ... done (      0.0 sec)
Final contraction and storage  ... done (      0.0 sec)

Time for X-Grid setup             =    0.086 sec
--------------
SCF ITERATIONS
--------------
ITER       Energy         Delta-E        Max-DP      RMS-DP      [F,P]     Damp
               ***  Starting incremental Fock matrix formation  ***
  0   -526.7996752936   0.000000000000 0.04081003  0.00192294  0.1479914 0.7000
  1   -526.8036460173  -0.003970723692 0.02945094  0.00145684  0.1060143 0.7000
                               ***Turning on DIIS***
  2   -526.8064150016  -0.002768984336 0.06964689  0.00353980  0.0755410 0.0000
  3   -526.8127393476  -0.006324345994 0.00611171  0.00041079  0.0040254 0.0000
                      *** Initiating the SOSCF procedure ***
                           *** Shutting down DIIS ***
                      *** Re-Reading the Fockian *** 
                      *** Removing any level shift *** 
ITER      Energy       Delta-E        Grad      Rot      Max-DP    RMS-DP
  4   -526.81286770  -0.0001283496  0.000644  0.000644  0.001638  0.000108
               *** Restarting incremental Fock matrix formation ***
  5   -526.80998653   0.0028811663  0.023129  0.014753  0.019292  0.001440
  6   -526.81291528  -0.0029287514  0.004242  0.001560  0.002664  0.000239
  7   -526.81298679  -0.0000715066  0.000601  0.000440  0.000621  0.000044
  8   -526.81298936  -0.0000025750  0.000246  0.000265  0.000219  0.000021
  9   -526.81298983  -0.0000004709  0.000048  0.000023  0.000056  0.000004
 10   -526.81298985  -0.0000000184  0.000011  0.000010  0.000026  0.000002
                  ***Gradient check signals convergence***
              ***Rediagonalizing the Fockian in SOSCF/NRSCF***

               *****************************************************
               *                     SUCCESS                       *
               *           SCF CONVERGED AFTER  11 CYCLES          *
               *****************************************************

Old exchange energy                            =    -30.186093515 Eh
New exchange energy                            =    -30.186591745 Eh
Exchange energy change after final integration =     -0.000498230 Eh
Total energy after final integration           =   -526.813488082 Eh
Final COS-X integration done in                =     0.140 sec

----------------
TOTAL SCF ENERGY
----------------

Total Energy       :         -526.81348808 Eh          -14335.32380 eV

Components:
Nuclear Repulsion  :            0.00000000 Eh               0.00000 eV
Electronic Energy  :         -526.81348808 Eh          -14335.32380 eV
One Electron Energy:         -728.25201303 Eh          -19816.74474 eV
Two Electron Energy:          201.43852494 Eh            5481.42093 eV

Virial components:
Potential Energy   :        -1053.62611754 Eh          -28670.62424 eV
Kinetic Energy     :          526.81262946 Eh           14335.30044 eV
Virial Ratio       :            2.00000163


---------------
SCF CONVERGENCE
---------------

  Last Energy change         ...    1.4654e-09  Tolerance :   1.0000e-08
  Last MAX-Density change    ...    3.5527e-15  Tolerance :   1.0000e-07
  Last RMS-Density change    ...    1.2472e-16  Tolerance :   5.0000e-09
  Last Orbital Gradient      ...    1.3003e-06  Tolerance :   1.0000e-05
  Last Orbital Rotation      ...    1.1450e-06  Tolerance :   1.0000e-05

             **** THE GBW FILE WAS UPDATED (argon.gbw) ****
             **** DENSITY FILE WAS UPDATED (argon.scfp) ****
             **** ENERGY FILE WAS UPDATED (argon.en.tmp) ****
             **** THE GBW FILE WAS UPDATED (argon.gbw) ****
             **** DENSITY FILE WAS UPDATED (argon.scfp) ****
----------------
ORBITAL ENERGIES
----------------

  NO   OCC          E(Eh)            E(eV) 
   0   2.0000    -118.609213     -3227.5208 
   1   2.0000     -12.321027      -335.2722 
   2   2.0000      -9.569926      -260.4109 
   3   2.0000      -9.569926      -260.4109 
   4   2.0000      -9.569925      -260.4109 
   5   2.0000      -1.276510       -34.7356 
   6   2.0000      -0.590145       -16.0587 
   7   2.0000      -0.590145       -16.0587 
   8   2.0000      -0.590145       -16.0587 
   9   0.0000       0.550077        14.9683 
  10   0.0000       0.550077        14.9683 
  11   0.0000       0.550077        14.9684 
  12   0.0000       0.706811        19.2333 
  13   0.0000       0.728873        19.8337 
  14   0.0000       0.728873        19.8337 
  15   0.0000       0.728873        19.8337 
  16   0.0000       0.728874        19.8337 
  17   0.0000       0.728874        19.8337 
  18   0.0000       2.547339        69.3166 
  19   0.0000       2.547339        69.3166 
  20   0.0000       2.547339        69.3166 
  21   0.0000       2.547347        69.3168 
  22   0.0000       2.547348        69.3169 
  23   0.0000       2.908402        79.1417 
  24   0.0000       2.908403        79.1417 
  25   0.0000       2.908403        79.1417 
  26   0.0000       2.924453        79.5784 
  27   0.0000       2.924453        79.5784 
  28   0.0000       2.924453        79.5784 
  29   0.0000       2.924453        79.5784 
  30   0.0000       2.924453        79.5784 
  31   0.0000       2.924453        79.5784 
  32   0.0000       2.924453        79.5784 
  33   0.0000       5.402761       147.0166 
------------------
MOLECULAR ORBITALS
------------------
                      0         1         2         3         4         5   
                 -118.60921 -12.32103  -9.56993  -9.56993  -9.56993  -1.27651
                   2.00000   2.00000   2.00000   2.00000   2.00000   2.00000
                  --------  --------  --------  --------  --------  --------
  0Ar  1s        -1.000023  0.000001  0.000000  0.000000  0.000000 -0.000001
  0Ar  2s         0.000006  0.932658  0.000000  0.000000  0.000000 -0.000006
  0Ar  3s         0.000003  0.000000  0.000000  0.000000  0.000000 -0.648815
  0Ar  4s         0.000144  0.087907 -0.000000 -0.000000 -0.000000 -0.070485
  0Ar  5s         0.000022  0.002329 -0.000000 -0.000000  0.000000 -0.395996
  0Ar  1pz        0.000000 -0.000000 -0.149911  0.961152  0.002839 -0.000000
  0Ar  1px       -0.000000  0.000000  0.000327  0.002924 -0.972772 -0.000000
  0Ar  1py        0.000000 -0.000000  0.961156  0.149909  0.000774 -0.000000
  0Ar  2pz        0.000000  0.000000  0.000000 -0.000001 -0.000000 -0.000000
  0Ar  2px       -0.000000 -0.000000 -0.000000 -0.000000  0.000002 -0.000000
  0Ar  2py        0.000000  0.000000 -0.000002 -0.000000 -0.000000 -0.000000
  0Ar  3pz       -0.000000 -0.000000 -0.008734  0.055999  0.000165 -0.000000
  0Ar  3px        0.000000  0.000000  0.000019  0.000170 -0.056676  0.000000
  0Ar  3py       -0.000000 -0.000000  0.055999  0.008734  0.000045 -0.000000
  0Ar  4pz        0.000000 -0.000000 -0.000253  0.001625  0.000005  0.000000
  0Ar  4px        0.000000  0.000000  0.000001  0.000005 -0.001644 -0.000000
  0Ar  4py       -0.000000 -0.000000  0.001625  0.000253  0.000001  0.000000
  0Ar  1dz2       0.000000 -0.000000  0.000000  0.000000  0.000000  0.000000
  0Ar  1dxz      -0.000000  0.000000 -0.000000 -0.000000  0.000000 -0.000000
  0Ar  1dyz      -0.000000  0.000000  0.000000  0.000000  0.000000 -0.000000
  0Ar  1dx2y2     0.000000 -0.000000 -0.000000 -0.000000 -0.000000  0.000000
  0Ar  1dxy      -0.000000 -0.000000  0.000000 -0.000000  0.000000  0.000000
  0Ar  2dz2      -0.000000 -0.000000 -0.000000 -0.000000 -0.000000 -0.000000
  0Ar  2dxz      -0.000000  0.000000  0.000000  0.000000 -0.000000 -0.000000
  0Ar  2dyz       0.000000 -0.000000 -0.000000 -0.000000 -0.000000  0.000000
  0Ar  2dx2y2    -0.000000  0.000000  0.000000  0.000000  0.000000 -0.000000
  0Ar  2dxy      -0.000000  0.000000  0.000000  0.000000 -0.000000  0.000000
  0Ar  1f0        0.000000  0.000000  0.000000 -0.000001 -0.000000  0.000000
  0Ar  1f+1      -0.000000 -0.000000  0.000000  0.000000 -0.000001 -0.000000
  0Ar  1f-1       0.000000  0.000000  0.000001  0.000000  0.000000  0.000000
  0Ar  1f+2      -0.000000 -0.000000  0.000000 -0.000000 -0.000000 -0.000000
  0Ar  1f-2      -0.000000 -0.000000 -0.000000  0.000000  0.000000  0.000000
  0Ar  1f+3      -0.000000 -0.000000  0.000000  0.000000 -0.000001 -0.000000
  0Ar  1f-3       0.000000  0.000000 -0.000001 -0.000000 -0.000000  0.000000
                      6         7         8         9        10        11   
                  -0.59015  -0.59015  -0.59014   0.55008   0.55008   0.55008
                   2.00000   2.00000   2.00000   0.00000   0.00000   0.00000
                  --------  --------  --------  --------  --------  --------
  0Ar  1s         0.000000 -0.000000  0.000000 -0.000000 -0.000000 -0.000000
  0Ar  2s         0.000000 -0.000000  0.000000 -0.000001 -0.000001 -0.000000
  0Ar  3s         0.000000 -0.000000  0.000000 -0.000002 -0.000001 -0.000000
  0Ar  4s        -0.000000  0.000000 -0.000000  0.000000  0.000000 -0.000000
  0Ar  5s        -0.000000  0.000000 -0.000000  0.000002  0.000002  0.000000
  0Ar  1pz        0.000001  0.000000 -0.000004 -0.009381 -0.404374 -0.000213
  0Ar  1px       -0.000000  0.000004  0.000000 -0.000068  0.000214 -0.404483
  0Ar  1py       -0.000004 -0.000000 -0.000001 -0.404374  0.009381  0.000073
  0Ar  2pz       -0.208694 -0.001707  0.545911 -0.026955 -1.161904 -0.000612
  0Ar  2px        0.002016 -0.584440 -0.001057 -0.000196  0.000616 -1.162216
  0Ar  2py        0.545910  0.001506  0.208698 -1.161904  0.026955  0.000210
  0Ar  3pz       -0.101008 -0.000826  0.264221 -0.001138 -0.049049 -0.000026
  0Ar  3px        0.000976 -0.282869 -0.000512 -0.000008  0.000026 -0.049062
  0Ar  3py        0.264221  0.000729  0.101010 -0.049049  0.001138  0.000009
  0Ar  4pz       -0.116077 -0.000950  0.303641  0.032172  1.386758  0.000730
  0Ar  4px        0.001122 -0.325071 -0.000588  0.000234 -0.000735  1.387132
  0Ar  4py        0.303640  0.000838  0.116080  1.386759 -0.032172 -0.000251
  0Ar  1dz2      -0.000000  0.000000  0.000000  0.000000  0.000000  0.000000
  0Ar  1dxz      -0.000000  0.000000 -0.000000  0.000000 -0.000000 -0.000000
  0Ar  1dyz      -0.000000  0.000000 -0.000000  0.000000  0.000000  0.000000
  0Ar  1dx2y2    -0.000000 -0.000000 -0.000000  0.000000 -0.000000  0.000000
  0Ar  1dxy       0.000000  0.000000 -0.000000 -0.000000  0.000000 -0.000000
  0Ar  2dz2      -0.000000 -0.000000 -0.000000  0.000000  0.000000 -0.000000
  0Ar  2dxz      -0.000000 -0.000000 -0.000000  0.000000 -0.000000 -0.000000
  0Ar  2dyz      -0.000000  0.000000 -0.000000  0.000000  0.000000  0.000000
  0Ar  2dx2y2    -0.000000  0.000000 -0.000000  0.000000 -0.000000  0.000000
  0Ar  2dxy       0.000000 -0.000000 -0.000000 -0.000000  0.000000 -0.000000
  0Ar  1f0       -0.000000 -0.000000  0.000001 -0.000000 -0.000001 -0.000000
  0Ar  1f+1      -0.000000  0.000001  0.000000  0.000000 -0.000000  0.000001
  0Ar  1f-1      -0.000001 -0.000000 -0.000000  0.000001 -0.000000 -0.000000
  0Ar  1f+2       0.000000  0.000000 -0.000000  0.000000  0.000000 -0.000000
  0Ar  1f-2      -0.000000  0.000000 -0.000000 -0.000000 -0.000000  0.000000
  0Ar  1f+3      -0.000000  0.000001  0.000000  0.000000 -0.000000  0.000001
  0Ar  1f-3       0.000001  0.000000  0.000000 -0.000001  0.000000  0.000000
                     12        13        14        15        16        17   
                   0.70681   0.72887   0.72887   0.72887   0.72887   0.72887
                   0.00000   0.00000   0.00000   0.00000   0.00000   0.00000
                  --------  --------  --------  --------  --------  --------
  0Ar  1s        -0.178044  0.000000  0.000000  0.000000 -0.000000 -0.000000
  0Ar  2s        -1.096062  0.000002  0.000000  0.000000 -0.000001 -0.000002
  0Ar  3s        -1.903826  0.000004  0.000000  0.000000 -0.000001 -0.000003
  0Ar  4s        -0.000423  0.000000  0.000000  0.000000 -0.000000  0.000000
  0Ar  5s         1.966381 -0.000004 -0.000000 -0.000000  0.000002  0.000003
  0Ar  1pz        0.000000  0.000000 -0.000000  0.000000 -0.000000 -0.000000
  0Ar  1px        0.000000  0.000000  0.000000  0.000000 -0.000000  0.000000
  0Ar  1py        0.000000  0.000000  0.000000 -0.000000 -0.000000 -0.000000
  0Ar  2pz        0.000001  0.000001 -0.000000  0.000000 -0.000000 -0.000000
  0Ar  2px        0.000000  0.000000  0.000000  0.000000 -0.000000  0.000000
  0Ar  2py        0.000001  0.000001  0.000000 -0.000000 -0.000000 -0.000000
  0Ar  3pz        0.000000 -0.000000 -0.000000 -0.000000  0.000000  0.000000
  0Ar  3px        0.000000  0.000000  0.000000 -0.000000 -0.000000 -0.000000
  0Ar  3py        0.000000  0.000000 -0.000000 -0.000000  0.000000  0.000000
  0Ar  4pz       -0.000001 -0.000001  0.000000 -0.000000  0.000000  0.000000
  0Ar  4px       -0.000000 -0.000000 -0.000000 -0.000000  0.000000 -0.000000
  0Ar  4py       -0.000001 -0.000000 -0.000000  0.000000  0.000000  0.000000
  0Ar  1dz2       0.000002  0.017725 -0.000066  0.000208 -0.628734 -0.604678
  0Ar  1dxz      -0.000000  0.000098  0.023544 -0.872181 -0.000126 -0.000169
  0Ar  1dyz       0.000002  0.872075 -0.001814  0.000044 -0.001464  0.027086
  0Ar  1dx2y2    -0.000000 -0.020534 -0.000130 -0.000041 -0.604936  0.628401
  0Ar  1dxy      -0.000000 -0.001810 -0.872179 -0.023544  0.000138 -0.000109
  0Ar  2dz2       0.000000  0.003940 -0.000015  0.000046 -0.139768 -0.134421
  0Ar  2dxz      -0.000000  0.000022  0.005234 -0.193889 -0.000028 -0.000038
  0Ar  2dyz       0.000000  0.193865 -0.000403  0.000010 -0.000326  0.006021
  0Ar  2dx2y2    -0.000000 -0.004565 -0.000029 -0.000009 -0.134478  0.139694
  0Ar  2dxy      -0.000000 -0.000402 -0.193888 -0.005234  0.000031 -0.000024
  0Ar  1f0       -0.000000  0.000000 -0.000000  0.000000  0.000000  0.000000
  0Ar  1f+1       0.000000 -0.000000 -0.000000  0.000000 -0.000000 -0.000000
  0Ar  1f-1      -0.000000 -0.000000  0.000000 -0.000000  0.000000  0.000000
  0Ar  1f+2       0.000000  0.000000 -0.000000 -0.000000  0.000000 -0.000000
  0Ar  1f-2       0.000000  0.000000  0.000000  0.000000 -0.000000  0.000000
  0Ar  1f+3       0.000000 -0.000000  0.000000 -0.000000  0.000000 -0.000000
  0Ar  1f-3      -0.000000  0.000000  0.000000 -0.000000 -0.000000  0.000000
                     18        19        20        21        22        23   
                   2.54734   2.54734   2.54734   2.54735   2.54735   2.90840
                   0.00000   0.00000   0.00000   0.00000   0.00000   0.00000
                  --------  --------  --------  --------  --------  --------
  0Ar  1s        -0.000000  0.000000 -0.000000 -0.000000  0.000000  0.000000
  0Ar  2s        -0.000000  0.000000 -0.000000 -0.000000  0.000001  0.000000
  0Ar  3s        -0.000000  0.000000 -0.000000 -0.000000  0.000001  0.000000
  0Ar  4s         0.000000 -0.000000  0.000000  0.000000 -0.000001 -0.000000
  0Ar  5s         0.000000 -0.000000  0.000000  0.000000 -0.000000 -0.000000
  0Ar  1pz        0.000000  0.000008 -0.000000  0.000004  0.000006 -1.301770
  0Ar  1px       -0.000003  0.000000 -0.000009 -0.000000 -0.000000  0.000081
  0Ar  1py       -0.000000  0.000001 -0.000000  0.000008  0.000001 -0.977269
  0Ar  2pz        0.000000  0.000011 -0.000000  0.000005  0.000007 -1.688855
  0Ar  2px       -0.000003  0.000000 -0.000012 -0.000000 -0.000000  0.000105
  0Ar  2py       -0.000000  0.000002 -0.000000  0.000010  0.000001 -1.267863
  0Ar  3pz       -0.000000 -0.000010  0.000000 -0.000005 -0.000007  1.558556
  0Ar  3px        0.000003 -0.000000  0.000011  0.000000  0.000000 -0.000097
  0Ar  3py        0.000000 -0.000002  0.000000 -0.000009 -0.000001  1.170045
  0Ar  4pz       -0.000000 -0.000004  0.000000 -0.000002 -0.000003  0.593160
  0Ar  4px        0.000001 -0.000000  0.000004  0.000000  0.000000 -0.000037
  0Ar  4py        0.000000 -0.000001  0.000000 -0.000003 -0.000000  0.445299
  0Ar  1dz2       0.000003  0.010568 -0.000078  0.867665  0.177961  0.000005
  0Ar  1dxz      -0.216642 -0.000691  0.858890  0.000071  0.000078 -0.000000
  0Ar  1dyz      -0.000528  0.885701  0.000581 -0.008977 -0.008827  0.000004
  0Ar  1dx2y2     0.000095 -0.006842  0.000083  0.178048 -0.867684 -0.000002
  0Ar  1dxy       0.858890  0.000370  0.216643 -0.000010  0.000109 -0.000000
  0Ar  2dz2      -0.000004 -0.014652  0.000108 -1.202983 -0.246735 -0.000007
  0Ar  2dxz       0.300365  0.000958 -1.190815 -0.000098 -0.000108  0.000000
  0Ar  2dyz       0.000731 -1.227988 -0.000805  0.012447  0.012238 -0.000006
  0Ar  2dx2y2    -0.000131  0.009487 -0.000114 -0.246856  1.203010  0.000003
  0Ar  2dxy      -1.190815 -0.000514 -0.300366  0.000014 -0.000151  0.000000
  0Ar  1f0       -0.000000 -0.000000  0.000000  0.000000  0.000000  0.000350
  0Ar  1f+1      -0.000000  0.000000  0.000000 -0.000000 -0.000000  0.000000
  0Ar  1f-1       0.000000  0.000000  0.000000  0.000000 -0.000000 -0.000157
  0Ar  1f+2       0.000000 -0.000000 -0.000000  0.000000 -0.000000  0.000005
  0Ar  1f-2       0.000000 -0.000000  0.000000  0.000000  0.000000  0.000000
  0Ar  1f+3       0.000000  0.000000  0.000000  0.000000 -0.000000  0.000000
  0Ar  1f-3       0.000000  0.000000 -0.000000 -0.000000  0.000000  0.000201
                     24        25        26        27        28        29   
                   2.90840   2.90840   2.92445   2.92445   2.92445   2.92445
                   0.00000   0.00000   0.00000   0.00000   0.00000   0.00000
                  --------  --------  --------  --------  --------  --------
  0Ar  1s        -0.000000 -0.000000  0.000000 -0.000000  0.000000 -0.000000
  0Ar  2s        -0.000000 -0.000000  0.000000 -0.000001  0.000000 -0.000001
  0Ar  3s        -0.000000 -0.000000  0.000000 -0.000001  0.000000 -0.000001
  0Ar  4s         0.000000  0.000000 -0.000000  0.000001 -0.000000  0.000001
  0Ar  5s         0.000000 -0.000000 -0.000000  0.000000  0.000000  0.000000
  0Ar  1pz       -0.977268 -0.001280 -0.000002  0.000259  0.000002 -0.000361
  0Ar  1px        0.002024 -1.627776  0.000001  0.000000 -0.000238 -0.000002
  0Ar  1py        1.301769  0.001570 -0.000001  0.000163 -0.000002  0.000276
  0Ar  2pz       -1.267862 -0.001661 -0.000002  0.000335  0.000003 -0.000467
  0Ar  2px        0.002626 -2.111800  0.000001  0.000000 -0.000307 -0.000002
  0Ar  2py        1.688854  0.002037 -0.000002  0.000210 -0.000003  0.000357
  0Ar  3pz        1.170044  0.001533  0.000002 -0.000310 -0.000003  0.000431
  0Ar  3px       -0.002424  1.948871 -0.000001 -0.000000  0.000284  0.000002
  0Ar  3py       -1.558555 -0.001880  0.000002 -0.000195  0.000003 -0.000330
  0Ar  4pz        0.445299  0.000583  0.000001 -0.000118 -0.000001  0.000164
  0Ar  4px       -0.000922  0.741707 -0.000000 -0.000000  0.000108  0.000001
  0Ar  4py       -0.593159 -0.000716  0.000001 -0.000074  0.000001 -0.000125
  0Ar  1dz2      -0.000002 -0.000000 -0.000000  0.000000 -0.000000  0.000000
  0Ar  1dxz      -0.000000 -0.000005  0.000000  0.000000  0.000000  0.000000
  0Ar  1dyz       0.000002  0.000000 -0.000000  0.000000  0.000000 -0.000000
  0Ar  1dx2y2    -0.000002  0.000000  0.000000 -0.000000 -0.000000  0.000000
  0Ar  1dxy       0.000000 -0.000003  0.000000  0.000000 -0.000000 -0.000000
  0Ar  2dz2       0.000002  0.000000  0.000000 -0.000000  0.000000 -0.000000
  0Ar  2dxz       0.000000  0.000006 -0.000000 -0.000000 -0.000000 -0.000000
  0Ar  2dyz      -0.000003 -0.000000  0.000000 -0.000001 -0.000000  0.000000
  0Ar  2dx2y2     0.000003 -0.000000 -0.000000  0.000000  0.000000 -0.000000
  0Ar  2dxy      -0.000000  0.000004 -0.000000 -0.000000  0.000000  0.000000
  0Ar  1f0        0.000264  0.000000 -0.002565  0.355375  0.003318 -0.494654
  0Ar  1f+1       0.000000 -0.000265 -0.071510 -0.000943 -0.548739 -0.003403
  0Ar  1f-1       0.000210  0.000000  0.005946 -0.703611  0.004378 -0.676135
  0Ar  1f+2       0.000005  0.000000 -0.004623  0.562702  0.003114 -0.545301
  0Ar  1f-2      -0.000000  0.000002 -0.996251 -0.008158  0.079467  0.000211
  0Ar  1f+3       0.000000 -0.000350  0.047979  0.000159  0.832184  0.005286
  0Ar  1f-3      -0.000269 -0.000000  0.002034 -0.248874 -0.000594 -0.027690
                     30        31        32        33   
                   2.92445   2.92445   2.92445   5.40276
                   0.00000   0.00000   0.00000   0.00000
                  --------  --------  --------  --------
  0Ar  1s         0.000000  0.000000 -0.000000 -0.860161
  0Ar  2s         0.000000  0.000001 -0.000000 -4.321989
  0Ar  3s         0.000000  0.000001 -0.000000 -3.521395
  0Ar  4s        -0.000000 -0.000001  0.000000  3.804759
  0Ar  5s        -0.000000 -0.000000  0.000000  1.395058
  0Ar  1pz        0.000003  0.000560 -0.000001 -0.000000
  0Ar  1px        0.000000 -0.000001 -0.000675  0.000000
  0Ar  1py       -0.000608  0.000101 -0.000000 -0.000000
  0Ar  2pz        0.000004  0.000725 -0.000001 -0.000000
  0Ar  2px        0.000000 -0.000001 -0.000873  0.000000
  0Ar  2py       -0.000786  0.000131 -0.000000 -0.000000
  0Ar  3pz       -0.000004 -0.000670  0.000001  0.000000
  0Ar  3px       -0.000000  0.000001  0.000808 -0.000000
  0Ar  3py        0.000727 -0.000121  0.000000  0.000000
  0Ar  4pz       -0.000001 -0.000254  0.000000  0.000000
  0Ar  4px       -0.000000  0.000000  0.000306 -0.000000
  0Ar  4py        0.000276 -0.000046  0.000000  0.000000
  0Ar  1dz2      -0.000000 -0.000000  0.000000 -0.000000
  0Ar  1dxz      -0.000000 -0.000000 -0.000000 -0.000000
  0Ar  1dyz      -0.000000  0.000000 -0.000000  0.000000
  0Ar  1dx2y2    -0.000000  0.000000 -0.000000 -0.000000
  0Ar  1dxy       0.000000  0.000000 -0.000000 -0.000000
  0Ar  2dz2       0.000000  0.000000 -0.000000 -0.000000
  0Ar  2dxz       0.000000  0.000000  0.000000  0.000000
  0Ar  2dyz       0.000000 -0.000000  0.000000 -0.000000
  0Ar  2dx2y2     0.000000 -0.000000  0.000000  0.000000
  0Ar  2dxy      -0.000000 -0.000000  0.000000  0.000000
  0Ar  1f0        0.006213  0.793075 -0.000828  0.000000
  0Ar  1f+1       0.000203  0.001233  0.832921 -0.000000
  0Ar  1f-1       0.189927 -0.107917 -0.000050  0.000000
  0Ar  1f+2      -0.192253 -0.590780  0.000985 -0.000000
  0Ar  1f-2      -0.000012  0.000198 -0.033188  0.000000
  0Ar  1f+3      -0.000857  0.000483  0.552393 -0.000000
  0Ar  1f-3      -0.962770  0.101800 -0.000528  0.000000



                    ********************************
                    * MULLIKEN POPULATION ANALYSIS *
                    ********************************

-----------------------
MULLIKEN ATOMIC CHARGES
-----------------------
   0 Ar:   -0.000000
Sum of atomic charges:   -0.0000000

--------------------------------
MULLIKEN REDUCED ORBITAL CHARGES
--------------------------------
  0 Ars       :     6.000000  s :     6.000000
      pz      :     4.000000  p :    12.000000
      px      :     4.000000
      py      :     4.000000
      dz2     :     0.000000  d :     0.000000
      dxz     :     0.000000
      dyz     :     0.000000
      dx2y2   :     0.000000
      dxy     :     0.000000
      f0      :     0.000000  f :     0.000000
      f+1     :     0.000000
      f-1     :     0.000000
      f+2     :     0.000000
      f-2     :     0.000000
      f+3     :     0.000000
      f-3     :     0.000000


                     *******************************
                     * LOEWDIN POPULATION ANALYSIS *
                     *******************************

----------------------
LOEWDIN ATOMIC CHARGES
----------------------
   0 Ar:   -0.000000

-------------------------------
LOEWDIN REDUCED ORBITAL CHARGES
-------------------------------
  0 Ars       :     6.000000  s :     6.000000
      pz      :     4.000000  p :    12.000000
      px      :     4.000000
      py      :     4.000000
      dz2     :     0.000000  d :     0.000000
      dxz     :     0.000000
      dyz     :     0.000000
      dx2y2   :     0.000000
      dxy     :     0.000000
      f0      :     0.000000  f :     0.000000
      f+1     :     0.000000
      f-1     :     0.000000
      f+2     :     0.000000
      f-2     :     0.000000
      f+3     :     0.000000
      f-3     :     0.000000


                      *****************************
                      * MAYER POPULATION ANALYSIS *
                      *****************************

  NA   - Mulliken gross atomic population
  ZA   - Total nuclear charge
  QA   - Mulliken gross atomic charge
  VA   - Mayer's total valence
  BVA  - Mayer's bonded valence
  FA   - Mayer's free valence

  ATOM       NA         ZA         QA         VA         BVA        FA
  0 Ar    18.0000    18.0000    -0.0000    -0.0000     0.0000    -0.0000

  Mayer bond orders larger than 0.100000


CleanUpVectors: The d-vectors have cracked symmetry at i=18
CleanUpVectors: The d-vectors have cracked symmetry at i=19
CleanUpVectors: The d-vectors have cracked symmetry at i=20
CleanUpVectors: The d-vectors have cracked symmetry at i=21
CleanUpVectors: The d-vectors have cracked symmetry at i=22
--------------------------
ATOM BASIS FOR ELEMENT Ar
--------------------------
 NewGTO Ar
 S 40
    1     545000.000000000000         0.000045582734
    2      81640.000000000000         0.000354107485
    3      18580.000000000000         0.001857967296
    4       5261.000000000000         0.007768498693
    5       1717.000000000000         0.027423160084
    6        619.900000000000         0.082383480087
    7        241.600000000000         0.201229707101
    8         99.790000000000         0.356780480689
    9         43.150000000000         0.349562491195
   10         19.140000000000         0.118265827858
   11          7.488000000000         0.005601891846
   12          3.205000000000         0.000483472296
   13          0.520400000000         0.000029202457
   14     545000.000000000000         0.000000000080
   15      81640.000000000000         0.000000000619
   16      18580.000000000000         0.000000003263
   17       5261.000000000000         0.000000013641
   18       1717.000000000000         0.000000049097
   19        619.900000000000         0.000000151451
   20        241.600000000000         0.000000405301
   21         99.790000000000         0.000000849926
   22         43.150000000000         0.000001242338
   23         19.140000000000         0.000000254367
   24          7.488000000000        -0.000002986343
   25          3.205000000000        -0.000003568874
   26     545000.000000000000        -0.000000000021
   27      81640.000000000000        -0.000000000159
   28      18580.000000000000        -0.000000000839
   29       5261.000000000000        -0.000000003503
   30       1717.000000000000        -0.000000012649
   31        619.900000000000        -0.000000039047
   32        241.600000000000        -0.000000105691
   33         99.790000000000        -0.000000224821
   34         43.150000000000        -0.000000344460
   35         19.140000000000        -0.000000071579
   36          7.488000000000         0.000001050709
   37          3.205000000000         0.000002152396
   38          0.520400000000        -0.000003715032
   39          1.196000000000        -0.000143830276
   40          0.195400000000        -0.000021888101
 S 35
    1     545000.000000000000        -0.000000000033
    2      81640.000000000000        -0.000000000257
    3      18580.000000000000        -0.000000001350
    4       5261.000000000000        -0.000000005643
    5       1717.000000000000        -0.000000019920
    6        619.900000000000        -0.000000059842
    7        241.600000000000        -0.000000146170
    8         99.790000000000        -0.000000259160
    9         43.150000000000        -0.000000253917
   10         19.140000000000        -0.000000085907
   11     545000.000000000000         0.000012955117
   12      81640.000000000000         0.000100428129
   13      18580.000000000000         0.000529583680
   14       5261.000000000000         0.002213962842
   15       1717.000000000000         0.007968460228
   16        619.900000000000         0.024580331549
   17        241.600000000000         0.065779884429
   18         99.790000000000         0.137942177050
   19         43.150000000000         0.201630258794
   20         19.140000000000         0.041283452988
   21          7.488000000000        -0.484680622091
   22          3.205000000000        -0.579224743439
   23          0.520400000000         0.007275539338
   24      18580.000000000000        -0.000000000124
   25       5261.000000000000        -0.000000000517
   26       1717.000000000000        -0.000000001866
   27        619.900000000000        -0.000000005759
   28        241.600000000000        -0.000000015588
   29         99.790000000000        -0.000000033157
   30         43.150000000000        -0.000000050802
   31          7.488000000000         0.000000154961
   32          3.205000000000         0.000000317441
   33          0.520400000000        -0.000000547903
   34          1.196000000000        -0.087906555910
   35          0.195400000000        -0.002328712315
 S 37
    1     545000.000000000000         0.000000000037
    2      81640.000000000000         0.000000000289
    3      18580.000000000000         0.000000001517
    4       5261.000000000000         0.000000006343
    5       1717.000000000000         0.000000022392
    6        619.900000000000         0.000000067270
    7        241.600000000000         0.000000164313
    8         99.790000000000         0.000000291327
    9         43.150000000000         0.000000285433
   10         19.140000000000         0.000000096569
   11     545000.000000000000        -0.000000000085
   12      81640.000000000000        -0.000000000659
   13      18580.000000000000        -0.000000003475
   14       5261.000000000000        -0.000000014529
   15       1717.000000000000        -0.000000052292
   16        619.900000000000        -0.000000161305
   17        241.600000000000        -0.000000431671
   18         99.790000000000        -0.000000905226
   19         43.150000000000        -0.000001323169
   20         19.140000000000        -0.000000270917
   21          7.488000000000         0.000003180646
   22          3.205000000000         0.000003801078
   23     545000.000000000000         0.000004049952
   24      81640.000000000000         0.000031369506
   25      18580.000000000000         0.000165648142
   26       5261.000000000000         0.000691670942
   27       1717.000000000000         0.002497932295
   28        619.900000000000         0.007710839691
   29        241.600000000000         0.020871669844
   30         99.790000000000         0.044397073998
   31         43.150000000000         0.068023279454
   32         19.140000000000         0.014135182750
   33          7.488000000000        -0.207491682604
   34          3.205000000000        -0.425050495362
   35          0.520400000000         0.733636484987
   36          1.196000000000         0.070484735483
   37          0.195400000000         0.395996420288
 S 41
    1     545000.000000000000        -0.000008115558
    2      81640.000000000000        -0.000063045361
    3      18580.000000000000        -0.000330792834
    4       5261.000000000000        -0.001383104915
    5       1717.000000000000        -0.004882424390
    6        619.900000000000        -0.014667569722
    7        241.600000000000        -0.035826973513
    8         99.790000000000        -0.063521261427
    9         43.150000000000        -0.062236169270
   10         19.140000000000        -0.021056069421
   11          7.488000000000        -0.000997361839
   12          3.205000000000        -0.000086077495
   13          0.520400000000        -0.000005199211
   14     545000.000000000000         0.000015224883
   15      81640.000000000000         0.000118023371
   16      18580.000000000000         0.000622367974
   17       5261.000000000000         0.002601854287
   18       1717.000000000000         0.009364553017
   19        619.900000000000         0.028886862880
   20        241.600000000000         0.077304673373
   21         99.790000000000         0.162109967716
   22         43.150000000000         0.236956349702
   23         19.140000000000         0.048516410094
   24          7.488000000000        -0.569597795832
   25          3.205000000000        -0.680706267419
   26          0.520400000000         0.008550230774
   27     545000.000000000000        -0.000011883830
   28      81640.000000000000        -0.000092047965
   29      18580.000000000000        -0.000486063585
   30       5261.000000000000        -0.002029579412
   31       1717.000000000000        -0.007329716557
   32        619.900000000000        -0.022626021316
   33        241.600000000000        -0.061244023439
   34         99.790000000000        -0.130274935395
   35         43.150000000000        -0.199601629980
   36         19.140000000000        -0.041477058142
   37          7.488000000000         0.608845653827
   38          3.205000000000         1.247231423984
   39          0.520400000000        -2.152719471780
   40          1.196000000000        -0.000423024434
   41          0.195400000000         1.966381293167
 S 41
    1     545000.000000000000        -0.000039207603
    2      81640.000000000000        -0.000304582561
    3      18580.000000000000        -0.001598114869
    4       5261.000000000000        -0.006682008505
    5       1717.000000000000        -0.023587799415
    6        619.900000000000        -0.070861454240
    7        241.600000000000        -0.173086032132
    8         99.790000000000        -0.306881715599
    9         43.150000000000        -0.300673222930
   10         19.140000000000        -0.101725352463
   11          7.488000000000        -0.004818419934
   12          3.205000000000        -0.000415854610
   13          0.520400000000        -0.000025118247
   14     545000.000000000000         0.000060034714
   15      81640.000000000000         0.000465389401
   16      18580.000000000000         0.002454119519
   17       5261.000000000000         0.010259623987
   18       1717.000000000000         0.036926277242
   19        619.900000000000         0.113906590678
   20        241.600000000000         0.304827555134
   21         99.790000000000         0.639231536282
   22         43.150000000000         0.934365564227
   23         19.140000000000         0.191309762110
   24          7.488000000000        -2.246036312401
   25          3.205000000000        -2.684158902811
   26          0.520400000000         0.033715244227
   27     545000.000000000000        -0.000021980815
   28      81640.000000000000        -0.000170255653
   29      18580.000000000000        -0.000899042939
   30       5261.000000000000        -0.003753992474
   31       1717.000000000000        -0.013557341305
   32        619.900000000000        -0.041850007563
   33        241.600000000000        -0.113279432046
   34         99.790000000000        -0.240961809213
   35         43.150000000000        -0.369191277939
   36         19.140000000000        -0.076717650563
   37          7.488000000000         1.126145638324
   38          3.205000000000         2.306929875036
   39          0.520400000000        -3.981757327890
   40          1.196000000000         3.804759282828
   41          0.195400000000         1.395058179926
 P 16
    1        761.800000000000         0.002369754909
    2        180.200000000000         0.019019859136
    3         57.500000000000         0.088080510758
    4         21.240000000000         0.256376449172
    5          8.388000000000         0.438710057426
    6          3.416000000000         0.347568253246
    7          0.452300000000        -0.005238808744
    8        761.800000000000         0.000000001734
    9        180.200000000000         0.000000013844
   10         57.500000000000         0.000000066396
   11         21.240000000000         0.000000196776
   12          8.388000000000         0.000000366769
   13          3.416000000000         0.000000242403
   14          0.452300000000        -0.000001461666
   15          1.206000000000         0.056676498752
   16          0.154500000000         0.001644273071
 P 15
    1        761.800000000000         0.000000009596
    2        180.200000000000         0.000000077015
    3         57.500000000000         0.000000356656
    4         21.240000000000         0.000001038121
    5          8.388000000000         0.000001776427
    6          3.416000000000         0.000001407375
    7        761.800000000000         0.000667198189
    8        180.200000000000         0.005327067714
    9         57.500000000000         0.025548909430
   10         21.240000000000         0.075718246119
   11          8.388000000000         0.141130290129
   12          3.416000000000         0.093275009008
   13          0.452300000000        -0.562439200494
   14          1.206000000000        -0.282871043768
   15          0.154500000000        -0.325073001977
 P 16
    1        761.800000000000        -0.000985350287
    2        180.200000000000        -0.007908507157
    3         57.500000000000        -0.036624106666
    4         21.240000000000        -0.106601997880
    5          8.388000000000        -0.182416788916
    6          3.416000000000        -0.144519788441
    7          0.452300000000         0.002178310373
    8        761.800000000000         0.001326779187
    9        180.200000000000         0.010593317981
   10         57.500000000000         0.050806135042
   11         21.240000000000         0.150572040970
   12          8.388000000000         0.280649340372
   13          3.416000000000         0.185485126739
   14          0.452300000000        -1.118457210520
   15          1.206000000000        -0.049062147916
   16          0.154500000000         1.387131717354
 P 16
    1        761.800000000000         0.003965383878
    2        180.200000000000         0.031826516114
    3         57.500000000000         0.147387831581
    4         21.240000000000         0.429002608939
    5          8.388000000000         0.734107051608
    6          3.416000000000         0.581596663453
    7          0.452300000000        -0.008766260030
    8        761.800000000000        -0.002410820323
    9        180.200000000000        -0.019248558106
   10         57.500000000000        -0.092317142211
   11         21.240000000000        -0.273596495928
   12          8.388000000000        -0.509953080372
   13          3.416000000000        -0.337035218462
   14          0.452300000000         2.032289472024
   15          1.206000000000        -1.948872046194
   16          0.154500000000        -0.741707403198
 D 2
    1          0.410000000000         0.872499084334
    2          1.254000000000         0.193959291849
 D 43
    1        180.200000000000        -0.000000000005
    2         57.500000000000        -0.000000000040
    3         21.240000000000        -0.000000000194
    4        761.800000000000         0.000000000114
    5        180.200000000000         0.000000001879
    6         57.500000000000         0.000000015402
    7         21.240000000000         0.000000073763
    8          8.388000000000         0.000000200857
    9          3.416000000000         0.000000249356
   10        761.800000000000         0.000000000003
   11        180.200000000000         0.000000000043
   12         57.500000000000         0.000000000349
   13         21.240000000000         0.000000001669
   14          8.388000000000         0.000000004545
   15          3.416000000000         0.000000005643
   16        761.800000000000        -0.000000000068
   17        180.200000000000        -0.000000001120
   18         57.500000000000        -0.000000009506
   19         21.240000000000        -0.000000046354
   20          8.388000000000        -0.000000137484
   21          3.416000000000        -0.000000142386
   22          0.452300000000         0.000002359522
   23        761.800000000000        -0.000000000002
   24        180.200000000000        -0.000000000025
   25         57.500000000000        -0.000000000216
   26         21.240000000000        -0.000000001055
   27          8.388000000000        -0.000000003131
   28          1.206000000000        -0.000001419534
   29          1.206000000000        -0.000000032334
   30          0.154500000000        -0.000001446790
   31          0.410000000000        -0.000002995151
   32          0.410000000000         0.216642240828
   33          0.410000000000         0.000527540256
   34          0.410000000000        -0.000094672458
   35          0.410000000000        -0.858889729303
   36          1.254000000000         0.000004152649
   37          1.254000000000        -0.300365468114
   38          1.254000000000        -0.000731412663
   39          1.254000000000         0.000131259552
   40          1.254000000000         1.190814927164
   41          0.890000000000         0.000000224542
   42          0.890000000000        -0.000000182866
   43          0.890000000000        -0.000000544176
 F 1
    1          0.890000000000         0.999999943623
 end
  // -----------------------------------------------
  // The basis set
  // -----------------------------------------------
  BAS[ATNO] = new BFNGauss[NSH];
  // Basis function   1 L = s
  InitBFNGauss(BAS[ATNO][  0]);
  BAS[ATNO][  0].l  = 0;
  BAS[ATNO][  0].ng = 40;
  BAS[ATNO][  0].a[  0] =    545000.000000000000;     BAS[ATNO][  0].d[  0] =         0.000045582734;
  BAS[ATNO][  0].a[  1] =     81640.000000000000;     BAS[ATNO][  0].d[  1] =         0.000354107485;
  BAS[ATNO][  0].a[  2] =     18580.000000000000;     BAS[ATNO][  0].d[  2] =         0.001857967296;
  BAS[ATNO][  0].a[  3] =      5261.000000000000;     BAS[ATNO][  0].d[  3] =         0.007768498693;
  BAS[ATNO][  0].a[  4] =      1717.000000000000;     BAS[ATNO][  0].d[  4] =         0.027423160084;
  BAS[ATNO][  0].a[  5] =       619.900000000000;     BAS[ATNO][  0].d[  5] =         0.082383480087;
  BAS[ATNO][  0].a[  6] =       241.600000000000;     BAS[ATNO][  0].d[  6] =         0.201229707101;
  BAS[ATNO][  0].a[  7] =        99.790000000000;     BAS[ATNO][  0].d[  7] =         0.356780480689;
  BAS[ATNO][  0].a[  8] =        43.150000000000;     BAS[ATNO][  0].d[  8] =         0.349562491195;
  BAS[ATNO][  0].a[  9] =        19.140000000000;     BAS[ATNO][  0].d[  9] =         0.118265827858;
  BAS[ATNO][  0].a[ 10] =         7.488000000000;     BAS[ATNO][  0].d[ 10] =         0.005601891846;
  BAS[ATNO][  0].a[ 11] =         3.205000000000;     BAS[ATNO][  0].d[ 11] =         0.000483472296;
  BAS[ATNO][  0].a[ 12] =         0.520400000000;     BAS[ATNO][  0].d[ 12] =         0.000029202457;
  BAS[ATNO][  0].a[ 13] =    545000.000000000000;     BAS[ATNO][  0].d[ 13] =         0.000000000080;
  BAS[ATNO][  0].a[ 14] =     81640.000000000000;     BAS[ATNO][  0].d[ 14] =         0.000000000619;
  BAS[ATNO][  0].a[ 15] =     18580.000000000000;     BAS[ATNO][  0].d[ 15] =         0.000000003263;
  BAS[ATNO][  0].a[ 16] =      5261.000000000000;     BAS[ATNO][  0].d[ 16] =         0.000000013641;
  BAS[ATNO][  0].a[ 17] =      1717.000000000000;     BAS[ATNO][  0].d[ 17] =         0.000000049097;
  BAS[ATNO][  0].a[ 18] =       619.900000000000;     BAS[ATNO][  0].d[ 18] =         0.000000151451;
  BAS[ATNO][  0].a[ 19] =       241.600000000000;     BAS[ATNO][  0].d[ 19] =         0.000000405301;
  BAS[ATNO][  0].a[ 20] =        99.790000000000;     BAS[ATNO][  0].d[ 20] =         0.000000849926;
  BAS[ATNO][  0].a[ 21] =        43.150000000000;     BAS[ATNO][  0].d[ 21] =         0.000001242338;
  BAS[ATNO][  0].a[ 22] =        19.140000000000;     BAS[ATNO][  0].d[ 22] =         0.000000254367;
  BAS[ATNO][  0].a[ 23] =         7.488000000000;     BAS[ATNO][  0].d[ 23] =        -0.000002986343;
  BAS[ATNO][  0].a[ 24] =         3.205000000000;     BAS[ATNO][  0].d[ 24] =        -0.000003568874;
  BAS[ATNO][  0].a[ 25] =    545000.000000000000;     BAS[ATNO][  0].d[ 25] =        -0.000000000021;
  BAS[ATNO][  0].a[ 26] =     81640.000000000000;     BAS[ATNO][  0].d[ 26] =        -0.000000000159;
  BAS[ATNO][  0].a[ 27] =     18580.000000000000;     BAS[ATNO][  0].d[ 27] =        -0.000000000839;
  BAS[ATNO][  0].a[ 28] =      5261.000000000000;     BAS[ATNO][  0].d[ 28] =        -0.000000003503;
  BAS[ATNO][  0].a[ 29] =      1717.000000000000;     BAS[ATNO][  0].d[ 29] =        -0.000000012649;
  BAS[ATNO][  0].a[ 30] =       619.900000000000;     BAS[ATNO][  0].d[ 30] =        -0.000000039047;
  BAS[ATNO][  0].a[ 31] =       241.600000000000;     BAS[ATNO][  0].d[ 31] =        -0.000000105691;
[...]
Thresholds for map construction and integral transformation for crude MP2:
   TCutMKN                    ...     1.0e-02
   TCutDO                     ...     2.0e-02
   TCutPairs                  ...     1.0e-04
   TCutPNO_CrudeMP2           ...     3.3e-07
   TCutPNOSingles_CrudeMP2    ...     1.0e-08
--------------------------------
LOCAL RI TRANSFORMATION (IAVPAO)
--------------------------------

Orbital window:       5 to 8
Number of PAOs:      34
Basis functions:     34 (12 shells)
Aux. functions:     228 (58 shells)

Processing maps (0.0 sec)
Average map sizes:
   Aux shells -> MOs               4.0
   Aux shells -> PAOs             34.0
   MOs        -> AO shells        12.0
   PAOs       -> AO shells        12.0

Calculating integrals (0.1 sec, 0.239 MB)
Sorting integrals (0.0 sec, 0.237 MB)
Total time for the integral transformation: 0.1 sec
--------------------------------
INITIAL GUESS AND PNO GENERATION
--------------------------------

PNO truncation parameters                   .... 
    PAOOverlapThresh   =        1.000e-08

    TCutPairs          =        1.000e-04
    TCutPNO            =        3.330e-07
    TCutPNOSingles     =        9.990e-09
    TCutMP2Pairs       =        1.000e-05
    TCutMKN            =        1.000e-02
    TCutDO             =        2.000e-02

Pair selection                          .... not used
Type of local MP2 treatment                 .... semi-local MP2
Strategy for PNO selection                  .... occupation number selection
Pair density normalization                  .... MP2 norm
Spin component scaling                      .... not used

   .... Finished loop over pairs
Making pair pair interaction lists          ... done

                       ===========================
                         10 OF   10 PAIRS ARE KEPT CCSD PAIRS
                          0 OF   10 PAIRS ARE KEPT MP2 PAIRS FOR (T)
                          0 OF   10 PAIRS ARE SKIPPED
                       ===========================

Total time spent in the initial guess                 ...     0.021 sec
SL-MP2 correlation energy (all non-screened pairs)    ...      -0.197086240611 Eh

Initial PNO correlation energy                        ...      -0.197086240611 Eh
sum of pair energies prescreened and skipped MP2 pairs...       0.000000000000 Eh
sum of pair energies of crude MP2 skipped pairs only  ...       0.000000000000 Eh
sum of MP2 pair energies for pairs that were not kept ...       0.000000000000 Eh
sum of PNO error estimates for the kept pairs         ...      -0.000000000000 Eh
                                                          --------------------
sum of all corrections                                         -0.000000000000
Initial total correlation energy                               -0.197086240611
Thresholds for map construction and integral transformation for fine MP2 and CCSD(T) calculation:
   TCutMKN   ...     1.0e-03
   TCutDO    ...     1.0e-02
   TCutPairs ...     1.0e-04
   TCutCMO   ...     1.0e-03
   TCutCPAO  ...     1.0e-03

Thresholds for map construction and integral transformation for strong Triples:
   TCutMKN   ...     1.0e-02
   TCutDO    ...     2.0e-02
   TCutCMO   ...     1.0e-03
   TCutCPAO  ...     1.0e-03

Thresholds for map construction and integral transformation for weak Triples:
   TCutMKN   ...     1.0e-01
   TCutDO    ...     4.0e-02
   TCutCMO   ...     1.0e-03
   TCutCPAO  ...     1.0e-03

--------------------------------
LOCAL RI TRANSFORMATION (IAVPAO)
--------------------------------

Orbital window:       5 to 8
Number of PAOs:      34
Basis functions:     34 (12 shells)
Aux. functions:     228 (58 shells)

Processing maps (0.0 sec)
Average map sizes:
   Aux shells -> MOs               4.0
   Aux shells -> PAOs             34.0
   MOs        -> AO shells        12.0
   PAOs       -> AO shells        12.0

Calculating integrals (0.1 sec, 0.239 MB)
Sorting integrals (0.0 sec, 0.237 MB)
Total time for the integral transformation: 0.1 sec
--------------------------------
INITIAL GUESS AND PNO GENERATION
--------------------------------

PNO truncation parameters                   .... 
    PAOOverlapThresh   =        1.000e-08

    TCutPairs          =        1.000e-04
    TCutPNO            =        3.330e-07
    TCutPNOSingles     =        9.990e-09
    TCutMP2Pairs       =        1.000e-05
    TCutMKN            =        1.000e-03
    TCutDO             =        1.000e-02

Pair selection                          .... not used
Type of local MP2 treatment                 .... semi-local MP2
Strategy for PNO selection                  .... occupation number selection
Pair density normalization                  .... MP2 norm
Spin component scaling                      .... not used

   .... Finished loop over pairs

 PNO Occupation Number Statistics: 
  | Av. % of trace(Dij) retained        ... 100.000000000000
  | sigma^2 in % of trace(Dij) retained ...   5.86e-28
  | Av. % of trace(Di) retained         ... 100.000000000000
  | sigma^2 in % of trace(Di) retained  ...   2.02e-28
 Distributions of % trace(Dij) recovered:
  |       >= 99.9  ...    10 (100.0 % of all pairs)
 Distributions of % trace(Di) recovered :
  |       >= 99.9  ...     4 (100.0 % of all I-pairs )

Making pair pair interaction lists          ... done

                       ===========================
                         10 OF   10 PAIRS ARE KEPT
                       ===========================

Total time spent in the initial guess                 ...     0.026 sec
SL-MP2 correlation energy (all non-screened pairs)    ...      -0.197086240611 Eh

Initial PNO correlation energy                        ...      -0.197086240611 Eh
sum of pair energies estimated for screened out pairs ...       0.000000000000 Eh
sum of MP2 pair energies for pairs that were not kept ...       0.000000000000 Eh
sum of PNO error estimates for the kept pairs         ...      -0.000000000000 Eh
                                                          --------------------
sum of all corrections                                         -0.000000000000
Initial total correlation energy                               -0.197086240611
Thresholds for map construction and integral transformation for fine MP2 and CCSD(T) calculation:
   TCutMKN   ...     1.0e-03
   TCutDO    ...     1.0e-02
   TCutPairs ...     1.0e-04
   TCutCMO   ...     1.0e-03
   TCutCPAO  ...     1.0e-03

Time for aux screen maps:            0.000
Time for maps after fine MP2:            0.000
-----------------------------
LOCAL RI TRANSFORMATION (IJV)
-----------------------------

Orbital window:       5 to 8
Basis functions:     34 (12 shells)
Aux. functions:     228 (58 shells)

Processing maps (0.0 sec)
Average map sizes:
   Aux shells -> MOs(i)            4.0
   Aux shells -> MOs(j)            4.0
   MOs        -> AO shells        12.0

Calculating integrals (0.1 sec, 0.030 MB)
Sorting integrals (0.0 sec, 0.028 MB)
Total time for the integral transformation: 0.1 sec
--------------------------------
LOCAL RI TRANSFORMATION (VABPAO)
--------------------------------

Number of PAOs:      34
Basis functions:     34 (12 shells)
Aux. functions:     228 (58 shells)

Processing maps (0.0 sec)
Average map sizes:
   Aux shells -> PAOs             34.0
   PAOs       -> AO shells        12.0

Calculating integrals (0.2 sec, 2.013 MB)
Finished


-------------------------------------
Pair Pair Term precalculation with     
RI-(ij|mn) and (im|jn) transformation  
ON THE FLY                             
-------------------------------------

   IBatch   1 (of   1)              ... done (    0.413 sec)
Total EXT                           ...           0.413 sec

---------------------
RI-PNO TRANSFORMATION
---------------------

Total Number of PNOs                   ...   250
Average number of PNOs per pair        ...    25
Maximal number of PNOs per pair        ...    25
   #pairs with  1 -  5 PNOs   :    0
   #pairs with  6 - 10 PNOs   :    0
   #pairs with 11 - 15 PNOs   :    0
   #pairs with 16 - 20 PNOs   :    0
   #pairs with 21 - 25 PNOs   :   10
   #pairs with 26 - 30 PNOs   :    0
   #pairs with 31 - 35 PNOs   :    0
   #pairs with 36 - 40 PNOs   :    0
   #pairs with 41 - 45 PNOs   :    0
   #pairs with 46 - 50 PNOs   :    0

Generation of (ij|ab)[P] integrals            ... on
Generation of (ia|bc)[P],(ja|bc)[P] integrals ... on
Storage of 3 and 4 external integrals         ... on
Generation of ALL (ka|bc)[P] integrals        ... on
Keep RI integrals in memory                   ... off

Ibatch:  1 (of  1)
Starting 2-4 index PNO integral generation ... done

Timings:
Total PNO integral transformation time     ...          0.216 sec
Size of the 3-external file                ...         1 MB
Size of the 4-external file                ...         4 MB
Size of the IKJL file                      ...         0 MB
Size of the all 3-external file            ...         2 MB
Size of the 1-external file                ...         0 MB

Making pair/pair overlap matrices          ... done (    0.003 sec)
Size of the pair overlap file              ... 0 MB
Redoing the guess amplitudes               ... done (    0.000 sec)

-------------------------
FINAL STARTUP INFORMATION
-------------------------

E(0)                                       ...   -526.813489822
E(SL-MP2)                                  ...     -0.197086241
E(SL-MP2) including corrections            ...     -0.197086241
Initial E(tot)                             ...   -527.010576063
<T|T>                                      ...      0.053205206
Number of pairs included                   ... 10
Total number of pairs                      ... 10

------------------------------------------------
                  RHF COUPLED CLUSTER ITERATIONS
------------------------------------------------

Number of PNO amplitudes to be optimized   ...         6250
Number of non-PNO amplitudes               ...         6250
Untruncated number of regular amplitudes   ...         6250

Iter       E(tot)           E(Corr)          Delta-E          Residual     Time
  0   -527.010576063     -0.197086241     -0.000000000      0.014695988    0.09
                           *** Turning on DIIS ***
  1   -527.030665213     -0.217175391     -0.020089151      0.005990226    0.11
  2   -527.036945163     -0.223455341     -0.006279950      0.001004054    0.09
  3   -527.037311600     -0.223821778     -0.000366437      0.000341153    0.09
  4   -527.037328268     -0.223838446     -0.000016667      0.000045702    0.09
  5   -527.037325487     -0.223835665      0.000002781      0.000007552    0.09
               --- The Coupled-Cluster iterations have converged ---

----------------------
COUPLED CLUSTER ENERGY
----------------------

E(0)                                       ...   -526.813489822
E(CORR)(strong-pairs)                      ...     -0.223835665
E(CORR)(weak-pairs)                        ...     -0.000000000
E(CORR)(corrected)                         ...     -0.223835665
E(TOT)                                     ...   -527.037325487
Singles Norm <S|S>**1/2                    ...      0.006009956  
T1 diagnostic                              ...      0.002124840  

------------------
LARGEST AMPLITUDES
------------------
   5-> 13   5-> 13       0.039075
   6-> 14   6-> 14       0.033153
   8-> 15   8-> 15       0.032473
   5-> 15   5-> 15       0.032216
   8-> 17   8-> 17       0.032142
   6-> 16   6-> 16       0.030841
   7-> 16   7-> 16       0.028850
   6-> 17   6-> 17       0.028695
   5-> 16   5-> 16       0.028410
   7-> 14   7-> 14       0.028369
   8-> 14   8-> 14       0.025662
   7-> 17   7-> 17       0.023538
   8-> 13   8-> 13       0.021776
   5->  9   5->  9       0.021168
   7-> 13   7-> 13       0.020033
   7-> 15   7-> 15       0.018973


-------------------------------------------
DLPNO BASED TRIPLES CORRECTION
-------------------------------------------

Singles multiplier          ...  1.000000
TCutTNO                     ... 1.000e-09
TCutMP2Pairs                ... 1.000e-05
TCutDOStrong                ... 2.000e-02
TCutMKNStrong               ... 1.000e-02
TCutDOWeak                  ... 4.000e-02
TCutMKNWeak                 ... 1.000e-01

Fragment selection                          .... not used
Fock matrix occ-virt block is zero --> Setting DT_in_Triples to false.
Number of Triples that are to be computed   ...        16

 . . . . . . . . .
10% done  
20% done  
30% done  
40% done  
50% done  
60% done  
70% done  
80% done  
90% done               (      0.225 sec)
Triples timings:
Total time for T0               ...     0.233 sec
Total time for Iterative (T)    ...     0.000 sec
Total time of overall (T)       ...     0.233 sec

Triples List generation         ...     0.000 sec
TNO generation                  ...     0.007 sec
Pair density generation         ...     0.000 sec
Look up tables                  ...     0.000 sec
Generating 3-index integrals    ...     0.094 sec
  Make 4-ind.int. from 3-ind.int...     0.063 sec
  Projecting amplitudes (D + S) ...     0.006 sec
  Downprojecting integrals      ...     0.000 sec
  Energy contr. (sum over a,b,c)...     0.046 sec
Fitting ET(->0)                 ...     0.000 sec

Everything after 3-index        ...     0.132 sec

Timing details:
 TNO integrals                  ...     0.150 sec
   Reading 3-index integrals    ...     0.001 sec
   Sorting integrals            ...     0.010 sec
       Sorting integrals 1      ...     0.000 sec
       Sorting integrals 2      ...     0.005 sec
       Sorting integrals 3      ...     0.003 sec
       Sorting integrals 4      ...     0.000 sec
       Sorting integrals 5      ...     0.000 sec
       Sorting integrals 6      ...     0.001 sec
   Calculating local VM**-1/2   ...     0.013 sec
   Orthogonal. integrals        ...     0.017 sec
   Multipl. 3-index integrals   ...     0.109 sec
   All concerning IRIab (w/TNO) ...     0.029 sec

 Calculate W0/W1                ...     0.017 sec
 W 3-ext contribution           ...     0.012 sec
 W 3-int contribution           ...     0.003 sec
 Sorting W                      ...     0.001 sec

 V exchange contribution        ...     0.023 sec

 Timings for Triples without generation
     of 3-index integrals       ...     0.132 sec
       0 weak pairs             ...     0.132 sec
       1 weak pair              ...     0.000 sec
       2 weak pairs             ...     0.000 sec
       3 weak pairs             ...     0.000 sec
  Extra time for extrapolation  ...     0.000 sec

Number of Triples   (0, 1, 2, 3 weak pairs; overall):     16       0       0       0  (    16)
Number of Atoms     (0, 1, 2, 3 weak pairs; overall):    1.0     0.0     0.0     0.0  (     1)
Number of PAOs      (0, 1, 2, 3 weak pairs; overall):   34.0     0.0     0.0     0.0  (    34)
Number of AuxFcns   (0, 1, 2, 3 weak pairs; overall):  228.0     0.0     0.0     0.0  (   228)
Number of TNOs      (0, 1, 2, 3 weak pairs         ):   25.0     0.0     0.0     0.0
Aver. Number of NTNO, Atoms, PAOs, AuxFcns / Triples:     16    25.0     1.0    34.0   228.0

Triples Correction (T)                     ...     -0.006198790
Final correlation energy                   ...     -0.230034455
E(CCSD)                                    ...   -527.037325487
E(CCSD(T))                                 ...   -527.043524277


Maximum memory used throughout the entire calculation: 351.5 MB


------------------------------------------------------------------------------- 
                                     TIMINGS                                   
------------------------------------------------------------------------------- 


Total execution time                   ...        2.786 sec

Localization of occupied MO's          ...        0.227 sec (  8.1%)
Fock Matrix Formation                  ...        0.294 sec ( 10.6%)
Global overlap, Fock, MKN matrices     ...        0.063 sec (  2.3%)
Differential overlap integrals         ...        0.061 sec (  2.2%)
Organizing maps                        ...        0.001 sec (  0.0%)
RI 3-index integral generations        ...        0.592 sec ( 21.2%)
RI-PNO integral transformation         ...        0.638 sec ( 22.9%)
Initial Guess                          ...        0.048 sec (  1.7%)
DIIS Solver                            ...        0.004 sec (  0.1%)
State Vector Update                    ...        0.000 sec (  0.0%)
Sigma-vector construction              ...        0.550 sec ( 19.7%)
  <D|H|D>(0-ext)                       ...        0.025 sec (  4.5% of sigma)
  <D|H|D>(2-ext Fock)                  ...        0.002 sec (  0.4% of sigma)
  <D|H|D>(2-ext)                       ...        0.075 sec ( 13.6% of sigma)
  <D|H|D>(4-ext)                       ...        0.086 sec ( 15.6% of sigma)
  <D|H|D>(4-ext-corr)                  ...        0.224 sec ( 40.8% of sigma)
  CCSD doubles correction              ...        0.002 sec (  0.4% of sigma)
  <S|H|S>                              ...        0.004 sec (  0.8% of sigma)
  <S|H|D>(1-ext)                       ...        0.005 sec (  1.0% of sigma)
  <S|H|D>(3-ext)                       ...        0.008 sec (  1.4% of sigma)
  Fock-dressing                        ...        0.058 sec ( 10.5% of sigma)
  (ik|jl)-dressing                     ...        0.015 sec (  2.7% of sigma)
  (ij|ab),(ia|jb)-dressing             ...        0.041 sec (  7.4% of sigma)
Total Time for computing (T)           ...        0.233 sec (  8.4% of ALL)


-------------------------   --------------------
FINAL SINGLE POINT ENERGY      -527.043524277042
-------------------------   --------------------


                            ***************************************
                            *     ORCA property calculations      *
                            ***************************************

                                    ---------------------
                                    Active property flags
                                    ---------------------
   (+) Dipole Moment


------------------------------------------------------------------------------
                       ORCA ELECTRIC PROPERTIES CALCULATION
------------------------------------------------------------------------------

Dipole Moment Calculation                       ... on
Quadrupole Moment Calculation                   ... off
Polarizability Calculation                      ... off
GBWName                                         ... argon.gbw
Electron density file                           ... argon.scfp
The origin for moment calculation is the CENTER OF MASS  = ( 0.000000,  0.000000  0.000000)

-------------
DIPOLE MOMENT
-------------
                                X             Y             Z
Electronic contribution:     -0.00000       0.00000       0.00000
Nuclear contribution   :      0.00000       0.00000       0.00000
                        -----------------------------------------
Total Dipole Moment    :     -0.00000       0.00000       0.00000
                        -----------------------------------------
Magnitude (a.u.)       :      0.00000
Magnitude (Debye)      :      0.00000



--------------------
Rotational spectrum 
--------------------
 
Rotational constants in cm-1:     0.000000     0.000000     0.000000 
Rotational constants in MHz :     0.000000     0.000000     0.000000 

 Dipole components along the rotational axes: 
x,y,z [a.u.] :    -0.000000     0.000000     0.000000 
x,y,z [Debye]:    -0.000000     0.000001     0.000001 

 

Timings for individual modules:

Sum of individual times         ...        5.299 sec (=   0.088 min)
GTO integral calculation        ...        0.118 sec (=   0.002 min)   2.2 %
SCF iterations                  ...        2.370 sec (=   0.039 min)  44.7 %
MDCI module                     ...        2.812 sec (=   0.047 min)  53.1 %
                             ****ORCA TERMINATED NORMALLY****
TOTAL RUN TIME: 0 days 0 hours 0 minutes 5 seconds 457 msec
