(SLURM) JOB ID:         801

                                 *****************
                                 * O   R   C   A *
                                 *****************

           --- An Ab Initio, DFT and Semiempirical electronic structure package ---

                  #######################################################
                  #                        -***-                        #
                  #          Department of theory and spectroscopy      #
                  #               Directorship: Frank Neese             #
                  #        Max Planck Institute fuer Kohlenforschung    #
                  #                Kaiser Wilhelm Platz 1               #
                  #                 D-45470 Muelheim/Ruhr               #
                  #                      Germany                        #
                  #                                                     #
                  #                  All rights reserved                #
                  #                        -***-                        #
                  #######################################################


                         Program Version 4.2.1 -  RELEASE  -


 With contributions from (in alphabetic order):
   Daniel Aravena         : Magnetic Suceptibility
   Michael Atanasov       : Ab Initio Ligand Field Theory (pilot matlab implementation)
   Alexander A. Auer      : GIAO ZORA, VPT2
   Ute Becker             : Parallelization
   Giovanni Bistoni       : ED, misc. LED, open-shell LED, HFLD
   Martin Brehm           : Molecular dynamics
   Dmytro Bykov           : SCF Hessian
   Vijay G. Chilkuri      : MRCI spin determinant printing, contributions to CSF-ICE
   Dipayan Datta          : RHF DLPNO-CCSD density
   Achintya Kumar Dutta   : EOM-CC, STEOM-CC
   Dmitry Ganyushin       : Spin-Orbit,Spin-Spin,Magnetic field MRCI
   Miquel Garcia          : C-PCM Hessian, Gaussian charge scheme
   Yang Guo               : DLPNO-NEVPT2, CIM, IAO-localization
   Andreas Hansen         : Spin unrestricted coupled pair/coupled cluster methods
   Benjamin Helmich-Paris : CASSCF linear response (MC-RPA)
   Lee Huntington         : MR-EOM, pCC
   Robert Izsak           : Overlap fitted RIJCOSX, COSX-SCS-MP3, EOM
   Christian Kollmar      : KDIIS, OOCD, Brueckner-CCSD(T), CCSD density
   Simone Kossmann        : Meta GGA functionals, TD-DFT gradient, OOMP2, MP2 Hessian
   Martin Krupicka        : AUTO-CI
   Lucas Lang             : DCDCAS
   Dagmar Lenk            : GEPOL surface, SMD
   Dimitrios Liakos       : Extrapolation schemes; Compound Job, initial MDCI parallelization
   Dimitrios Manganas     : Further ROCIS development; embedding schemes
   Dimitrios Pantazis     : SARC Basis sets
   Taras Petrenko         : DFT Hessian,TD-DFT gradient, ASA, ECA, R-Raman, ABS, FL, XAS/XES, NRVS
   Peter Pinski           : DLPNO-MP2, DLPNO-MP2 Gradient
   Christoph Reimann      : Effective Core Potentials
   Marius Retegan         : Local ZFS, SOC
   Christoph Riplinger    : Optimizer, TS searches, QM/MM, DLPNO-CCSD(T), (RO)-DLPNO pert. Triples
   Tobias Risthaus        : Range-separated hybrids, TD-DFT gradient, RPA, STAB
   Michael Roemelt        : Original ROCIS implementation
   Masaaki Saitow         : Open-shell DLPNO-CCSD energy and density
   Barbara Sandhoefer     : DKH picture change effects
   Avijit Sen             : IP-ROCIS
   Kantharuban Sivalingam : CASSCF convergence, NEVPT2, FIC-MRCI
   Bernardo de Souza      : ESD, SOC TD-DFT
   Georgi Stoychev        : AutoAux, RI-MP2 NMR
   Willem Van den Heuvel  : Paramagnetic NMR
   Boris Wezisla          : Elementary symmetry handling
   Frank Wennmohs         : Technical directorship


 We gratefully acknowledge several colleagues who have allowed us to
 interface, adapt or use parts of their codes:
   Stefan Grimme, W. Hujo, H. Kruse,             : VdW corrections, initial TS optimization,
                  C. Bannwarth                     DFT functionals, gCP, sTDA/sTD-DF
   Ed Valeev, F. Pavosevic, A. Kumar             : LibInt (2-el integral package), F12 methods
   Garnet Chan, S. Sharma, J. Yang, R. Olivares  : DMRG
   Ulf Ekstrom                                   : XCFun DFT Library
   Mihaly Kallay                                 : mrcc  (arbitrary order and MRCC methods)
   Andreas Klamt, Michael Diedenhofen            : otool_cosmo (COSMO solvation model)
   Jiri Pittner, Ondrej Demel                    : Mk-CCSD
   Frank Weinhold                                : gennbo (NPA and NBO analysis)
   Christopher J. Cramer and Donald G. Truhlar   : smd solvation model
   Lars Goerigk                                  : TD-DFT with DH, B97 family of functionals
   V. Asgeirsson, H. Jonsson                     : NEB implementation
   FAccTs GmbH                                   : IRC, NEB, NEB-TS, Multilevel, MM, QM/MM, CI optimization
   S Lehtola, MJT Oliveira, MAL Marques          : LibXC Library


 Your calculation uses the libint2 library for the computation of 2-el integrals
 For citations please refer to: http://libint.valeyev.net

 Your ORCA version has been built with support for libXC version: 4.2.3
 For citations please refer to: https://tddft.org/programs/libxc/

 This ORCA versions uses:
   CBLAS   interface :  Fast vector & matrix operations
   LAPACKE interface :  Fast linear algebra routines
   SCALAPACK package :  Parallel linear algebra routines




***************************************
The coordinates will be read from file: init.xyz
***************************************


Your calculation utilizes the SMD solvation module
Please cite in your paper:
A.V. Marenich, C.J. Cramer, D.G. Truhlar J. Phys. Chem. B, 113, (2009), 6378 

Your calculation utilizes the semiempirical GFN2-xTB method
Please cite in your paper:
C. Bannwarth, Ehlert S., S. Grimme,  J. Chem. Theory Comput., 15, (2019), 1652.
   

----- Orbital basis set information -----
Your calculation utilizes the basis: def2-SVP
   F. Weigend and R. Ahlrichs, Phys. Chem. Chem. Phys. 7, 3297 (2005).

================================================================================
                                        WARNINGS
                       Please study these warnings very carefully!
================================================================================

WARNING: Gradients needed for Numerical Frequencies
  ===> : Setting RunTyp to EnGrad

WARNING: The environment variable RSH_COMMAND is not set!
  ===> : All Displacements for the Numerical Hessian calculation
         will be started on localhost

WARNING: Found dipole moment calculation with XTB calculation
  ===> : Switching off dipole moment calculation


INFO   : the flag for use of LIBINT has been found!

================================================================================
                                       INPUT FILE
================================================================================
NAME = /tmp/slurm-scratch/freq.801/freq.inp
|  1> ! XTB2 NumFreq
|  2> %maxcore 1150
|  3> 
|  4> * xyzfile 0 1 init.xyz
|  5> 
|  6> %cpcm
|  7>  smd true
|  8>  smdsolvent "ch2cl2"
|  9> end
| 10> %pal nprocs 6 end
| 11> 
| 12>                          ****END OF INPUT****
================================================================================

                     *******************************
                     * Energy+Gradient Calculation *
                     *******************************

      -----------------------------------------------------------      
     |                   =====================                   |     
     |                           x T B                           |     
     |                   =====================                   |     
     |                         S. Grimme                         |     
     |          Mulliken Center for Theoretical Chemistry        |     
     |                    University of Bonn                     |     
      -----------------------------------------------------------      

   * xtb version 6.3.2 (30e43eb) compiled by 'schneider@apollo14' on 2020-08-08

   xtb is free software: you can redistribute it and/or modify it under
   the terms of the GNU Lesser General Public License as published by
   the Free Software Foundation, either version 3 of the License, or
   (at your option) any later version.
   
   xtb is distributed in the hope that it will be useful,
   but WITHOUT ANY WARRANTY; without even the implied warranty of
   MERCHANTABILITY or FITNESS FOR A PARTICULAR PURPOSE.  See the
   GNU Lesser General Public License for more details.
   
   Cite this work as:
   * S. Grimme, C. Bannwarth, P. Shushkov, J. Chem. Theory Comput., 2017,
     13, 1989-2009. DOI: 10.1021/acs.jctc.7b00118
   * C. Bannwarth, S. Ehlert and S. Grimme., J. Chem. Theory Comput., 2019,
     15, 1652-1671. DOI: 10.1021/acs.jctc.8b01176
   * P. Pracht, E. Caldeweyher, S. Ehlert, S. Grimme, ChemRxiv, 2019, preprint.
     DOI: 10.26434/chemrxiv.8326202.v1
   
   for GFN-FF:
   * S. Spicher and S. Grimme, Angew. Chem. Int. Ed., 2020,
     DOI: 10.1002/anie.202004239
   
   for DFT-D4:
   * E. Caldeweyher, C. Bannwarth and S. Grimme, J. Chem. Phys., 2017,
     147, 034112. DOI: 10.1063/1.4993215
   * E. Caldeweyher, S. Ehlert, A. Hansen, H. Neugebauer, S. Spicher,
     C. Bannwarth and S. Grimme, J. Chem. Phys., 2019, 150, 154122.
     DOI: 10.1063/1.5090222
   
   for sTDA-xTB:
   * S. Grimme and C. Bannwarth, J. Chem. Phys., 2016, 145, 054103.
     DOI: 10.1063/1.4959605
   
   in the mass-spec context:
   * V. Asgeirsson, C. Bauer and S. Grimme, Chem. Sci., 2017, 8, 4879.
     DOI: 10.1039/c7sc00601b
   * J. Koopman and S. Grimme, ACS Omega 2019, 4, 12, 15120-15133.
     DOI: 10.1021/acsomega.9b02011
   
   for metadynamics refer to:
   * S. Grimme, J. Chem. Theory Comput., 2019, 155, 2847-2862
     DOI: 10.1021/acs.jctc.9b00143
   
   with help from (in alphabetical order)
   C. Bannwarth, F. Bohle, G. Brandenburg, E. Caldeweyher, M. Checinski,
   S. Dohm, S. Ehlert, S. Ehrlich, F. März, H. Neugebauer, J. Pisarek,
   P. Pracht, P. Shushkov, and S. Spicher.
   
 * started run on 2021/03/31 at 15:25:53.537     

           -------------------------------------------------
          |                Calculation Setup                |
           -------------------------------------------------

          program call               : /opt/orca/otool_xtb /tmp/slurm-scratch/freq.801/freq_XTB.xyz --grad -c 0 -u 0 -P 6 --namespace /tmp/slurm-scratch/freq.801/freq --gbsa CH2Cl2
          hostname                   : apollo14
          calculation namespace      : /tmp/slurm-scratch/freq.801/freq
          coordinate file            : /tmp/slurm-scratch/freq.801/freq_XTB.xyz
          omp threads                :                     6
          number of atoms            :                    46
          number of electrons        :                   104
          charge                     :                     0
          spin                       :                   0.0
          first test random number   :      0.14704373947392

   ID    Z sym.   atoms
    1    6 C      1-6, 12, 18, 21, 25, 28, 31, 34, 39, 43
    2    1 H      7-9, 11, 13-15, 17, 19, 20, 22, 24, 26, 27, 29, 30, 32, 33,
                  35-38, 40-42, 44-46
    3    7 N      10, 16
    4    8 O      23

molecular fragmentation (1/2 indicates fragments):
1111111111211122222211221112222221111122221111
# atoms in fragment 1/2:    27    19
 fragment masses (1/2) :      161.24       91.15
CMA distance (Bohr)    :   9.659
constraining FC (au)   :  0.0500
########################################################################
[WARNING] Please study the warnings concerning your input carefully
-1- prog_main_parseArguments: Process number higher than OMP_NUM_THREADS, I hope you know what you are doing.
########################################################################

           -------------------------------------------------
          |                 G F N 2 - x T B                 |
           -------------------------------------------------

        Reference                      10.1021/acs.jctc.8b01176
      * Hamiltonian:
        H0-scaling (s, p, d)           1.850000    2.230000    2.230000
        zeta-weighting                 0.500000
      * Dispersion:
        s8                             2.700000
        a1                             0.520000
        a2                             5.000000
        s9                             5.000000
      * Repulsion:
        kExp                           1.500000    1.000000
        rExp                           1.000000
      * Coulomb:
        alpha                          2.000000
        third order                    shell-resolved
        anisotropic                    true
        a3                             3.000000
        a5                             4.000000
        cn-shift                       1.200000
        cn-exp                         4.000000
        max-rad                        5.000000

      * Solvation model:               GBSA
        Solvent                        CH2Cl2
        Parameter file                 internal GFN2-xTB/GBSA
        Dielectric constant                8.9300E+00
        Reference state                gsolv [1 M gas/solution]
        Free energy shift                  4.4408E-03 Eh       2.7867E+00 kcal/mol
        Temperature                        2.9815E+02 K
        Density                            1.3300E+00 kg/L
        Solvent mass                       8.4930E+01 g/mol
        Interaction kernel             Still
        Born radius scaling (c1)           1.4917E+00
        Born radii integrator          GBOBC
        Born offset                        0.0000E+00 a0       0.0000E+00 AA
        H-bond correction              false
        Ion screening                  false
        Surface tension                    1.0000E-05 Eh       1.5569E+01 dyn/cm
        Grid points                               230 per atom

          ...................................................
          :                      SETUP                      :
          :.................................................:
          :  # basis functions                 100          :
          :  # atomic orbitals                 100          :
          :  # shells                           64          :
          :  # electrons                       104          :
          :  max. iterations                   250          :
          :  Hamiltonian                  GFN2-xTB          :
          :  restarted?                      false          :
          :  GBSA solvation                   true          :
          :  PC potential                    false          :
          :  electronic temp.          300.0000000     K    :
          :  accuracy                    1.0000000          :
          :  -> integral cutoff          0.2500000E+02      :
          :  -> integral neglect         0.1000000E-07      :
          :  -> SCF convergence          0.1000000E-05 Eh   :
          :  -> wf. convergence          0.1000000E-03 e    :
          :  Broyden damping             0.4000000          :
          ...................................................

 iter      E             dE          RMSdq      gap      omega  full diag
   1    -57.0023471 -0.570023E+02  0.362E+00    3.02       0.0  T
   2    -57.0652580 -0.629108E-01  0.212E+00    3.03       1.0  T
   3    -57.0634841  0.177392E-02  0.724E-01    2.69       1.0  T
   4    -57.0669198 -0.343574E-02  0.352E-01    2.77       1.0  T
   5    -57.0706325 -0.371271E-02  0.678E-02    2.71       1.0  T
   6    -57.0706514 -0.189021E-04  0.351E-02    2.73       1.0  T
   7    -57.0706626 -0.112023E-04  0.151E-02    2.73       1.0  T
   8    -57.0706650 -0.234736E-05  0.390E-03    2.73       3.8  T
   9    -57.0706652 -0.224556E-06  0.149E-03    2.73       9.9  T
  10    -57.0706652 -0.918328E-08  0.826E-04    2.73      17.9  T
  11    -57.0706652 -0.791435E-08  0.323E-04    2.73      45.6  T

   *** convergence criteria satisfied after 11 iterations ***

         #    Occupation            Energy/Eh            Energy/eV
      -------------------------------------------------------------
         1        2.0000           -0.6556309             -17.8406
       ...           ...                  ...                  ...
        46        2.0000           -0.4236824             -11.5290
        47        2.0000           -0.4220294             -11.4840
        48        2.0000           -0.4181142             -11.3775
        49        2.0000           -0.4127523             -11.2316
        50        2.0000           -0.4022491             -10.9458
        51        2.0000           -0.3869987             -10.5308
        52        2.0000           -0.3788475             -10.3090 (HOMO)
        53                         -0.2785783              -7.5805 (LUMO)
        54                         -0.2356349              -6.4120
        55                         -0.1976579              -5.3785
        56                         -0.0991756              -2.6987
        57                         -0.0024844              -0.0676
       ...                                ...                  ...
       100                          0.6178660              16.8130
      -------------------------------------------------------------
                  HL-Gap            0.1002692 Eh            2.7285 eV
             Fermi-level           -0.3287129 Eh           -8.9447 eV

 SCC (total)                   0 d,  0 h,  0 min,  0.155 sec
 SCC setup                      ...        0 min,  0.005 sec (  3.181%)
 Dispersion                     ...        0 min,  0.003 sec (  1.995%)
 classical contributions        ...        0 min,  0.002 sec (  1.326%)
 integral evaluation            ...        0 min,  0.016 sec ( 10.559%)
 iterations                     ...        0 min,  0.058 sec ( 37.590%)
 molecular gradient             ...        0 min,  0.069 sec ( 44.639%)
 printout                       ...        0 min,  0.001 sec (  0.695%)

         :::::::::::::::::::::::::::::::::::::::::::::::::::::
         ::                     SUMMARY                     ::
         :::::::::::::::::::::::::::::::::::::::::::::::::::::
         :: total energy             -56.291198953815 Eh    ::
         :: total w/o Gsasa/hb       -56.266571020232 Eh    ::
         :: gradient norm              0.053711833410 Eh/a0 ::
         :: HOMO-LUMO gap              2.728464019057 eV    ::
         ::.................................................::
         :: SCC energy               -57.070665210635 Eh    ::
         :: -> isotropic ES            0.063687654837 Eh    ::
         :: -> anisotropic ES          0.005930439572 Eh    ::
         :: -> anisotropic XC          0.042110832044 Eh    ::
         :: -> dispersion             -0.035227033436 Eh    ::
         :: -> Gsolv                  -0.030832756211 Eh    ::
         ::    -> Gborn               -0.006204822628 Eh    ::
         ::    -> Gsasa               -0.029068762757 Eh    ::
         ::    -> Ghb                  0.000000000000 Eh    ::
         ::    -> Gshift               0.004440829173 Eh    ::
         :: repulsion energy           0.779217207086 Eh    ::
         :: add. restraining           0.000000000000 Eh    ::
         :: total charge              -0.000000000000 e     ::
         :::::::::::::::::::::::::::::::::::::::::::::::::::::

           -------------------------------------------------
          |                Property Printout                |
           -------------------------------------------------

    * Orbital Energies and Occupations

         #    Occupation            Energy/Eh            Energy/eV
      -------------------------------------------------------------
         1        2.0000           -0.6556309             -17.8406
       ...           ...                  ...                  ...
        40        2.0000           -0.4384996             -11.9322
        41        2.0000           -0.4378795             -11.9153
        42        2.0000           -0.4356936             -11.8558
        43        2.0000           -0.4331151             -11.7857
        44        2.0000           -0.4315743             -11.7437
        45        2.0000           -0.4280240             -11.6471
        46        2.0000           -0.4236824             -11.5290
        47        2.0000           -0.4220294             -11.4840
        48        2.0000           -0.4181142             -11.3775
        49        2.0000           -0.4127523             -11.2316
        50        2.0000           -0.4022491             -10.9458
        51        2.0000           -0.3869987             -10.5308
        52        2.0000           -0.3788475             -10.3090 (HOMO)
        53                         -0.2785783              -7.5805 (LUMO)
        54                         -0.2356349              -6.4120
        55                         -0.1976579              -5.3785
        56                         -0.0991756              -2.6987
        57                         -0.0024844              -0.0676
        58                          0.0210111               0.5717
        59                          0.0630194               1.7148
        60                          0.0820204               2.2319
        61                          0.0872011               2.3729
        62                          0.0898838               2.4459
        63                          0.0965487               2.6272
       ...                                ...                  ...
       100                          0.6178660              16.8130
      -------------------------------------------------------------
                  HL-Gap            0.1002692 Eh            2.7285 eV
             Fermi-level           -0.3287129 Eh           -8.9447 eV

     #   Z          covCN         q      C6AA      α(0)
     1   6 C        2.907    -0.028    28.688     8.783
     2   6 C        2.914    -0.029    28.721     8.788
     3   6 C        2.963     0.004    27.921     8.667
     4   6 C        2.911    -0.026    28.644     8.776
     5   6 C        2.907    -0.028    28.692     8.783
     6   6 C        2.909    -0.024    28.609     8.771
     7   1 H        0.925     0.038     2.472     2.459
     8   1 H        0.925     0.046     2.368     2.406
     9   1 H        0.925     0.045     2.390     2.417
    10   7 N        1.823    -0.263    27.690     7.797
    11   1 H        0.797     0.304     0.712     1.326
    12   6 C        3.755     0.019    20.307     6.425
    13   1 H        0.923     0.045     2.377     2.411
    14   1 H        0.922     0.009     2.908     2.667
    15   1 H        0.859     0.179     1.219     1.730
    16   7 N        2.625    -0.374    29.653     8.087
    17   1 H        0.804     0.271     0.814     1.417
    18   6 C        3.727     0.019    20.362     6.443
    19   1 H        0.922     0.011     2.871     2.650
    20   1 H        0.923     0.034     2.528     2.487
    21   6 C        2.847     0.076    26.292     8.404
    22   1 H        0.923     0.003     3.000     2.709
    23   8 O        1.600    -0.630    25.932     6.873
    24   1 H        0.859     0.141     1.464     1.896
    25   6 C        3.798    -0.059    21.640     6.624
    26   1 H        0.924     0.055     2.258     2.350
    27   1 H        0.923     0.029     2.598     2.521
    28   6 C        3.797    -0.066    21.761     6.642
    29   1 H        0.923     0.035     2.519     2.482
    30   1 H        0.923     0.043     2.404     2.425
    31   6 C        3.795    -0.053    21.527     6.607
    32   1 H        0.923     0.030     2.582     2.513
    33   1 H        0.923     0.031     2.567     2.506
    34   6 C        3.796    -0.052    21.513     6.605
    35   1 H        0.923     0.036     2.499     2.472
    36   1 H        0.923     0.028     2.620     2.531
    37   1 H        0.925     0.043     2.407     2.426
    38   1 H        0.925     0.043     2.411     2.428
    39   6 C        3.745    -0.101    22.494     6.765
    40   1 H        0.923     0.035     2.511     2.478
    41   1 H        0.923     0.035     2.523     2.484
    42   1 H        0.923     0.035     2.512     2.479
    43   6 C        3.745    -0.100    22.484     6.764
    44   1 H        0.923     0.039     2.468     2.457
    45   1 H        0.923     0.035     2.513     2.479
    46   1 H        0.923     0.033     2.546     2.495

 Mol. C6AA /au·bohr⁶  :      17450.381891
 Mol. C8AA /au·bohr⁸  :     382513.244765
 Mol. α(0) /au        :        202.703380


Wiberg/Mayer (AO) data.
largest (>0.10) Wiberg bond orders for each atom

 ---------------------------------------------------------------------------
     #   Z sym  total        # sym  WBO       # sym  WBO       # sym  WBO
 ---------------------------------------------------------------------------
     1   6 C    3.990 --     2 C    1.451     6 C    1.437    38 H    0.970
                             4 C    0.106
     2   6 C    3.985 --     1 C    1.451     3 C    1.378     7 H    0.968
                             5 C    0.104
     3   6 C    3.987 --     2 C    1.378     4 C    1.364    21 C    1.087
     4   6 C    3.989 --     5 C    1.467     3 C    1.364     8 H    0.965
                             1 C    0.106
     5   6 C    3.991 --     4 C    1.467     6 C    1.421    37 H    0.970
                             2 C    0.104
     6   6 C    3.986 --     1 C    1.437     5 C    1.421     9 H    0.971
     7   1 H    0.999 --     2 C    0.968
     8   1 H    0.998 --     4 C    0.965
     9   1 H    0.998 --     6 C    0.971
    10   7 N    3.082 --    21 C    1.834    12 C    1.021
    11   1 H    0.908 --    23 O    0.832
    12   6 C    3.982 --    10 N    1.021    25 C    0.985    14 H    0.966
                            13 H    0.959
    13   1 H    0.995 --    12 C    0.959
    14   1 H    1.000 --    12 C    0.966
    15   1 H    0.968 --    16 N    0.929
    16   7 N    3.071 --    18 C    1.011    24 H    0.967    15 H    0.929
    17   1 H    0.926 --    23 O    0.925
    18   6 C    3.982 --    16 N    1.011    28 C    1.006    20 H    0.976
                            19 H    0.972
    19   1 H    1.000 --    18 C    0.972
    20   1 H    0.999 --    18 C    0.976
    21   6 C    3.967 --    10 N    1.834     3 C    1.087    22 H    0.941
    22   1 H    1.000 --    21 C    0.941
    23   8 O    1.798 --    17 H    0.925    11 H    0.832
    24   1 H    0.980 --    16 N    0.967
    25   6 C    3.989 --    34 C    1.005    12 C    0.985    27 H    0.978
                            26 H    0.972
    26   1 H    0.997 --    25 C    0.972
    27   1 H    0.999 --    25 C    0.978
    28   6 C    3.995 --    31 C    1.006    18 C    1.006    29 H    0.976
                            30 H    0.975
    29   1 H    0.999 --    28 C    0.976
    30   1 H    0.998 --    28 C    0.975
    31   6 C    3.996 --    39 C    1.019    28 C    1.006    33 H    0.978
                            32 H    0.978
    32   1 H    0.999 --    31 C    0.978
    33   1 H    0.999 --    31 C    0.978
    34   6 C    3.995 --    43 C    1.018    25 C    1.005    36 H    0.979
                            35 H    0.978
    35   1 H    0.999 --    34 C    0.978
    36   1 H    0.999 --    34 C    0.979
    37   1 H    0.998 --     5 C    0.970
    38   1 H    0.998 --     1 C    0.970
    39   6 C    3.996 --    31 C    1.019    41 H    0.988    42 H    0.988
                            40 H    0.987
    40   1 H    0.998 --    39 C    0.987
    41   1 H    0.999 --    39 C    0.988
    42   1 H    0.999 --    39 C    0.988
    43   6 C    3.995 --    34 C    1.018    46 H    0.988    44 H    0.988
                            45 H    0.987
    44   1 H    0.999 --    43 C    0.988
    45   1 H    0.998 --    43 C    0.987
    46   1 H    0.999 --    43 C    0.988
 ---------------------------------------------------------------------------

Topologies differ in total number of bonds
Writing topology from bond orders to xtbtopo.mol

molecular dipole:
                 x           y           z       tot (Debye)
 q only:        0.130      -0.100       1.377
   full:        0.558      -0.053       1.668       4.473
molecular quadrupole (traceless):
                xx          xy          yy          xz          yz          zz
 q only:        0.775      -0.120      -8.510      -4.328      -0.055       7.735
  q+dip:        3.289      -4.850     -13.370      -6.401       0.731      10.081
   full:        1.653      -3.087      -9.944      -6.375       0.341       8.291


           -------------------------------------------------
          | TOTAL ENERGY              -56.291198953815 Eh   |
          | GRADIENT NORM               0.053711833410 Eh/α |
          | HOMO-LUMO GAP               2.728464019057 eV   |
           -------------------------------------------------

------------------------------------------------------------------------
 * finished run on 2021/03/31 at 15:25:53.748     
------------------------------------------------------------------------
 total:
 * wall-time:     0 d,  0 h,  0 min,  0.211 sec
 *  cpu-time:     0 d,  0 h,  0 min,  2.370 sec
 * ratio c/w:    11.226 speedup
 SCF:
 * wall-time:     0 d,  0 h,  0 min,  0.159 sec
 *  cpu-time:     0 d,  0 h,  0 min,  1.820 sec
 * ratio c/w:    11.432 speedup


-------------------------   --------------------
FINAL SINGLE POINT ENERGY       -56.291198953810
-------------------------   --------------------


----------------------------------------------------------------------------
                           ORCA NUMERICAL FREQUENCIES
                              (6-process run)
----------------------------------------------------------------------------

Number of atoms                ... 46
Central differences            ... used
Number of displacements        ... 276
Numerical increment            ... 5.000e-03 bohr
IR-spectrum generation         ... on
Raman-spectrum generation      ... off
Surface Crossing Hessian       ... off
List of participating nodes    ...  /tmp/slurm-scratch/freq.801/freq.hostnames

The output will be reduced. Please look at the following files:
SCF program output             ... >/tmp/slurm-scratch/freq.801/freq.lastscf
Integral program output        ... >/tmp/slurm-scratch/freq.801/freq.lastint
Gradient program output        ... >/tmp/slurm-scratch/freq.801/freq.lastgrad
Dipole moment program output   ... >/tmp/slurm-scratch/freq.801/freq.lastmom
AutoCI program output          ... >/tmp/slurm-scratch/freq.801/freq.lastautoci


         <<< Energy and Gradient at the input geometry >>>

        <<< Energy and Gradient at displaced geometries >>>
             <<<Displacing   1/coordinate 3 (+)>>>
             <<<Displacing   2/coordinate 1 (+)>>>
             <<<Displacing   1/coordinate 1 (+)>>>
             <<<Displacing   2/coordinate 2 (+)>>>
             <<<Displacing   1/coordinate 2 (+)>>>
             <<<Displacing   2/coordinate 3 (+)>>>
             <<<Displacing   1/coordinate 2 (-)>>>
             <<<Displacing   2/coordinate 2 (-)>>>
             <<<Displacing   1/coordinate 1 (-)>>>
             <<<Displacing   1/coordinate 3 (-)>>>
             <<<Displacing   2/coordinate 3 (-)>>>
             <<<Displacing   2/coordinate 1 (-)>>>
             <<<Displacing   3/coordinate 1 (+)>>>
             <<<Displacing   3/coordinate 3 (+)>>>
             <<<Displacing   3/coordinate 2 (+)>>>
             <<<Displacing   4/coordinate 1 (+)>>>
             <<<Displacing   3/coordinate 1 (-)>>>
             <<<Displacing   3/coordinate 3 (-)>>>
             <<<Displacing   3/coordinate 2 (-)>>>
             <<<Displacing   4/coordinate 1 (-)>>>
             <<<Displacing   4/coordinate 3 (+)>>>
             <<<Displacing   4/coordinate 2 (+)>>>
             <<<Displacing   4/coordinate 3 (-)>>>
             <<<Displacing   4/coordinate 2 (-)>>>
             <<<Displacing   5/coordinate 1 (+)>>>
             <<<Displacing   5/coordinate 2 (+)>>>
             <<<Displacing   6/coordinate 1 (+)>>>
             <<<Displacing   5/coordinate 1 (-)>>>
             <<<Displacing   5/coordinate 3 (+)>>>
             <<<Displacing   5/coordinate 2 (-)>>>
             <<<Displacing   6/coordinate 1 (-)>>>
             <<<Displacing   6/coordinate 3 (+)>>>
             <<<Displacing   5/coordinate 3 (-)>>>
             <<<Displacing   6/coordinate 2 (+)>>>
             <<<Displacing   6/coordinate 3 (-)>>>
             <<<Displacing   6/coordinate 2 (-)>>>
             <<<Displacing   7/coordinate 1 (+)>>>
             <<<Displacing   7/coordinate 2 (+)>>>
             <<<Displacing   8/coordinate 1 (+)>>>
             <<<Displacing   7/coordinate 1 (-)>>>
             <<<Displacing   7/coordinate 3 (+)>>>
             <<<Displacing   7/coordinate 2 (-)>>>
             <<<Displacing   8/coordinate 1 (-)>>>
             <<<Displacing   7/coordinate 3 (-)>>>
             <<<Displacing   8/coordinate 2 (+)>>>
             <<<Displacing   8/coordinate 2 (-)>>>
             <<<Displacing   8/coordinate 3 (+)>>>
             <<<Displacing   8/coordinate 3 (-)>>>
             <<<Displacing   9/coordinate 3 (+)>>>
             <<<Displacing   9/coordinate 2 (+)>>>
             <<<Displacing   9/coordinate 3 (-)>>>
             <<<Displacing   9/coordinate 2 (-)>>>
             <<<Displacing   9/coordinate 1 (+)>>>
             <<<Displacing  10/coordinate 1 (+)>>>
             <<<Displacing   9/coordinate 1 (-)>>>
             <<<Displacing  10/coordinate 1 (-)>>>
             <<<Displacing  10/coordinate 3 (+)>>>
             <<<Displacing  10/coordinate 2 (+)>>>
             <<<Displacing  10/coordinate 2 (-)>>>
             <<<Displacing  10/coordinate 3 (-)>>>
             <<<Displacing  11/coordinate 1 (+)>>>
             <<<Displacing  11/coordinate 3 (+)>>>
             <<<Displacing  11/coordinate 1 (-)>>>
             <<<Displacing  11/coordinate 2 (+)>>>
             <<<Displacing  11/coordinate 3 (-)>>>
             <<<Displacing  11/coordinate 2 (-)>>>
             <<<Displacing  12/coordinate 1 (+)>>>
             <<<Displacing  12/coordinate 1 (-)>>>
             <<<Displacing  12/coordinate 3 (+)>>>
             <<<Displacing  12/coordinate 3 (-)>>>
             <<<Displacing  12/coordinate 2 (+)>>>
             <<<Displacing  12/coordinate 2 (-)>>>
             <<<Displacing  13/coordinate 2 (+)>>>
             <<<Displacing  13/coordinate 2 (-)>>>
             <<<Displacing  13/coordinate 1 (+)>>>
             <<<Displacing  13/coordinate 3 (+)>>>
             <<<Displacing  13/coordinate 1 (-)>>>
             <<<Displacing  13/coordinate 3 (-)>>>
             <<<Displacing  14/coordinate 1 (+)>>>
             <<<Displacing  14/coordinate 2 (+)>>>
             <<<Displacing  14/coordinate 1 (-)>>>
             <<<Displacing  14/coordinate 2 (-)>>>
             <<<Displacing  14/coordinate 3 (+)>>>
             <<<Displacing  14/coordinate 3 (-)>>>
             <<<Displacing  15/coordinate 1 (+)>>>
             <<<Displacing  15/coordinate 1 (-)>>>
             <<<Displacing  15/coordinate 2 (+)>>>
             <<<Displacing  15/coordinate 2 (-)>>>
             <<<Displacing  15/coordinate 3 (+)>>>
             <<<Displacing  15/coordinate 3 (-)>>>
             <<<Displacing  16/coordinate 2 (+)>>>
             <<<Displacing  16/coordinate 2 (-)>>>
             <<<Displacing  16/coordinate 1 (+)>>>
             <<<Displacing  16/coordinate 1 (-)>>>
             <<<Displacing  16/coordinate 3 (+)>>>
             <<<Displacing  16/coordinate 3 (-)>>>
             <<<Displacing  17/coordinate 1 (+)>>>
             <<<Displacing  17/coordinate 1 (-)>>>
             <<<Displacing  17/coordinate 2 (+)>>>
             <<<Displacing  17/coordinate 2 (-)>>>
             <<<Displacing  17/coordinate 3 (+)>>>
             <<<Displacing  17/coordinate 3 (-)>>>
             <<<Displacing  18/coordinate 1 (+)>>>
             <<<Displacing  18/coordinate 1 (-)>>>
             <<<Displacing  18/coordinate 2 (+)>>>
             <<<Displacing  18/coordinate 2 (-)>>>
             <<<Displacing  18/coordinate 3 (+)>>>
             <<<Displacing  18/coordinate 3 (-)>>>
             <<<Displacing  19/coordinate 1 (+)>>>
             <<<Displacing  19/coordinate 1 (-)>>>
             <<<Displacing  19/coordinate 2 (+)>>>
             <<<Displacing  19/coordinate 2 (-)>>>
             <<<Displacing  19/coordinate 3 (+)>>>
             <<<Displacing  19/coordinate 3 (-)>>>
             <<<Displacing  20/coordinate 1 (+)>>>
             <<<Displacing  20/coordinate 1 (-)>>>
             <<<Displacing  20/coordinate 2 (+)>>>
             <<<Displacing  20/coordinate 2 (-)>>>
             <<<Displacing  20/coordinate 3 (+)>>>
             <<<Displacing  20/coordinate 3 (-)>>>
             <<<Displacing  21/coordinate 1 (+)>>>
             <<<Displacing  21/coordinate 1 (-)>>>
             <<<Displacing  21/coordinate 2 (+)>>>
             <<<Displacing  21/coordinate 2 (-)>>>
             <<<Displacing  21/coordinate 3 (+)>>>
             <<<Displacing  21/coordinate 3 (-)>>>
             <<<Displacing  22/coordinate 1 (+)>>>
             <<<Displacing  22/coordinate 1 (-)>>>
             <<<Displacing  22/coordinate 2 (+)>>>
             <<<Displacing  22/coordinate 2 (-)>>>
             <<<Displacing  22/coordinate 3 (+)>>>
             <<<Displacing  22/coordinate 3 (-)>>>
             <<<Displacing  23/coordinate 1 (+)>>>
             <<<Displacing  23/coordinate 1 (-)>>>
             <<<Displacing  23/coordinate 2 (+)>>>
             <<<Displacing  23/coordinate 2 (-)>>>
             <<<Displacing  23/coordinate 3 (+)>>>
             <<<Displacing  23/coordinate 3 (-)>>>
             <<<Displacing  24/coordinate 1 (+)>>>
             <<<Displacing  24/coordinate 1 (-)>>>
             <<<Displacing  24/coordinate 2 (+)>>>
             <<<Displacing  24/coordinate 2 (-)>>>
             <<<Displacing  24/coordinate 3 (+)>>>
             <<<Displacing  24/coordinate 3 (-)>>>
             <<<Displacing  25/coordinate 1 (+)>>>
             <<<Displacing  25/coordinate 1 (-)>>>
             <<<Displacing  25/coordinate 2 (+)>>>
             <<<Displacing  25/coordinate 2 (-)>>>
             <<<Displacing  25/coordinate 3 (+)>>>
             <<<Displacing  26/coordinate 1 (+)>>>
             <<<Displacing  25/coordinate 3 (-)>>>
             <<<Displacing  26/coordinate 1 (-)>>>
             <<<Displacing  26/coordinate 2 (+)>>>
             <<<Displacing  26/coordinate 2 (-)>>>
             <<<Displacing  26/coordinate 3 (+)>>>
             <<<Displacing  26/coordinate 3 (-)>>>
             <<<Displacing  27/coordinate 1 (+)>>>
             <<<Displacing  27/coordinate 1 (-)>>>
             <<<Displacing  27/coordinate 2 (+)>>>
             <<<Displacing  27/coordinate 3 (+)>>>
             <<<Displacing  27/coordinate 2 (-)>>>
             <<<Displacing  27/coordinate 3 (-)>>>
             <<<Displacing  28/coordinate 1 (+)>>>
             <<<Displacing  28/coordinate 1 (-)>>>
             <<<Displacing  28/coordinate 2 (+)>>>
             <<<Displacing  28/coordinate 2 (-)>>>
             <<<Displacing  28/coordinate 3 (+)>>>
             <<<Displacing  28/coordinate 3 (-)>>>
             <<<Displacing  29/coordinate 1 (+)>>>
             <<<Displacing  29/coordinate 1 (-)>>>
             <<<Displacing  29/coordinate 2 (+)>>>
             <<<Displacing  29/coordinate 3 (+)>>>
             <<<Displacing  29/coordinate 2 (-)>>>
             <<<Displacing  29/coordinate 3 (-)>>>
             <<<Displacing  30/coordinate 1 (+)>>>
             <<<Displacing  30/coordinate 1 (-)>>>
             <<<Displacing  30/coordinate 2 (+)>>>
             <<<Displacing  30/coordinate 2 (-)>>>
             <<<Displacing  30/coordinate 3 (+)>>>
             <<<Displacing  30/coordinate 3 (-)>>>
             <<<Displacing  31/coordinate 1 (+)>>>
             <<<Displacing  31/coordinate 1 (-)>>>
             <<<Displacing  31/coordinate 3 (+)>>>
             <<<Displacing  31/coordinate 2 (+)>>>
             <<<Displacing  31/coordinate 3 (-)>>>
             <<<Displacing  32/coordinate 1 (+)>>>
             <<<Displacing  31/coordinate 2 (-)>>>
             <<<Displacing  32/coordinate 1 (-)>>>
             <<<Displacing  32/coordinate 2 (+)>>>
             <<<Displacing  32/coordinate 2 (-)>>>
             <<<Displacing  32/coordinate 3 (+)>>>
             <<<Displacing  32/coordinate 3 (-)>>>
             <<<Displacing  33/coordinate 1 (+)>>>
             <<<Displacing  33/coordinate 1 (-)>>>
             <<<Displacing  33/coordinate 2 (+)>>>
             <<<Displacing  33/coordinate 3 (+)>>>
             <<<Displacing  33/coordinate 2 (-)>>>
             <<<Displacing  33/coordinate 3 (-)>>>
             <<<Displacing  34/coordinate 1 (+)>>>
             <<<Displacing  34/coordinate 1 (-)>>>
             <<<Displacing  34/coordinate 2 (+)>>>
             <<<Displacing  34/coordinate 2 (-)>>>
             <<<Displacing  34/coordinate 3 (+)>>>
             <<<Displacing  34/coordinate 3 (-)>>>
             <<<Displacing  35/coordinate 1 (+)>>>
             <<<Displacing  35/coordinate 1 (-)>>>
             <<<Displacing  35/coordinate 2 (+)>>>
             <<<Displacing  35/coordinate 2 (-)>>>
             <<<Displacing  35/coordinate 3 (+)>>>
             <<<Displacing  35/coordinate 3 (-)>>>
             <<<Displacing  36/coordinate 1 (+)>>>
             <<<Displacing  36/coordinate 1 (-)>>>
             <<<Displacing  36/coordinate 2 (+)>>>
             <<<Displacing  36/coordinate 3 (+)>>>
             <<<Displacing  36/coordinate 3 (-)>>>
             <<<Displacing  36/coordinate 2 (-)>>>
             <<<Displacing  37/coordinate 1 (+)>>>
             <<<Displacing  37/coordinate 1 (-)>>>
             <<<Displacing  37/coordinate 2 (+)>>>
             <<<Displacing  37/coordinate 3 (+)>>>
             <<<Displacing  37/coordinate 2 (-)>>>
             <<<Displacing  37/coordinate 3 (-)>>>
             <<<Displacing  38/coordinate 1 (+)>>>
             <<<Displacing  38/coordinate 1 (-)>>>
             <<<Displacing  38/coordinate 2 (+)>>>
             <<<Displacing  38/coordinate 3 (+)>>>
             <<<Displacing  38/coordinate 2 (-)>>>
             <<<Displacing  38/coordinate 3 (-)>>>
             <<<Displacing  39/coordinate 1 (+)>>>
             <<<Displacing  39/coordinate 1 (-)>>>
             <<<Displacing  39/coordinate 3 (+)>>>
             <<<Displacing  39/coordinate 2 (+)>>>
             <<<Displacing  39/coordinate 3 (-)>>>
             <<<Displacing  39/coordinate 2 (-)>>>
             <<<Displacing  40/coordinate 1 (+)>>>
             <<<Displacing  40/coordinate 1 (-)>>>
             <<<Displacing  40/coordinate 3 (+)>>>
             <<<Displacing  40/coordinate 2 (+)>>>
             <<<Displacing  40/coordinate 3 (-)>>>
             <<<Displacing  40/coordinate 2 (-)>>>
             <<<Displacing  41/coordinate 1 (+)>>>
             <<<Displacing  41/coordinate 1 (-)>>>
             <<<Displacing  41/coordinate 2 (+)>>>
             <<<Displacing  41/coordinate 2 (-)>>>
             <<<Displacing  41/coordinate 3 (+)>>>
             <<<Displacing  41/coordinate 3 (-)>>>
             <<<Displacing  42/coordinate 1 (+)>>>
             <<<Displacing  42/coordinate 1 (-)>>>
             <<<Displacing  42/coordinate 2 (+)>>>
             <<<Displacing  42/coordinate 3 (+)>>>
             <<<Displacing  42/coordinate 2 (-)>>>
             <<<Displacing  42/coordinate 3 (-)>>>
             <<<Displacing  43/coordinate 1 (+)>>>
             <<<Displacing  43/coordinate 1 (-)>>>
             <<<Displacing  43/coordinate 2 (+)>>>
             <<<Displacing  43/coordinate 2 (-)>>>
             <<<Displacing  43/coordinate 3 (+)>>>
             <<<Displacing  43/coordinate 3 (-)>>>
             <<<Displacing  44/coordinate 1 (+)>>>
             <<<Displacing  44/coordinate 1 (-)>>>
             <<<Displacing  44/coordinate 2 (+)>>>
             <<<Displacing  44/coordinate 3 (+)>>>
             <<<Displacing  44/coordinate 2 (-)>>>
             <<<Displacing  44/coordinate 3 (-)>>>
             <<<Displacing  45/coordinate 1 (+)>>>
             <<<Displacing  45/coordinate 1 (-)>>>
             <<<Displacing  45/coordinate 2 (+)>>>
             <<<Displacing  45/coordinate 2 (-)>>>
             <<<Displacing  45/coordinate 3 (+)>>>
             <<<Displacing  45/coordinate 3 (-)>>>
             <<<Displacing  46/coordinate 1 (+)>>>
             <<<Displacing  46/coordinate 1 (-)>>>
             <<<Displacing  46/coordinate 2 (+)>>>
             <<<Displacing  46/coordinate 3 (+)>>>
             <<<Displacing  46/coordinate 2 (-)>>>
             <<<Displacing  46/coordinate 3 (-)>>>

-----------------------
VIBRATIONAL FREQUENCIES
-----------------------

Scaling factor for frequencies =  1.000000000 (already applied!)

   0:         0.00 cm**-1
   1:         0.00 cm**-1
   2:         0.00 cm**-1
   3:         0.00 cm**-1
   4:         0.00 cm**-1
   5:         0.00 cm**-1
   6:        38.41 cm**-1
   7:        41.75 cm**-1
   8:        54.97 cm**-1
   9:        60.66 cm**-1
  10:        71.96 cm**-1
  11:        80.52 cm**-1
  12:        90.19 cm**-1
  13:       101.01 cm**-1
  14:       113.46 cm**-1
  15:       145.96 cm**-1
  16:       151.66 cm**-1
  17:       165.05 cm**-1
  18:       168.56 cm**-1
  19:       180.46 cm**-1
  20:       185.63 cm**-1
  21:       192.45 cm**-1
  22:       217.03 cm**-1
  23:       250.08 cm**-1
  24:       253.87 cm**-1
  25:       290.76 cm**-1
  26:       296.58 cm**-1
  27:       350.83 cm**-1
  28:       353.60 cm**-1
  29:       390.14 cm**-1
  30:       398.54 cm**-1
  31:       401.67 cm**-1
  32:       425.29 cm**-1
  33:       427.26 cm**-1
  34:       428.86 cm**-1
  35:       467.74 cm**-1
  36:       519.77 cm**-1
  37:       521.07 cm**-1
  38:       589.63 cm**-1
  39:       618.20 cm**-1
  40:       625.47 cm**-1
  41:       677.05 cm**-1
  42:       783.75 cm**-1
  43:       791.45 cm**-1
  44:       796.07 cm**-1
  45:       798.04 cm**-1
  46:       835.83 cm**-1
  47:       848.44 cm**-1
  48:       864.86 cm**-1
  49:       896.02 cm**-1
  50:       922.35 cm**-1
  51:       933.13 cm**-1
  52:       935.78 cm**-1
  53:       944.98 cm**-1
  54:       948.71 cm**-1
  55:       949.94 cm**-1
  56:       955.18 cm**-1
  57:       965.65 cm**-1
  58:       974.26 cm**-1
  59:       992.36 cm**-1
  60:      1003.97 cm**-1
  61:      1026.02 cm**-1
  62:      1040.96 cm**-1
  63:      1053.79 cm**-1
  64:      1058.89 cm**-1
  65:      1071.12 cm**-1
  66:      1076.50 cm**-1
  67:      1106.03 cm**-1
  68:      1109.73 cm**-1
  69:      1119.81 cm**-1
  70:      1146.35 cm**-1
  71:      1159.29 cm**-1
  72:      1179.56 cm**-1
  73:      1185.16 cm**-1
  74:      1206.12 cm**-1
  75:      1208.16 cm**-1
  76:      1217.00 cm**-1
  77:      1242.76 cm**-1
  78:      1246.43 cm**-1
  79:      1260.43 cm**-1
  80:      1271.69 cm**-1
  81:      1280.34 cm**-1
  82:      1282.63 cm**-1
  83:      1284.59 cm**-1
  84:      1287.05 cm**-1
  85:      1299.49 cm**-1
  86:      1330.31 cm**-1
  87:      1353.31 cm**-1
  88:      1356.62 cm**-1
  89:      1369.95 cm**-1
  90:      1379.68 cm**-1
  91:      1408.05 cm**-1
  92:      1431.34 cm**-1
  93:      1431.62 cm**-1
  94:      1437.65 cm**-1
  95:      1472.79 cm**-1
  96:      1496.23 cm**-1
  97:      1499.01 cm**-1
  98:      1505.34 cm**-1
  99:      1505.70 cm**-1
 100:      1508.76 cm**-1
 101:      1511.86 cm**-1
 102:      1512.33 cm**-1
 103:      1515.94 cm**-1
 104:      1516.26 cm**-1
 105:      1524.09 cm**-1
 106:      1531.94 cm**-1
 107:      1554.94 cm**-1
 108:      1587.65 cm**-1
 109:      1603.61 cm**-1
 110:      2744.89 cm**-1
 111:      2783.17 cm**-1
 112:      2806.28 cm**-1
 113:      2812.14 cm**-1
 114:      2864.75 cm**-1
 115:      2874.19 cm**-1
 116:      2875.73 cm**-1
 117:      2880.13 cm**-1
 118:      2887.98 cm**-1
 119:      2895.09 cm**-1
 120:      2900.79 cm**-1
 121:      2903.39 cm**-1
 122:      2909.79 cm**-1
 123:      2911.16 cm**-1
 124:      2913.52 cm**-1
 125:      2916.94 cm**-1
 126:      2919.19 cm**-1
 127:      2929.39 cm**-1
 128:      2930.38 cm**-1
 129:      2938.68 cm**-1
 130:      2980.90 cm**-1
 131:      2986.90 cm**-1
 132:      2992.54 cm**-1
 133:      3002.46 cm**-1
 134:      3022.52 cm**-1
 135:      3164.09 cm**-1
 136:      3297.93 cm**-1
 137:      3435.52 cm**-1


------------
NORMAL MODES
------------

These modes are the cartesian displacements weighted by the diagonal matrix
M(i,i)=1/sqrt(m[i]) where m[i] is the mass of the displaced atom
Thus, these vectors are normalized but *not* orthogonal

                  0          1          2          3          4          5    
      0       0.000000   0.000000   0.000000   0.000000   0.000000   0.000000
      1       0.000000   0.000000   0.000000   0.000000   0.000000   0.000000
      2       0.000000   0.000000   0.000000   0.000000   0.000000   0.000000
      3       0.000000   0.000000   0.000000   0.000000   0.000000   0.000000
      4       0.000000   0.000000   0.000000   0.000000   0.000000   0.000000
      5       0.000000   0.000000   0.000000   0.000000   0.000000   0.000000
      6       0.000000   0.000000   0.000000   0.000000   0.000000   0.000000
      7       0.000000   0.000000   0.000000   0.000000   0.000000   0.000000
      8       0.000000   0.000000   0.000000   0.000000   0.000000   0.000000
      9       0.000000   0.000000   0.000000   0.000000   0.000000   0.000000
     10       0.000000   0.000000   0.000000   0.000000   0.000000   0.000000
     11       0.000000   0.000000   0.000000   0.000000   0.000000   0.000000
     12       0.000000   0.000000   0.000000   0.000000   0.000000   0.000000
     13       0.000000   0.000000   0.000000   0.000000   0.000000   0.000000
     14       0.000000   0.000000   0.000000   0.000000   0.000000   0.000000
     15       0.000000   0.000000   0.000000   0.000000   0.000000   0.000000
     16       0.000000   0.000000   0.000000   0.000000   0.000000   0.000000
     17       0.000000   0.000000   0.000000   0.000000   0.000000   0.000000
     18       0.000000   0.000000   0.000000   0.000000   0.000000   0.000000
     19       0.000000   0.000000   0.000000   0.000000   0.000000   0.000000
     20       0.000000   0.000000   0.000000   0.000000   0.000000   0.000000
     21       0.000000   0.000000   0.000000   0.000000   0.000000   0.000000
     22       0.000000   0.000000   0.000000   0.000000   0.000000   0.000000
     23       0.000000   0.000000   0.000000   0.000000   0.000000   0.000000
     24       0.000000   0.000000   0.000000   0.000000   0.000000   0.000000
     25       0.000000   0.000000   0.000000   0.000000   0.000000   0.000000
     26       0.000000   0.000000   0.000000   0.000000   0.000000   0.000000
     27       0.000000   0.000000   0.000000   0.000000   0.000000   0.000000
     28       0.000000   0.000000   0.000000   0.000000   0.000000   0.000000
     29       0.000000   0.000000   0.000000   0.000000   0.000000   0.000000
     30       0.000000   0.000000   0.000000   0.000000   0.000000   0.000000
     31       0.000000   0.000000   0.000000   0.000000   0.000000   0.000000
     32       0.000000   0.000000   0.000000   0.000000   0.000000   0.000000
     33       0.000000   0.000000   0.000000   0.000000   0.000000   0.000000
     34       0.000000   0.000000   0.000000   0.000000   0.000000   0.000000
     35       0.000000   0.000000   0.000000   0.000000   0.000000   0.000000
     36       0.000000   0.000000   0.000000   0.000000   0.000000   0.000000
     37       0.000000   0.000000   0.000000   0.000000   0.000000   0.000000
     38       0.000000   0.000000   0.000000   0.000000   0.000000   0.000000
     39       0.000000   0.000000   0.000000   0.000000   0.000000   0.000000
     40       0.000000   0.000000   0.000000   0.000000   0.000000   0.000000
     41       0.000000   0.000000   0.000000   0.000000   0.000000   0.000000
     42       0.000000   0.000000   0.000000   0.000000   0.000000   0.000000
     43       0.000000   0.000000   0.000000   0.000000   0.000000   0.000000
     44       0.000000   0.000000   0.000000   0.000000   0.000000   0.000000
     45       0.000000   0.000000   0.000000   0.000000   0.000000   0.000000
     46       0.000000   0.000000   0.000000   0.000000   0.000000   0.000000
     47       0.000000   0.000000   0.000000   0.000000   0.000000   0.000000
     48       0.000000   0.000000   0.000000   0.000000   0.000000   0.000000
     49       0.000000   0.000000   0.000000   0.000000   0.000000   0.000000
     50       0.000000   0.000000   0.000000   0.000000   0.000000   0.000000
     51       0.000000   0.000000   0.000000   0.000000   0.000000   0.000000
     52       0.000000   0.000000   0.000000   0.000000   0.000000   0.000000
     53       0.000000   0.000000   0.000000   0.000000   0.000000   0.000000
     54       0.000000   0.000000   0.000000   0.000000   0.000000   0.000000
     55       0.000000   0.000000   0.000000   0.000000   0.000000   0.000000
     56       0.000000   0.000000   0.000000   0.000000   0.000000   0.000000
     57       0.000000   0.000000   0.000000   0.000000   0.000000   0.000000
     58       0.000000   0.000000   0.000000   0.000000   0.000000   0.000000
     59       0.000000   0.000000   0.000000   0.000000   0.000000   0.000000
     60       0.000000   0.000000   0.000000   0.000000   0.000000   0.000000
     61       0.000000   0.000000   0.000000   0.000000   0.000000   0.000000
     62       0.000000   0.000000   0.000000   0.000000   0.000000   0.000000
     63       0.000000   0.000000   0.000000   0.000000   0.000000   0.000000
     64       0.000000   0.000000   0.000000   0.000000   0.000000   0.000000
     65       0.000000   0.000000   0.000000   0.000000   0.000000   0.000000
     66       0.000000   0.000000   0.000000   0.000000   0.000000   0.000000
     67       0.000000   0.000000   0.000000   0.000000   0.000000   0.000000
     68       0.000000   0.000000   0.000000   0.000000   0.000000   0.000000
     69       0.000000   0.000000   0.000000   0.000000   0.000000   0.000000
     70       0.000000   0.000000   0.000000   0.000000   0.000000   0.000000
     71       0.000000   0.000000   0.000000   0.000000   0.000000   0.000000
     72       0.000000   0.000000   0.000000   0.000000   0.000000   0.000000
     73       0.000000   0.000000   0.000000   0.000000   0.000000   0.000000
     74       0.000000   0.000000   0.000000   0.000000   0.000000   0.000000
     75       0.000000   0.000000   0.000000   0.000000   0.000000   0.000000
     76       0.000000   0.000000   0.000000   0.000000   0.000000   0.000000
     77       0.000000   0.000000   0.000000   0.000000   0.000000   0.000000
     78       0.000000   0.000000   0.000000   0.000000   0.000000   0.000000
     79       0.000000   0.000000   0.000000   0.000000   0.000000   0.000000
     80       0.000000   0.000000   0.000000   0.000000   0.000000   0.000000
     81       0.000000   0.000000   0.000000   0.000000   0.000000   0.000000
     82       0.000000   0.000000   0.000000   0.000000   0.000000   0.000000
     83       0.000000   0.000000   0.000000   0.000000   0.000000   0.000000
     84       0.000000   0.000000   0.000000   0.000000   0.000000   0.000000
     85       0.000000   0.000000   0.000000   0.000000   0.000000   0.000000
     86       0.000000   0.000000   0.000000   0.000000   0.000000   0.000000
     87       0.000000   0.000000   0.000000   0.000000   0.000000   0.000000
     88       0.000000   0.000000   0.000000   0.000000   0.000000   0.000000
     89       0.000000   0.000000   0.000000   0.000000   0.000000   0.000000
     90       0.000000   0.000000   0.000000   0.000000   0.000000   0.000000
     91       0.000000   0.000000   0.000000   0.000000   0.000000   0.000000
     92       0.000000   0.000000   0.000000   0.000000   0.000000   0.000000
     93       0.000000   0.000000   0.000000   0.000000   0.000000   0.000000
     94       0.000000   0.000000   0.000000   0.000000   0.000000   0.000000
     95       0.000000   0.000000   0.000000   0.000000   0.000000   0.000000
     96       0.000000   0.000000   0.000000   0.000000   0.000000   0.000000
     97       0.000000   0.000000   0.000000   0.000000   0.000000   0.000000
     98       0.000000   0.000000   0.000000   0.000000   0.000000   0.000000
     99       0.000000   0.000000   0.000000   0.000000   0.000000   0.000000
    100       0.000000   0.000000   0.000000   0.000000   0.000000   0.000000
    101       0.000000   0.000000   0.000000   0.000000   0.000000   0.000000
    102       0.000000   0.000000   0.000000   0.000000   0.000000   0.000000
    103       0.000000   0.000000   0.000000   0.000000   0.000000   0.000000
    104       0.000000   0.000000   0.000000   0.000000   0.000000   0.000000
    105       0.000000   0.000000   0.000000   0.000000   0.000000   0.000000
    106       0.000000   0.000000   0.000000   0.000000   0.000000   0.000000
    107       0.000000   0.000000   0.000000   0.000000   0.000000   0.000000
    108       0.000000   0.000000   0.000000   0.000000   0.000000   0.000000
    109       0.000000   0.000000   0.000000   0.000000   0.000000   0.000000
    110       0.000000   0.000000   0.000000   0.000000   0.000000   0.000000
    111       0.000000   0.000000   0.000000   0.000000   0.000000   0.000000
    112       0.000000   0.000000   0.000000   0.000000   0.000000   0.000000
    113       0.000000   0.000000   0.000000   0.000000   0.000000   0.000000
    114       0.000000   0.000000   0.000000   0.000000   0.000000   0.000000
    115       0.000000   0.000000   0.000000   0.000000   0.000000   0.000000
    116       0.000000   0.000000   0.000000   0.000000   0.000000   0.000000
    117       0.000000   0.000000   0.000000   0.000000   0.000000   0.000000
    118       0.000000   0.000000   0.000000   0.000000   0.000000   0.000000
    119       0.000000   0.000000   0.000000   0.000000   0.000000   0.000000
    120       0.000000   0.000000   0.000000   0.000000   0.000000   0.000000
    121       0.000000   0.000000   0.000000   0.000000   0.000000   0.000000
    122       0.000000   0.000000   0.000000   0.000000   0.000000   0.000000
    123       0.000000   0.000000   0.000000   0.000000   0.000000   0.000000
    124       0.000000   0.000000   0.000000   0.000000   0.000000   0.000000
    125       0.000000   0.000000   0.000000   0.000000   0.000000   0.000000
    126       0.000000   0.000000   0.000000   0.000000   0.000000   0.000000
    127       0.000000   0.000000   0.000000   0.000000   0.000000   0.000000
    128       0.000000   0.000000   0.000000   0.000000   0.000000   0.000000
    129       0.000000   0.000000   0.000000   0.000000   0.000000   0.000000
    130       0.000000   0.000000   0.000000   0.000000   0.000000   0.000000
    131       0.000000   0.000000   0.000000   0.000000   0.000000   0.000000
    132       0.000000   0.000000   0.000000   0.000000   0.000000   0.000000
    133       0.000000   0.000000   0.000000   0.000000   0.000000   0.000000
    134       0.000000   0.000000   0.000000   0.000000   0.000000   0.000000
    135       0.000000   0.000000   0.000000   0.000000   0.000000   0.000000
    136       0.000000   0.000000   0.000000   0.000000   0.000000   0.000000
    137       0.000000   0.000000   0.000000   0.000000   0.000000   0.000000
                  6          7          8          9         10         11    
      0      -0.046708   0.146559  -0.005335   0.013969   0.019481   0.021313
      1       0.019001   0.044890   0.012990   0.040846  -0.016226  -0.099210
      2       0.001059  -0.006785  -0.028173  -0.039713   0.019011  -0.078390
      3      -0.051556   0.119474  -0.000273   0.003625   0.019046  -0.005706
      4       0.009864   0.034392   0.008244   0.033970  -0.006291  -0.019726
      5       0.001911  -0.003283  -0.028587  -0.038243   0.018791  -0.077081
      6      -0.054211   0.105144   0.000812  -0.001006   0.017724  -0.015641
      7       0.002972   0.019967   0.000936   0.029705  -0.006014   0.024047
      8       0.004754   0.021878  -0.033793  -0.029875   0.021735  -0.036005
      9      -0.050605   0.120151  -0.002998   0.006473   0.015544   0.000787
     10       0.009435   0.019705   0.000270   0.036325  -0.018631  -0.024874
     11       0.007384   0.040452  -0.038630  -0.022779   0.023113   0.000331
     12      -0.045899   0.148100  -0.008145   0.016800   0.016479   0.027626
     13       0.018315   0.032488   0.005569   0.044014  -0.028164  -0.106647
     14       0.006434   0.036193  -0.038143  -0.024520   0.023402  -0.001444
     15      -0.044007   0.160910  -0.009371   0.020513   0.018215   0.038537
     16       0.021991   0.043573   0.011322   0.045250  -0.026322  -0.140752
     17       0.003532   0.012450  -0.032891  -0.032755   0.020916  -0.041563
     18      -0.053525   0.107985   0.002828  -0.001215   0.019380  -0.020535
     19       0.006732   0.035679   0.009300   0.030717   0.001628   0.010065
     20       0.000520  -0.018634  -0.024979  -0.043343   0.016450  -0.106377
     21      -0.052768   0.110596  -0.002031   0.003286   0.015098  -0.005853
     22       0.006026   0.007317  -0.004493   0.037458  -0.020989   0.001820
     23       0.011729   0.054505  -0.042503  -0.014812   0.021055   0.027717
     24      -0.040534   0.181091  -0.013203   0.028353   0.018377   0.059828
     25       0.027087   0.050503   0.014478   0.049963  -0.032594  -0.196677
     26       0.002909   0.009743  -0.032491  -0.033895   0.021117  -0.042539
     27      -0.064976   0.043608   0.010465  -0.021331   0.013777  -0.068284
     28      -0.026517  -0.006299  -0.020442  -0.000580   0.012845   0.136600
     29       0.010766   0.060144  -0.041777  -0.019252   0.025504   0.003234
     30       0.152453  -0.073659  -0.115620   0.316459  -0.013100   0.075015
     31       0.193994   0.043004   0.245300  -0.014966   0.116917  -0.031688
     32       0.007544  -0.022371   0.153040   0.048332  -0.273139  -0.037599
     33      -0.085301   0.000246   0.030167  -0.028915   0.014298  -0.104705
     34      -0.052168  -0.018848  -0.032828   0.010705   0.017858   0.132415
     35       0.013034   0.061776  -0.041481  -0.019779   0.025094   0.004950
     36      -0.088379   0.004538   0.015172  -0.053923   0.002086  -0.205646
     37      -0.057797  -0.014325  -0.046869   0.003103   0.012022   0.078652
     38       0.003862   0.066536  -0.055998  -0.007010   0.025900   0.003532
     39      -0.091522  -0.012388   0.037154  -0.029541   0.014424  -0.111293
     40      -0.064102  -0.038576  -0.014509   0.039180   0.031227   0.218963
     41       0.000154   0.032446  -0.027456  -0.025993   0.023386  -0.025021
     42       0.093429  -0.067446  -0.064926   0.003592  -0.111078  -0.079470
     43       0.055015  -0.014159   0.024447  -0.174072  -0.021794   0.168391
     44      -0.008144   0.026078   0.074226   0.147996  -0.140613   0.053358
     45       0.092800  -0.069692  -0.059968   0.001392  -0.114454  -0.081767
     46       0.048687  -0.018742   0.031224  -0.143620  -0.048002   0.137553
     47       0.004796  -0.012505   0.110277   0.126343  -0.172897   0.031903
     48       0.168937  -0.074916  -0.125493   0.397000   0.025867   0.108543
     49       0.249252   0.066084   0.336175   0.026840   0.179247  -0.095696
     50       0.001831  -0.012286   0.193353  -0.042126  -0.297325  -0.098013
     51       0.117542  -0.093200  -0.056441  -0.074348  -0.071725  -0.046568
     52       0.022606  -0.031261   0.002957  -0.132212  -0.042804   0.131649
     53      -0.028180  -0.051343   0.060772   0.093787  -0.126386   0.046944
     54       0.107450  -0.134720  -0.065375  -0.102900   0.017162  -0.063451
     55       0.012479  -0.044085  -0.028712  -0.166953  -0.035308   0.167438
     56      -0.025127  -0.036593   0.060805   0.101408  -0.160146   0.057209
     57       0.149549  -0.066912  -0.043522  -0.100983  -0.122370   0.002510
     58       0.044780  -0.021823   0.027479  -0.140482  -0.048856   0.137397
     59      -0.038921  -0.047642   0.034466   0.088116  -0.151423   0.070464
     60      -0.061023   0.064116   0.007792  -0.012687   0.015122  -0.053097
     61      -0.016725   0.005136  -0.007679   0.023044   0.007298   0.100130
     62       0.006037   0.026882  -0.033996  -0.028659   0.021966  -0.033045
     63      -0.065030   0.048897   0.013053  -0.012815   0.013931  -0.071469
     64      -0.025863   0.005028  -0.003348   0.044189   0.011602   0.105675
     65       0.003174   0.000544  -0.027215  -0.036228   0.018138  -0.066219
     66       0.170504  -0.076015  -0.129274   0.404749   0.032276   0.114241
     67       0.254643   0.064141   0.331968   0.038053   0.196055  -0.088178
     68       0.000531  -0.019840   0.158880   0.016484  -0.283098  -0.051972
     69       0.091510  -0.088716  -0.034032   0.010056  -0.138095  -0.121458
     70       0.028642  -0.029656   0.006895  -0.140258  -0.042745   0.141514
     71       0.032492  -0.004861   0.155658   0.124544  -0.188298   0.009088
     72      -0.100128  -0.033413   0.066502  -0.003550   0.030454   0.003789
     73      -0.055638  -0.009687  -0.057648  -0.000537   0.006379   0.036138
     74       0.046531   0.096766  -0.040911  -0.034124   0.026895   0.063619
     75      -0.088128  -0.019092   0.045368  -0.002961   0.034157  -0.010125
     76      -0.047640   0.006877  -0.052115  -0.027964  -0.013716  -0.015100
     77       0.071495   0.126417  -0.085821  -0.030225   0.037894   0.038608
     78      -0.092902  -0.034818   0.058434   0.016966   0.049332   0.068060
     79      -0.053798  -0.013965  -0.039713   0.002745   0.012583   0.097526
     80       0.041973   0.088332   0.012533  -0.052045   0.018274   0.131586
     81       0.119634  -0.095610  -0.056978  -0.080300  -0.066554  -0.044377
     82      -0.026117  -0.038081  -0.014245  -0.055946  -0.046466   0.056641
     83      -0.048727  -0.117210   0.042997   0.057686   0.016688   0.018045
     84       0.086920  -0.120933  -0.071683  -0.049242  -0.021633  -0.096876
     85      -0.046970  -0.048866  -0.029761  -0.040325  -0.025513   0.024870
     86      -0.037716  -0.117373   0.057597   0.053869   0.014181   0.032539
     87       0.130299  -0.054849  -0.045953  -0.054057  -0.159885  -0.030847
     88      -0.018713  -0.023126   0.003440  -0.029712  -0.089297   0.061494
     89      -0.052357  -0.131483   0.040096   0.049494   0.048737   0.013321
     90       0.153018  -0.117236  -0.050709  -0.159802   0.005324   0.012446
     91      -0.054323  -0.051678  -0.034466  -0.032601  -0.020794   0.011172
     92      -0.076544  -0.159771   0.010667   0.041215   0.126780  -0.022555
     93       0.152812  -0.141477  -0.059974  -0.183943   0.083715   0.007638
     94      -0.064307  -0.074470  -0.050909  -0.052190   0.037750   0.000971
     95      -0.077063  -0.151843   0.013208   0.049294   0.100335  -0.021366
     96       0.175920  -0.106718  -0.036590  -0.186785  -0.021937   0.057456
     97      -0.034113  -0.041186  -0.019759  -0.048660  -0.042823   0.044319
     98      -0.092846  -0.169164  -0.002983   0.047862   0.142831  -0.044049
     99      -0.142550  -0.081980   0.148853  -0.009220   0.015661   0.044433
    100      -0.066765  -0.017553  -0.114065   0.027949   0.012536  -0.072656
    101       0.050806   0.101576  -0.045920  -0.035229   0.028363   0.067088
    102      -0.154502  -0.087349   0.158398  -0.019673  -0.000309   0.004460
    103      -0.069272  -0.016598  -0.132295   0.031712   0.008471  -0.118895
    104       0.059760   0.110826  -0.105918  -0.011870   0.038286  -0.000945
    105      -0.154237  -0.095453   0.173882  -0.010817   0.012118   0.057957
    106      -0.066886  -0.025420  -0.115138   0.045205   0.027200  -0.049546
    107       0.024949   0.072620   0.009995  -0.041242   0.018631   0.093955
    108      -0.044066   0.159714  -0.011081   0.021741   0.016153   0.041103
    109       0.021572   0.032130   0.004915   0.048755  -0.036464  -0.140189
    110       0.007644   0.051398  -0.041700  -0.019788   0.025917   0.027819
    111      -0.044975   0.155667  -0.006126   0.017057   0.020220   0.028219
    112       0.022748   0.053322   0.017602   0.042751  -0.015697  -0.126685
    113      -0.001314  -0.023877  -0.024230  -0.045967   0.017582  -0.106689
    114       0.154708  -0.118478  -0.050647  -0.163815   0.009449   0.015168
    115      -0.092484  -0.049396  -0.052118   0.032013  -0.045103  -0.063304
    116      -0.080000  -0.195534  -0.004211   0.010984   0.246761  -0.035200
    117       0.174289  -0.129418  -0.044892  -0.206720   0.057580   0.052977
    118      -0.103818  -0.052829  -0.059388   0.044617  -0.041810  -0.083880
    119      -0.087780  -0.210080  -0.014090   0.004446   0.287928  -0.047741
    120       0.135306  -0.128943  -0.064188  -0.142060   0.036442  -0.026028
    121      -0.105903  -0.053854  -0.060893   0.046670  -0.040132  -0.087805
    122      -0.074008  -0.196428  -0.000919   0.004817   0.258808  -0.028433
    123       0.155683  -0.097957  -0.042651  -0.145256  -0.062210   0.020561
    124      -0.093099  -0.040345  -0.048413   0.047837  -0.070604  -0.069694
    125      -0.080408  -0.203726  -0.007377   0.003838   0.275608  -0.037639
    126      -0.151369  -0.101932   0.193970  -0.002394   0.026586   0.116945
    127      -0.071287  -0.014991  -0.144262   0.031456   0.003882  -0.146543
    128       0.077756   0.131432  -0.051869  -0.056296   0.031161   0.126103
    129      -0.145357  -0.094335   0.182454  -0.003886   0.026504   0.111053
    130      -0.068617  -0.002918  -0.171115   0.022917  -0.005982  -0.180327
    131       0.092351   0.148248  -0.074995  -0.058854   0.032296   0.116833
    132      -0.168341  -0.121445   0.218410   0.001742   0.024490   0.123169
    133      -0.080787  -0.025016  -0.157687   0.045864   0.003109  -0.203365
    134       0.079139   0.132989  -0.053138  -0.056994   0.031369   0.127137
    135      -0.146068  -0.103387   0.213004  -0.000702   0.036230   0.165873
    136      -0.068496  -0.015341  -0.128482   0.028378   0.008043  -0.106654
    137       0.078820   0.132466  -0.032377  -0.067137   0.030420   0.174695
                 12         13         14         15         16         17    
      0       0.049751  -0.084327   0.035165  -0.004312   0.002058  -0.014887
      1       0.081178  -0.049267   0.205157   0.006995  -0.090063  -0.034998
      2       0.012777   0.056930  -0.002327   0.006085  -0.004847   0.047382
      3       0.024466   0.015668   0.056186   0.001545  -0.009175   0.055824
      4       0.009102  -0.026264   0.231239  -0.021141   0.102999   0.051292
      5       0.017833   0.043255  -0.005849   0.006030  -0.008427   0.034222
      6       0.004941   0.064798   0.014366   0.004326  -0.008057   0.081891
      7      -0.062977   0.016057   0.011013  -0.029696   0.196105   0.080155
      8       0.028624  -0.042614  -0.006944  -0.003033   0.024285  -0.010486
      9       0.013382   0.010293  -0.049264  -0.000528   0.015071   0.050239
     10      -0.053867   0.030851  -0.233051  -0.019452   0.156799   0.063699
     11       0.035956  -0.116489  -0.004103  -0.012870   0.067866  -0.045210
     12       0.039025  -0.091117  -0.071774  -0.006452   0.028101  -0.020814
     13       0.021850   0.004955  -0.263163   0.008881  -0.028213  -0.021071
     14       0.030784  -0.103213  -0.000629  -0.013286   0.073961  -0.034604
     15       0.056670  -0.136889  -0.029557  -0.007398   0.015112  -0.054539
     16       0.086813  -0.034267  -0.047140   0.024709  -0.170299  -0.084440
     17       0.019851  -0.016833   0.000472  -0.004028   0.039466   0.013106
     18       0.020519   0.055397   0.103048   0.004444  -0.021154   0.084249
     19       0.006733  -0.039411   0.409967  -0.031361   0.146518   0.075619
     20       0.013355   0.099014  -0.006633   0.013266  -0.038963   0.062543
     21      -0.001043   0.046515  -0.080308   0.000659   0.016810   0.074087
     22      -0.107357   0.059760  -0.390897  -0.031513   0.246861   0.098733
     23       0.043605  -0.183540  -0.005139  -0.020968   0.103021  -0.082498
     24       0.074531  -0.209747  -0.046258  -0.010737   0.017342  -0.107058
     25       0.137942  -0.051611  -0.072144   0.047478  -0.323198  -0.160026
     26       0.016082  -0.007069   0.003293  -0.004268   0.043688   0.022003
     27      -0.018795   0.171187   0.025216   0.014325  -0.033412   0.048346
     28      -0.141257   0.042636  -0.023492   0.007033  -0.047380  -0.050707
     29       0.030599  -0.083283  -0.011209  -0.002963  -0.004280   0.021643
     30       0.030875   0.001186   0.013668   0.067204   0.011253  -0.012861
     31       0.013508   0.010028   0.007117   0.006459  -0.008768   0.004725
     32      -0.048662  -0.007882   0.009582   0.171104   0.027046  -0.023228
     33      -0.001302   0.184907   0.024768   0.014939   0.019000  -0.022387
     34      -0.117332  -0.006073  -0.022439   0.012453  -0.121415  -0.073536
     35       0.026635  -0.076612  -0.010368  -0.002863  -0.005765   0.025393
     36       0.039232   0.243341   0.023131   0.027784  -0.020641   0.122108
     37      -0.087799   0.006648  -0.023437   0.019073  -0.160280   0.004881
     38       0.044694  -0.117251  -0.011304  -0.002227  -0.052518   0.031041
     39       0.004921   0.181391   0.023484   0.014097   0.038043  -0.044212
     40      -0.136404  -0.090398  -0.022630  -0.003185  -0.067268  -0.240662
     41       0.043566  -0.072896  -0.013659  -0.002879   0.033686  -0.007028
     42      -0.129690  -0.076910   0.019532  -0.047011  -0.010195   0.004972
     43       0.213139   0.082877  -0.007777   0.133770   0.016677  -0.002240
     44       0.065102   0.062372  -0.005588   0.063075  -0.002747   0.024245
     45      -0.129757  -0.074476   0.020285  -0.048463  -0.010261   0.004518
     46       0.187201   0.058461   0.002577   0.103967   0.026898  -0.004886
     47       0.047857   0.060381  -0.000715   0.038492  -0.002431   0.008909
     48       0.070130   0.025169   0.010502   0.071412   0.002318  -0.002755
     49      -0.049140  -0.006766   0.008906  -0.034438  -0.010675  -0.005413
     50      -0.113104  -0.038285   0.013946   0.146533   0.037402  -0.038802
     51      -0.075052  -0.048252   0.002791  -0.049501  -0.016316   0.007287
     52       0.177126   0.055447   0.007057   0.010900   0.013531   0.013021
     53       0.071824   0.078790  -0.004995  -0.140349  -0.033656   0.046829
     54      -0.086676  -0.057466  -0.001242  -0.125335  -0.015201  -0.050491
     55       0.226499   0.086461  -0.002786  -0.071097  -0.010073   0.081489
     56       0.081320   0.085214  -0.004308  -0.119381  -0.036615   0.076418
     57      -0.009365  -0.015111  -0.009093   0.040583  -0.015807   0.068892
     58       0.188318   0.057400   0.003083   0.089349   0.027033  -0.005437
     59       0.098530   0.097359  -0.007010  -0.192886  -0.052498   0.114423
     60      -0.015426   0.148309   0.030837   0.008788  -0.011501   0.083783
     61      -0.119438   0.021026   0.026035  -0.031868   0.198342   0.059622
     62       0.031336  -0.051227  -0.009132  -0.002982   0.020338  -0.012328
     63      -0.015029   0.165704   0.044676   0.004356   0.026453   0.085501
     64      -0.118825  -0.012849   0.085944  -0.059698   0.348464   0.112062
     65       0.030321  -0.010131  -0.006513  -0.000789   0.030524  -0.027764
     66       0.076631   0.027988   0.010206   0.070259   0.001665  -0.000611
     67      -0.040274  -0.003959   0.008830  -0.040052  -0.010289  -0.002036
     68      -0.062942  -0.013341   0.010550   0.159810   0.028193  -0.025655
     69      -0.164359  -0.094475   0.031505  -0.094453  -0.006272  -0.007716
     70       0.191210   0.063208   0.004811   0.035943   0.015885   0.011363
     71       0.027516   0.045234   0.000717   0.113219   0.014465  -0.018948
     72      -0.030736   0.095094   0.018981  -0.002827   0.101427  -0.236607
     73      -0.066260   0.023881  -0.023129   0.023834  -0.172810   0.068571
     74      -0.052945   0.003191   0.001249   0.001349  -0.031023   0.024751
     75      -0.037601   0.136264   0.028889  -0.007572   0.118964  -0.265123
     76      -0.062567   0.073884  -0.026316   0.050902  -0.272634   0.269377
     77      -0.068387   0.091153   0.024353  -0.013516   0.024460  -0.072609
     78      -0.064537   0.086977   0.029040  -0.025533   0.187997  -0.435495
     79      -0.102198   0.009153  -0.023258   0.019690  -0.160033  -0.003425
     80      -0.097888  -0.021777  -0.011959   0.020326  -0.112426   0.102072
     81      -0.070695  -0.047376   0.001926  -0.050266  -0.016233   0.006025
     82       0.060955  -0.000535   0.031170  -0.081624   0.007014  -0.031122
     83       0.050846   0.061163  -0.005065  -0.249395  -0.031518  -0.043277
     84      -0.146139  -0.086451   0.015352  -0.134038  -0.019941  -0.049245
     85       0.009669  -0.030384   0.041068  -0.029156   0.007151  -0.002458
     86       0.080482   0.081534  -0.011668  -0.390201  -0.034274  -0.126917
     87      -0.065754  -0.038946   0.002597  -0.004036  -0.022079   0.062997
     88       0.067973   0.012529   0.029065  -0.252379  -0.002322  -0.114070
     89       0.049593   0.058940  -0.005397  -0.277130  -0.029716  -0.070338
     90       0.034984  -0.002757  -0.017279   0.014105   0.002361   0.000450
     91      -0.013632  -0.043270   0.044799  -0.012677   0.006190   0.005862
     92      -0.004770   0.018003   0.005554  -0.063632  -0.017534   0.022796
     93       0.035683  -0.014414  -0.018141   0.164742   0.033268  -0.009783
     94      -0.023267  -0.055391   0.047521   0.070676   0.006500   0.062043
     95      -0.005662   0.021680   0.006071  -0.115672  -0.029314   0.030430
     96       0.110239   0.041429  -0.029636  -0.084942  -0.012437   0.005477
     97       0.040706  -0.012109   0.034961  -0.069848   0.006780  -0.024092
     98      -0.039005  -0.000907   0.012627  -0.040839  -0.028848   0.074684
     99       0.002377  -0.054681  -0.019146   0.011484   0.019024  -0.079147
    100       0.035341  -0.001405  -0.019705   0.000591  -0.069395   0.030159
    101      -0.062865   0.019003   0.004567   0.002153  -0.034601   0.010797
    102       0.018703  -0.046119  -0.023835   0.026858   0.070240  -0.127069
    103       0.062879   0.011959  -0.017146   0.000582  -0.010509  -0.016929
    104      -0.012813   0.042563   0.017052  -0.017340   0.050000  -0.048427
    105       0.012423  -0.099820  -0.030298   0.013953  -0.007002  -0.023844
    106       0.055992  -0.057607  -0.023706  -0.020892  -0.110436   0.121187
    107      -0.043707  -0.073474  -0.019625   0.010708  -0.086124   0.118709
    108       0.044036  -0.131259  -0.119457  -0.009422   0.041797  -0.048742
    109       0.027854   0.014800  -0.443041   0.018577  -0.067986  -0.043315
    110       0.035266  -0.158731   0.000605  -0.020597   0.105777  -0.063075
    111       0.063334  -0.118470   0.066109  -0.005913  -0.001623  -0.037009
    112       0.129643  -0.077880   0.366066   0.015772  -0.178976  -0.068592
    113       0.003471   0.122903  -0.001022   0.013805  -0.036631   0.083387
    114       0.040294  -0.000949  -0.018093   0.019974   0.004047  -0.000118
    115      -0.147194  -0.112688   0.066788   0.026689   0.002716   0.010594
    116      -0.012895  -0.004365   0.006386   0.188931   0.032041   0.012073
    117       0.112558   0.031951  -0.029908   0.072280   0.020909  -0.006189
[...]
  14:       113.46    0.000000  (  0.000000   0.000000   0.000000)
  15:       145.96    0.000000  (  0.000000   0.000000   0.000000)
  16:       151.66    0.000000  (  0.000000   0.000000   0.000000)
  17:       165.05    0.000000  (  0.000000   0.000000   0.000000)
  18:       168.56    0.000000  (  0.000000   0.000000   0.000000)
  19:       180.46    0.000000  (  0.000000   0.000000   0.000000)
  20:       185.63    0.000000  (  0.000000   0.000000   0.000000)
  21:       192.45    0.000000  (  0.000000   0.000000   0.000000)
  22:       217.03    0.000000  (  0.000000   0.000000   0.000000)
  23:       250.08    0.000000  (  0.000000   0.000000   0.000000)
  24:       253.87    0.000000  (  0.000000   0.000000   0.000000)
  25:       290.76    0.000000  (  0.000000   0.000000   0.000000)
  26:       296.58    0.000000  (  0.000000   0.000000   0.000000)
  27:       350.83    0.000000  (  0.000000   0.000000   0.000000)
  28:       353.60    0.000000  (  0.000000   0.000000   0.000000)
  29:       390.14    0.000000  (  0.000000   0.000000   0.000000)
  30:       398.54    0.000000  (  0.000000   0.000000   0.000000)
  31:       401.67    0.000000  (  0.000000   0.000000   0.000000)
  32:       425.29    0.000000  (  0.000000   0.000000   0.000000)
  33:       427.26    0.000000  (  0.000000   0.000000   0.000000)
  34:       428.86    0.000000  (  0.000000   0.000000   0.000000)
  35:       467.74    0.000000  (  0.000000   0.000000   0.000000)
  36:       519.77    0.000000  (  0.000000   0.000000   0.000000)
  37:       521.07    0.000000  (  0.000000   0.000000   0.000000)
  38:       589.63    0.000000  (  0.000000   0.000000   0.000000)
  39:       618.20    0.000000  (  0.000000   0.000000   0.000000)
  40:       625.47    0.000000  (  0.000000   0.000000   0.000000)
  41:       677.05    0.000000  (  0.000000   0.000000   0.000000)
  42:       783.75    0.000000  (  0.000000   0.000000   0.000000)
  43:       791.45    0.000000  (  0.000000   0.000000   0.000000)
  44:       796.07    0.000000  (  0.000000   0.000000   0.000000)
  45:       798.04    0.000000  (  0.000000   0.000000   0.000000)
  46:       835.83    0.000000  (  0.000000   0.000000   0.000000)
  47:       848.44    0.000000  (  0.000000   0.000000   0.000000)
  48:       864.86    0.000000  (  0.000000   0.000000   0.000000)
  49:       896.02    0.000000  (  0.000000   0.000000   0.000000)
  50:       922.35    0.000000  (  0.000000   0.000000   0.000000)
  51:       933.13    0.000000  (  0.000000   0.000000   0.000000)
  52:       935.78    0.000000  (  0.000000   0.000000   0.000000)
  53:       944.98    0.000000  (  0.000000   0.000000   0.000000)
  54:       948.71    0.000000  (  0.000000   0.000000   0.000000)
  55:       949.94    0.000000  (  0.000000   0.000000   0.000000)
  56:       955.18    0.000000  (  0.000000   0.000000   0.000000)
  57:       965.65    0.000000  (  0.000000   0.000000   0.000000)
  58:       974.26    0.000000  (  0.000000   0.000000   0.000000)
  59:       992.36    0.000000  (  0.000000   0.000000   0.000000)
  60:      1003.97    0.000000  (  0.000000   0.000000   0.000000)
  61:      1026.02    0.000000  (  0.000000   0.000000   0.000000)
  62:      1040.96    0.000000  (  0.000000   0.000000   0.000000)
  63:      1053.79    0.000000  (  0.000000   0.000000   0.000000)
  64:      1058.89    0.000000  (  0.000000   0.000000   0.000000)
  65:      1071.12    0.000000  (  0.000000   0.000000   0.000000)
  66:      1076.50    0.000000  (  0.000000   0.000000   0.000000)
  67:      1106.03    0.000000  (  0.000000   0.000000   0.000000)
  68:      1109.73    0.000000  (  0.000000   0.000000   0.000000)
  69:      1119.81    0.000000  (  0.000000   0.000000   0.000000)
  70:      1146.35    0.000000  (  0.000000   0.000000   0.000000)
  71:      1159.29    0.000000  (  0.000000   0.000000   0.000000)
  72:      1179.56    0.000000  (  0.000000   0.000000   0.000000)
  73:      1185.16    0.000000  (  0.000000   0.000000   0.000000)
  74:      1206.12    0.000000  (  0.000000   0.000000   0.000000)
  75:      1208.16    0.000000  (  0.000000   0.000000   0.000000)
  76:      1217.00    0.000000  (  0.000000   0.000000   0.000000)
  77:      1242.76    0.000000  (  0.000000   0.000000   0.000000)
  78:      1246.43    0.000000  (  0.000000   0.000000   0.000000)
  79:      1260.43    0.000000  (  0.000000   0.000000   0.000000)
  80:      1271.69    0.000000  (  0.000000   0.000000   0.000000)
  81:      1280.34    0.000000  (  0.000000   0.000000   0.000000)
  82:      1282.63    0.000000  (  0.000000   0.000000   0.000000)
  83:      1284.59    0.000000  (  0.000000   0.000000   0.000000)
  84:      1287.05    0.000000  (  0.000000   0.000000   0.000000)
  85:      1299.49    0.000000  (  0.000000   0.000000   0.000000)
  86:      1330.31    0.000000  (  0.000000   0.000000   0.000000)
  87:      1353.31    0.000000  (  0.000000   0.000000   0.000000)
  88:      1356.62    0.000000  (  0.000000   0.000000   0.000000)
  89:      1369.95    0.000000  (  0.000000   0.000000   0.000000)
  90:      1379.68    0.000000  (  0.000000   0.000000   0.000000)
  91:      1408.05    0.000000  (  0.000000   0.000000   0.000000)
  92:      1431.34    0.000000  (  0.000000   0.000000   0.000000)
  93:      1431.62    0.000000  (  0.000000   0.000000   0.000000)
  94:      1437.65    0.000000  (  0.000000   0.000000   0.000000)
  95:      1472.79    0.000000  (  0.000000   0.000000   0.000000)
  96:      1496.23    0.000000  (  0.000000   0.000000   0.000000)
  97:      1499.01    0.000000  (  0.000000   0.000000   0.000000)
  98:      1505.34    0.000000  (  0.000000   0.000000   0.000000)
  99:      1505.70    0.000000  (  0.000000   0.000000   0.000000)
 100:      1508.76    0.000000  (  0.000000   0.000000   0.000000)
 101:      1511.86    0.000000  (  0.000000   0.000000   0.000000)
 102:      1512.33    0.000000  (  0.000000   0.000000   0.000000)
 103:      1515.94    0.000000  (  0.000000   0.000000   0.000000)
 104:      1516.26    0.000000  (  0.000000   0.000000   0.000000)
 105:      1524.09    0.000000  (  0.000000   0.000000   0.000000)
 106:      1531.94    0.000000  (  0.000000   0.000000   0.000000)
 107:      1554.94    0.000000  (  0.000000   0.000000   0.000000)
 108:      1587.65    0.000000  (  0.000000   0.000000   0.000000)
 109:      1603.61    0.000000  (  0.000000   0.000000   0.000000)
 110:      2744.89    0.000000  (  0.000000   0.000000   0.000000)
 111:      2783.17    0.000000  (  0.000000   0.000000   0.000000)
 112:      2806.28    0.000000  (  0.000000   0.000000   0.000000)
 113:      2812.14    0.000000  (  0.000000   0.000000   0.000000)
 114:      2864.75    0.000000  (  0.000000   0.000000   0.000000)
 115:      2874.19    0.000000  (  0.000000   0.000000   0.000000)
 116:      2875.73    0.000000  (  0.000000   0.000000   0.000000)
 117:      2880.13    0.000000  (  0.000000   0.000000   0.000000)
 118:      2887.98    0.000000  (  0.000000   0.000000   0.000000)
 119:      2895.09    0.000000  (  0.000000   0.000000   0.000000)
 120:      2900.79    0.000000  (  0.000000   0.000000   0.000000)
 121:      2903.39    0.000000  (  0.000000   0.000000   0.000000)
 122:      2909.79    0.000000  (  0.000000   0.000000   0.000000)
 123:      2911.16    0.000000  (  0.000000   0.000000   0.000000)
 124:      2913.52    0.000000  (  0.000000   0.000000   0.000000)
 125:      2916.94    0.000000  (  0.000000   0.000000   0.000000)
 126:      2919.19    0.000000  (  0.000000   0.000000   0.000000)
 127:      2929.39    0.000000  (  0.000000   0.000000   0.000000)
 128:      2930.38    0.000000  (  0.000000   0.000000   0.000000)
 129:      2938.68    0.000000  (  0.000000   0.000000   0.000000)
 130:      2980.90    0.000000  (  0.000000   0.000000   0.000000)
 131:      2986.90    0.000000  (  0.000000   0.000000   0.000000)
 132:      2992.54    0.000000  (  0.000000   0.000000   0.000000)
 133:      3002.46    0.000000  (  0.000000   0.000000   0.000000)
 134:      3022.52    0.000000  (  0.000000   0.000000   0.000000)
 135:      3164.09    0.000000  (  0.000000   0.000000   0.000000)
 136:      3297.93    0.000000  (  0.000000   0.000000   0.000000)
 137:      3435.52    0.000000  (  0.000000   0.000000   0.000000)

The first frequency considered to be a vibration is 6
The total number of vibrations considered is 132


--------------------------
THERMOCHEMISTRY AT 298.15K
--------------------------

Temperature         ... 298.15 K
Pressure            ... 1.00 atm
Total Mass          ... 252.40 AMU

Throughout the following assumptions are being made:
  (1) The electronic state is orbitally nondegenerate
  (2) There are no thermally accessible electronically excited states
  (3) Hindered rotations indicated by low frequency modes are not
      treated as such but are treated as vibrations and this may
      cause some error
  (4) All equations used are the standard statistical mechanics
      equations for an ideal gas
  (5) All vibrations are strictly harmonic

freq.      38.41  E(vib)   ...       0.54 
freq.      41.75  E(vib)   ...       0.53 
freq.      54.97  E(vib)   ...       0.52 
freq.      60.66  E(vib)   ...       0.51 
freq.      71.96  E(vib)   ...       0.50 
freq.      80.52  E(vib)   ...       0.48 
freq.      90.19  E(vib)   ...       0.47 
freq.     101.01  E(vib)   ...       0.46 
freq.     113.46  E(vib)   ...       0.45 
freq.     145.96  E(vib)   ...       0.41 
freq.     151.66  E(vib)   ...       0.40 
freq.     165.05  E(vib)   ...       0.39 
freq.     168.56  E(vib)   ...       0.38 
freq.     180.46  E(vib)   ...       0.37 
freq.     185.63  E(vib)   ...       0.37 
freq.     192.45  E(vib)   ...       0.36 
freq.     217.03  E(vib)   ...       0.34 
freq.     250.08  E(vib)   ...       0.31 
freq.     253.87  E(vib)   ...       0.30 
freq.     290.76  E(vib)   ...       0.27 
freq.     296.58  E(vib)   ...       0.27 
freq.     350.83  E(vib)   ...       0.23 
freq.     353.60  E(vib)   ...       0.22 
freq.     390.14  E(vib)   ...       0.20 
freq.     398.54  E(vib)   ...       0.20 
freq.     401.67  E(vib)   ...       0.19 
freq.     425.29  E(vib)   ...       0.18 
freq.     427.26  E(vib)   ...       0.18 
freq.     428.86  E(vib)   ...       0.18 
freq.     467.74  E(vib)   ...       0.16 
freq.     519.77  E(vib)   ...       0.13 
freq.     521.07  E(vib)   ...       0.13 
freq.     589.63  E(vib)   ...       0.10 
freq.     618.20  E(vib)   ...       0.09 
freq.     625.47  E(vib)   ...       0.09 
freq.     677.05  E(vib)   ...       0.08 
freq.     783.75  E(vib)   ...       0.05 
freq.     791.45  E(vib)   ...       0.05 
freq.     796.07  E(vib)   ...       0.05 
freq.     798.04  E(vib)   ...       0.05 
freq.     835.83  E(vib)   ...       0.04 
freq.     848.44  E(vib)   ...       0.04 
freq.     864.86  E(vib)   ...       0.04 
freq.     896.02  E(vib)   ...       0.03 
freq.     922.35  E(vib)   ...       0.03 
freq.     933.13  E(vib)   ...       0.03 
freq.     935.78  E(vib)   ...       0.03 
freq.     944.98  E(vib)   ...       0.03 
freq.     948.71  E(vib)   ...       0.03 
freq.     949.94  E(vib)   ...       0.03 
freq.     955.18  E(vib)   ...       0.03 
freq.     965.65  E(vib)   ...       0.03 
freq.     974.26  E(vib)   ...       0.03 
freq.     992.36  E(vib)   ...       0.02 
freq.    1003.97  E(vib)   ...       0.02 
freq.    1026.02  E(vib)   ...       0.02 
freq.    1040.96  E(vib)   ...       0.02 
freq.    1053.79  E(vib)   ...       0.02 
freq.    1058.89  E(vib)   ...       0.02 
freq.    1071.12  E(vib)   ...       0.02 
freq.    1076.50  E(vib)   ...       0.02 
freq.    1106.03  E(vib)   ...       0.02 
freq.    1109.73  E(vib)   ...       0.02 
freq.    1119.81  E(vib)   ...       0.01 
freq.    1146.35  E(vib)   ...       0.01 
freq.    1159.29  E(vib)   ...       0.01 
freq.    1179.56  E(vib)   ...       0.01 
freq.    1185.16  E(vib)   ...       0.01 
freq.    1206.12  E(vib)   ...       0.01 
freq.    1208.16  E(vib)   ...       0.01 
freq.    1217.00  E(vib)   ...       0.01 
freq.    1242.76  E(vib)   ...       0.01 
freq.    1246.43  E(vib)   ...       0.01 
freq.    1260.43  E(vib)   ...       0.01 
freq.    1271.69  E(vib)   ...       0.01 
freq.    1280.34  E(vib)   ...       0.01 
freq.    1282.63  E(vib)   ...       0.01 
freq.    1284.59  E(vib)   ...       0.01 
freq.    1287.05  E(vib)   ...       0.01 
freq.    1299.49  E(vib)   ...       0.01 
freq.    1330.31  E(vib)   ...       0.01 
freq.    1353.31  E(vib)   ...       0.01 
freq.    1356.62  E(vib)   ...       0.01 
freq.    1369.95  E(vib)   ...       0.01 
freq.    1379.68  E(vib)   ...       0.01 
freq.    1408.05  E(vib)   ...       0.00 
freq.    1431.34  E(vib)   ...       0.00 
freq.    1431.62  E(vib)   ...       0.00 
freq.    1437.65  E(vib)   ...       0.00 
freq.    1472.79  E(vib)   ...       0.00 
freq.    1496.23  E(vib)   ...       0.00 
freq.    1499.01  E(vib)   ...       0.00 
freq.    1505.34  E(vib)   ...       0.00 
freq.    1505.70  E(vib)   ...       0.00 
freq.    1508.76  E(vib)   ...       0.00 
freq.    1511.86  E(vib)   ...       0.00 
freq.    1512.33  E(vib)   ...       0.00 
freq.    1515.94  E(vib)   ...       0.00 
freq.    1516.26  E(vib)   ...       0.00 
freq.    1524.09  E(vib)   ...       0.00 
freq.    1531.94  E(vib)   ...       0.00 
freq.    1554.94  E(vib)   ...       0.00 
freq.    1587.65  E(vib)   ...       0.00 
freq.    1603.61  E(vib)   ...       0.00 
freq.    2744.89  E(vib)   ...       0.00 
freq.    2783.17  E(vib)   ...       0.00 
freq.    2806.28  E(vib)   ...       0.00 
freq.    2812.14  E(vib)   ...       0.00 
freq.    2864.75  E(vib)   ...       0.00 
freq.    2874.19  E(vib)   ...       0.00 
freq.    2875.73  E(vib)   ...       0.00 
freq.    2880.13  E(vib)   ...       0.00 
freq.    2887.98  E(vib)   ...       0.00 
freq.    2895.09  E(vib)   ...       0.00 
freq.    2900.79  E(vib)   ...       0.00 
freq.    2903.39  E(vib)   ...       0.00 
freq.    2909.79  E(vib)   ...       0.00 
freq.    2911.16  E(vib)   ...       0.00 
freq.    2913.52  E(vib)   ...       0.00 
freq.    2916.94  E(vib)   ...       0.00 
freq.    2919.19  E(vib)   ...       0.00 
freq.    2929.39  E(vib)   ...       0.00 
freq.    2930.38  E(vib)   ...       0.00 
freq.    2938.68  E(vib)   ...       0.00 
freq.    2980.90  E(vib)   ...       0.00 
freq.    2986.90  E(vib)   ...       0.00 
freq.    2992.54  E(vib)   ...       0.00 
freq.    3002.46  E(vib)   ...       0.00 
freq.    3022.52  E(vib)   ...       0.00 
freq.    3164.09  E(vib)   ...       0.00 
freq.    3297.93  E(vib)   ...       0.00 
freq.    3435.52  E(vib)   ...       0.00 

------------
INNER ENERGY
------------

The inner energy is: U= E(el) + E(ZPE) + E(vib) + E(rot) + E(trans)
    E(el)   - is the total energy from the electronic structure calculation
              = E(kin-el) + E(nuc-el) + E(el-el) + E(nuc-nuc)
    E(ZPE)  - the the zero temperature vibrational energy from the frequency calculation
    E(vib)  - the the finite temperature correction to E(ZPE) due to population
              of excited vibrational states
    E(rot)  - is the rotational thermal energy
    E(trans)- is the translational thermal energy

Summary of contributions to the inner energy U:
Electronic energy                ...    -56.29119895 Eh
Zero point energy                ...      0.39806928 Eh     249.79 kcal/mol
Thermal vibrational correction   ...      0.01917385 Eh      12.03 kcal/mol
Thermal rotational correction    ...      0.00141627 Eh       0.89 kcal/mol
Thermal translational correction ...      0.00141627 Eh       0.89 kcal/mol
-----------------------------------------------------------------------
Total thermal energy                    -55.87112328 Eh


Summary of corrections to the electronic energy:
(perhaps to be used in another calculation)
Total thermal correction                  0.02200639 Eh      13.81 kcal/mol
Non-thermal (ZPE) correction              0.39806928 Eh     249.79 kcal/mol
-----------------------------------------------------------------------
Total correction                          0.42007567 Eh     263.60 kcal/mol


--------
ENTHALPY
--------

The enthalpy is H = U + kB*T
                kB is Boltzmann's constant
Total free energy                 ...    -55.87112328 Eh 
Thermal Enthalpy correction       ...      0.00094421 Eh       0.59 kcal/mol
-----------------------------------------------------------------------
Total Enthalpy                    ...    -55.87017907 Eh


Note: Only C1 symmetry has been detected, increase convergence thresholds 
      if your molecule has a higher symmetry. Symmetry factor of 1.0 is   
      used for the rotational entropy correction. 
 

Note: Rotational entropy computed according to Herzberg 
Infrared and Raman Spectra, Chapter V,1, Van Nostrand Reinhold, 1945 
Point Group:  C1, Symmetry Number:   1  
Rotational constants in cm-1:     0.010903     0.006679     0.004544 

Vibrational entropy computed according to the QRRHO of S. Grimme
Chem.Eur.J. 2012 18 9955


-------
ENTROPY
-------

The entropy contributions are T*S = T*(S(el)+S(vib)+S(rot)+S(trans))
     S(el)   - electronic entropy
     S(vib)  - vibrational entropy
     S(rot)  - rotational entropy
     S(trans)- translational entropy
The entropies will be listed as mutliplied by the temperature to get
units of energy

Electronic entropy                ...      0.00000000 Eh      0.00 kcal/mol
Vibrational entropy               ...      0.03412522 Eh     21.41 kcal/mol
Rotational entropy                ...      0.01655506 Eh     10.39 kcal/mol
Translational entropy             ...      0.02018250 Eh     12.66 kcal/mol
-----------------------------------------------------------------------
Final entropy term                ...      0.07086278 Eh     44.47 kcal/mol

In case the symmetry of your molecule has not been determined correctly
or in case you have a reason to use a different symmetry number we print 
out the resulting rotational entropy values for sn=1,12 :
 --------------------------------------------------------
|  sn= 1 | S(rot)=       0.01655506 Eh     10.39 kcal/mol|
|  sn= 2 | S(rot)=       0.01590060 Eh      9.98 kcal/mol|
|  sn= 3 | S(rot)=       0.01551777 Eh      9.74 kcal/mol|
|  sn= 4 | S(rot)=       0.01524615 Eh      9.57 kcal/mol|
|  sn= 5 | S(rot)=       0.01503546 Eh      9.43 kcal/mol|
|  sn= 6 | S(rot)=       0.01486331 Eh      9.33 kcal/mol|
|  sn= 7 | S(rot)=       0.01471777 Eh      9.24 kcal/mol|
|  sn= 8 | S(rot)=       0.01459169 Eh      9.16 kcal/mol|
|  sn= 9 | S(rot)=       0.01448048 Eh      9.09 kcal/mol|
|  sn=10 | S(rot)=       0.01438100 Eh      9.02 kcal/mol|
|  sn=11 | S(rot)=       0.01429101 Eh      8.97 kcal/mol|
|  sn=12 | S(rot)=       0.01420886 Eh      8.92 kcal/mol|
 --------------------------------------------------------


-------------------
GIBBS FREE ENERGY
-------------------

The Gibbs free energy is G = H - T*S

Total enthalpy                    ...    -55.87017907 Eh 
Total entropy correction          ...     -0.07086278 Eh    -44.47 kcal/mol
-----------------------------------------------------------------------
Final Gibbs free energy         ...    -55.94104185 Eh

For completeness - the Gibbs free energy minus the electronic energy
G-E(el)                           ...      0.35015710 Eh    219.73 kcal/mol


Total Time for Numerical Frequencies  :       173.595 sec
Time for Reference State(s)           :         0.207 sec
Time for Displacements                :       161.849 sec

Timings for individual modules:

Sum of individual times         ...        0.427 sec (=   0.007 min)
XTB module                      ...        0.427 sec (=   0.007 min) 100.0 %
                             ****ORCA TERMINATED NORMALLY****
TOTAL RUN TIME: 0 days 0 hours 2 minutes 56 seconds 533 msec
(SLURM) EXECUTION TIME: 177.464435193 seconds.
