
                                 *****************
                                 * O   R   C   A *
                                 *****************

           --- An Ab Initio, DFT and Semiempirical electronic structure package ---

                  #######################################################
                  #                        -***-                        #
                  #          Department of theory and spectroscopy      #
                  #               Directorship: Frank Neese             #
                  #        Max Planck Institute fuer Kohlenforschung    #
                  #                Kaiser Wilhelm Platz 1               #
                  #                 D-45470 Muelheim/Ruhr               #
                  #                      Germany                        #
                  #                                                     #
                  #                  All rights reserved                #
                  #                        -***-                        #
                  #######################################################


                         Program Version 4.2.1 -  RELEASE  -


 With contributions from (in alphabetic order):
   Daniel Aravena         : Magnetic Suceptibility
   Michael Atanasov       : Ab Initio Ligand Field Theory (pilot matlab implementation)
   Alexander A. Auer      : GIAO ZORA, VPT2
   Ute Becker             : Parallelization
   Giovanni Bistoni       : ED, misc. LED, open-shell LED, HFLD
   Martin Brehm           : Molecular dynamics
   Dmytro Bykov           : SCF Hessian
   Vijay G. Chilkuri      : MRCI spin determinant printing, contributions to CSF-ICE
   Dipayan Datta          : RHF DLPNO-CCSD density
   Achintya Kumar Dutta   : EOM-CC, STEOM-CC
   Dmitry Ganyushin       : Spin-Orbit,Spin-Spin,Magnetic field MRCI
   Miquel Garcia          : C-PCM Hessian, Gaussian charge scheme
   Yang Guo               : DLPNO-NEVPT2, CIM, IAO-localization
   Andreas Hansen         : Spin unrestricted coupled pair/coupled cluster methods
   Benjamin Helmich-Paris : CASSCF linear response (MC-RPA)
   Lee Huntington         : MR-EOM, pCC
   Robert Izsak           : Overlap fitted RIJCOSX, COSX-SCS-MP3, EOM
   Christian Kollmar      : KDIIS, OOCD, Brueckner-CCSD(T), CCSD density
   Simone Kossmann        : Meta GGA functionals, TD-DFT gradient, OOMP2, MP2 Hessian
   Martin Krupicka        : AUTO-CI
   Lucas Lang             : DCDCAS
   Dagmar Lenk            : GEPOL surface, SMD
   Dimitrios Liakos       : Extrapolation schemes; Compound Job, initial MDCI parallelization
   Dimitrios Manganas     : Further ROCIS development; embedding schemes
   Dimitrios Pantazis     : SARC Basis sets
   Taras Petrenko         : DFT Hessian,TD-DFT gradient, ASA, ECA, R-Raman, ABS, FL, XAS/XES, NRVS
   Peter Pinski           : DLPNO-MP2, DLPNO-MP2 Gradient
   Christoph Reimann      : Effective Core Potentials
   Marius Retegan         : Local ZFS, SOC
   Christoph Riplinger    : Optimizer, TS searches, QM/MM, DLPNO-CCSD(T), (RO)-DLPNO pert. Triples
   Tobias Risthaus        : Range-separated hybrids, TD-DFT gradient, RPA, STAB
   Michael Roemelt        : Original ROCIS implementation
   Masaaki Saitow         : Open-shell DLPNO-CCSD energy and density
   Barbara Sandhoefer     : DKH picture change effects
   Avijit Sen             : IP-ROCIS
   Kantharuban Sivalingam : CASSCF convergence, NEVPT2, FIC-MRCI
   Bernardo de Souza      : ESD, SOC TD-DFT
   Georgi Stoychev        : AutoAux, RI-MP2 NMR
   Willem Van den Heuvel  : Paramagnetic NMR
   Boris Wezisla          : Elementary symmetry handling
   Frank Wennmohs         : Technical directorship


 We gratefully acknowledge several colleagues who have allowed us to
 interface, adapt or use parts of their codes:
   Stefan Grimme, W. Hujo, H. Kruse,             : VdW corrections, initial TS optimization,
                  C. Bannwarth                     DFT functionals, gCP, sTDA/sTD-DF
   Ed Valeev, F. Pavosevic, A. Kumar             : LibInt (2-el integral package), F12 methods
   Garnet Chan, S. Sharma, J. Yang, R. Olivares  : DMRG
   Ulf Ekstrom                                   : XCFun DFT Library
   Mihaly Kallay                                 : mrcc  (arbitrary order and MRCC methods)
   Andreas Klamt, Michael Diedenhofen            : otool_cosmo (COSMO solvation model)
   Jiri Pittner, Ondrej Demel                    : Mk-CCSD
   Frank Weinhold                                : gennbo (NPA and NBO analysis)
   Christopher J. Cramer and Donald G. Truhlar   : smd solvation model
   Lars Goerigk                                  : TD-DFT with DH, B97 family of functionals
   V. Asgeirsson, H. Jonsson                     : NEB implementation
   FAccTs GmbH                                   : IRC, NEB, NEB-TS, Multilevel, MM, QM/MM, CI optimization
   S Lehtola, MJT Oliveira, MAL Marques          : LibXC Library


 Your calculation uses the libint2 library for the computation of 2-el integrals
 For citations please refer to: http://libint.valeyev.net

 Your ORCA version has been built with support for libXC version: 4.2.3
 For citations please refer to: https://tddft.org/programs/libxc/

 This ORCA versions uses:
   CBLAS   interface :  Fast vector & matrix operations
   LAPACKE interface :  Fast linear algebra routines
   SCALAPACK package :  Parallel linear algebra routines




***************************************
The coordinates will be read from file: init.xyz
***************************************


Your calculation utilizes the SMD solvation module
Please cite in your paper:
A.V. Marenich, C.J. Cramer, D.G. Truhlar J. Phys. Chem. B, 113, (2009), 6378 

Your calculation utilizes the semiempirical GFN2-xTB method
Please cite in your paper:
C. Bannwarth, Ehlert S., S. Grimme,  J. Chem. Theory Comput., 15, (2019), 1652.
   

----- Orbital basis set information -----
Your calculation utilizes the basis: def2-SVP
   F. Weigend and R. Ahlrichs, Phys. Chem. Chem. Phys. 7, 3297 (2005).

================================================================================
                                        WARNINGS
                       Please study these warnings very carefully!
================================================================================

WARNING: Gradients needed for Numerical Frequencies
  ===> : Setting RunTyp to EnGrad

WARNING: The environment variable RSH_COMMAND is not set!
  ===> : All Displacements for the Numerical Hessian calculation
         will be started on localhost

WARNING: Found dipole moment calculation with XTB calculation
  ===> : Switching off dipole moment calculation


INFO   : the flag for use of LIBINT has been found!

================================================================================
                                       INPUT FILE
================================================================================
NAME = freq.inp
|  1> ! XTB2 NumFreq
|  2> %maxcore 1150
|  3> 
|  4> * xyzfile 0 1 init.xyz
|  5> 
|  6> %cpcm
|  7>  smd true
|  8>  smdsolvent "ch2cl2"
|  9> end
| 10> 
| 11> %pal
| 12>  nprocs 6
| 13> end
| 14> 
| 15>                          ****END OF INPUT****
================================================================================

                     *******************************
                     * Energy+Gradient Calculation *
                     *******************************

      -----------------------------------------------------------      
     |                   =====================                   |     
     |                           x T B                           |     
     |                   =====================                   |     
     |                         S. Grimme                         |     
     |          Mulliken Center for Theoretical Chemistry        |     
     |                    University of Bonn                     |     
      -----------------------------------------------------------      

   * xtb version 6.3.2 (30e43eb) compiled by 'schneider@apollo14' on 2020-08-08

   xtb is free software: you can redistribute it and/or modify it under
   the terms of the GNU Lesser General Public License as published by
   the Free Software Foundation, either version 3 of the License, or
   (at your option) any later version.
   
   xtb is distributed in the hope that it will be useful,
   but WITHOUT ANY WARRANTY; without even the implied warranty of
   MERCHANTABILITY or FITNESS FOR A PARTICULAR PURPOSE.  See the
   GNU Lesser General Public License for more details.
   
   Cite this work as:
   * S. Grimme, C. Bannwarth, P. Shushkov, J. Chem. Theory Comput., 2017,
     13, 1989-2009. DOI: 10.1021/acs.jctc.7b00118
   * C. Bannwarth, S. Ehlert and S. Grimme., J. Chem. Theory Comput., 2019,
     15, 1652-1671. DOI: 10.1021/acs.jctc.8b01176
   * P. Pracht, E. Caldeweyher, S. Ehlert, S. Grimme, ChemRxiv, 2019, preprint.
     DOI: 10.26434/chemrxiv.8326202.v1
   
   for GFN-FF:
   * S. Spicher and S. Grimme, Angew. Chem. Int. Ed., 2020,
     DOI: 10.1002/anie.202004239
   
   for DFT-D4:
   * E. Caldeweyher, C. Bannwarth and S. Grimme, J. Chem. Phys., 2017,
     147, 034112. DOI: 10.1063/1.4993215
   * E. Caldeweyher, S. Ehlert, A. Hansen, H. Neugebauer, S. Spicher,
     C. Bannwarth and S. Grimme, J. Chem. Phys., 2019, 150, 154122.
     DOI: 10.1063/1.5090222
   
   for sTDA-xTB:
   * S. Grimme and C. Bannwarth, J. Chem. Phys., 2016, 145, 054103.
     DOI: 10.1063/1.4959605
   
   in the mass-spec context:
   * V. Asgeirsson, C. Bauer and S. Grimme, Chem. Sci., 2017, 8, 4879.
     DOI: 10.1039/c7sc00601b
   * J. Koopman and S. Grimme, ACS Omega 2019, 4, 12, 15120-15133.
     DOI: 10.1021/acsomega.9b02011
   
   for metadynamics refer to:
   * S. Grimme, J. Chem. Theory Comput., 2019, 155, 2847-2862
     DOI: 10.1021/acs.jctc.9b00143
   
   with help from (in alphabetical order)
   C. Bannwarth, F. Bohle, G. Brandenburg, E. Caldeweyher, M. Checinski,
   S. Dohm, S. Ehlert, S. Ehrlich, F. März, H. Neugebauer, J. Pisarek,
   P. Pracht, P. Shushkov, and S. Spicher.
   
 * started run on 2020/12/05 at 23:07:03.839     

           -------------------------------------------------
          |                Calculation Setup                |
           -------------------------------------------------

          program call               : /opt/orca/otool_xtb freq_XTB.xyz --grad -c 0 -u 0 -P 6 --namespace freq --gbsa CH2Cl2
          calculation namespace      : freq
          coordinate file            : freq_XTB.xyz
          omp threads                :                     6
          number of atoms            :                    49
          number of electrons        :                   112
          charge                     :                     0
          spin                       :                   0.0
          first test random number   :      0.75933001487475

   ID    Z sym.   atoms
    1    6 C      1-7, 12, 14, 27, 32, 36, 39, 42, 45
    2    1 H      8-10, 13, 15-18, 20, 21, 23-26, 28-31, 33-35, 37, 38, 40,
                  41, 43, 44, 46-48
    3    7 N      11, 49
    4    8 O      19, 22

molecular fragmentation (1/2 indicates fragments):
1111111111111111112122222211111111122222222222222
# atoms in fragment 1/2:    28    21
 fragment masses (1/2) :      162.25      108.16
CMA distance (Bohr)    :   6.277
constraining FC (au)   :  0.0500
########################################################################
[WARNING] Please study the warnings concerning your input carefully
-1- prog_main_parseArguments: Process number higher than OMP_NUM_THREADS, I hope you know what you are doing.
########################################################################

           -------------------------------------------------
          |                 G F N 2 - x T B                 |
           -------------------------------------------------

        Reference                      10.1021/acs.jctc.8b01176
      * Hamiltonian:
        H0-scaling (s, p, d)           1.850000    2.230000    2.230000
        zeta-weighting                 0.500000
      * Dispersion:
        s8                             2.700000
        a1                             0.520000
        a2                             5.000000
        s9                             5.000000
      * Repulsion:
        kExp                           1.500000    1.000000
        rExp                           1.000000
      * Coulomb:
        alpha                          2.000000
        third order                    shell-resolved
        anisotropic                    true
        a3                             3.000000
        a5                             4.000000
        cn-shift                       1.200000
        cn-exp                         4.000000
        max-rad                        5.000000

      * Solvation model:               GBSA
        Solvent                        CH2Cl2
        Parameter file                 internal GFN2-xTB/GBSA
        Dielectric constant                8.9300E+00
        Reference state                gsolv [1 M gas/solution]
        Free energy shift                  4.4408E-03 Eh       2.7867E+00 kcal/mol
        Temperature                        2.9815E+02 K
        Density                            1.3300E+00 kg/L
        Solvent mass                       8.4930E+01 g/mol
        Interaction kernel             Still
        Born radius scaling (c1)           1.4917E+00
        Born radii integrator          GBOBC
        Born offset                        0.0000E+00 a0       0.0000E+00 AA
        H-bond correction              false
        Ion screening                  false
        Surface tension                    1.0000E-05 Eh       1.5569E+01 dyn/cm
        Grid points                               230 per atom

          ...................................................
          :                      SETUP                      :
          :.................................................:
          :  # basis functions                 106          :
          :  # atomic orbitals                 106          :
          :  # shells                           68          :
          :  # electrons                       112          :
          :  max. iterations                   250          :
          :  Hamiltonian                  GFN2-xTB          :
          :  restarted?                      false          :
          :  GBSA solvation                   true          :
          :  PC potential                    false          :
          :  electronic temp.          300.0000000     K    :
          :  accuracy                    1.0000000          :
          :  -> integral cutoff          0.2500000E+02      :
          :  -> integral neglect         0.1000000E-07      :
          :  -> SCF convergence          0.1000000E-05 Eh   :
          :  -> wf. convergence          0.1000000E-03 e    :
          :  Broyden damping             0.4000000          :
          ...................................................

 iter      E             dE          RMSdq      gap      omega  full diag
   1    -62.0164629 -0.620165E+02  0.369E+00    2.70       0.0  T
   2    -62.1300196 -0.113557E+00  0.216E+00    2.30       1.0  T
   3    -62.1317098 -0.169022E-02  0.913E-01    1.11       1.0  T
   4    -62.1367224 -0.501258E-02  0.432E-01    1.23       1.0  T
   5    -62.1418508 -0.512845E-02  0.852E-02    1.22       1.0  T
   6    -62.1419100 -0.591782E-04  0.372E-02    1.28       1.0  T
   7    -62.1419155 -0.555477E-05  0.181E-02    1.30       1.0  T
   8    -62.1419204 -0.489056E-05  0.615E-03    1.30       2.3  T
   9    -62.1419209 -0.450985E-06  0.242E-03    1.30       5.9  T
  10    -62.1419210 -0.697300E-07  0.117E-03    1.30      12.3  T
  11    -62.1419210 -0.133607E-07  0.605E-04    1.30      23.6  T
  12    -62.1419210 -0.312537E-08  0.103E-04    1.30     138.0  T

   *** convergence criteria satisfied after 12 iterations ***

         #    Occupation            Energy/Eh            Energy/eV
      -------------------------------------------------------------
         1        2.0000           -0.6893384             -18.7579
       ...           ...                  ...                  ...
        50        2.0000           -0.4263392             -11.6013
        51        2.0000           -0.4239233             -11.5355
        52        2.0000           -0.4213279             -11.4649
        53        2.0000           -0.3996818             -10.8759
        54        2.0000           -0.3892764             -10.5927
        55        2.0000           -0.3596590              -9.7868
        56        2.0000           -0.3567037              -9.7064 (HOMO)
        57                         -0.3089852              -8.4079 (LUMO)
        58                         -0.2457754              -6.6879
        59                         -0.2179629              -5.9311
        60                         -0.1124398              -3.0596
        61                         -0.0409848              -1.1153
       ...                                ...                  ...
       106                          0.6117637              16.6469
      -------------------------------------------------------------
                  HL-Gap            0.0477185 Eh            1.2985 eV
             Fermi-level           -0.3328237 Eh           -9.0566 eV

 SCC (total)                   0 d,  0 h,  0 min,  0.206 sec
 SCC setup                      ...        0 min,  0.006 sec (  2.813%)
 Dispersion                     ...        0 min,  0.002 sec (  1.051%)
 classical contributions        ...        0 min,  0.002 sec (  1.137%)
 integral evaluation            ...        0 min,  0.018 sec (  8.591%)
 iterations                     ...        0 min,  0.102 sec ( 49.306%)
 molecular gradient             ...        0 min,  0.071 sec ( 34.245%)
 printout                       ...        0 min,  0.006 sec (  2.845%)

         :::::::::::::::::::::::::::::::::::::::::::::::::::::
         ::                     SUMMARY                     ::
         :::::::::::::::::::::::::::::::::::::::::::::::::::::
         :: total energy             -61.345735692859 Eh    ::
         :: total w/o Gsasa/hb       -61.321426246872 Eh    ::
         :: gradient norm              0.050512000036 Eh/a0 ::
         :: HOMO-LUMO gap              1.298486044383 eV    ::
         ::.................................................::
         :: SCC energy               -62.141920967880 Eh    ::
         :: -> isotropic ES            0.189678410714 Eh    ::
         :: -> anisotropic ES         -0.024235039811 Eh    ::
         :: -> anisotropic XC          0.038353425136 Eh    ::
         :: -> dispersion             -0.039941739556 Eh    ::
         :: -> Gsolv                  -0.058248202976 Eh    ::
         ::    -> Gborn               -0.033938756989 Eh    ::
         ::    -> Gsasa               -0.028750275160 Eh    ::
         ::    -> Ghb                  0.000000000000 Eh    ::
         ::    -> Gshift               0.004440829173 Eh    ::
         :: repulsion energy           0.795487686000 Eh    ::
         :: add. restraining           0.000000000000 Eh    ::
         :: total charge               0.000000000001 e     ::
         :::::::::::::::::::::::::::::::::::::::::::::::::::::

           -------------------------------------------------
          |                Property Printout                |
           -------------------------------------------------

    * Orbital Energies and Occupations

         #    Occupation            Energy/Eh            Energy/eV
      -------------------------------------------------------------
         1        2.0000           -0.6893384             -18.7579
       ...           ...                  ...                  ...
        44        2.0000           -0.4450800             -12.1112
        45        2.0000           -0.4409405             -11.9986
        46        2.0000           -0.4400070             -11.9732
        47        2.0000           -0.4381160             -11.9217
        48        2.0000           -0.4379267             -11.9166
        49        2.0000           -0.4269732             -11.6185
        50        2.0000           -0.4263392             -11.6013
        51        2.0000           -0.4239233             -11.5355
        52        2.0000           -0.4213279             -11.4649
        53        2.0000           -0.3996818             -10.8759
        54        2.0000           -0.3892764             -10.5927
        55        2.0000           -0.3596590              -9.7868
        56        2.0000           -0.3567037              -9.7064 (HOMO)
        57                         -0.3089852              -8.4079 (LUMO)
        58                         -0.2457754              -6.6879
        59                         -0.2179629              -5.9311
        60                         -0.1124398              -3.0596
        61                         -0.0409848              -1.1153
        62                         -0.0048806              -0.1328
        63                          0.0498354               1.3561
        64                          0.0594662               1.6182
        65                          0.0758310               2.0635
        66                          0.0779958               2.1224
        67                          0.0833663               2.2685
       ...                                ...                  ...
       106                          0.6117637              16.6469
      -------------------------------------------------------------
                  HL-Gap            0.0477185 Eh            1.2985 eV
             Fermi-level           -0.3328237 Eh           -9.0566 eV

     #   Z          covCN         q      C6AA      α(0)
     1   6 C        2.964     0.013    27.718     8.636
     2   6 C        2.911    -0.028    28.700     8.785
     3   6 C        2.908    -0.022    28.562     8.763
     4   6 C        2.909    -0.015    28.387     8.736
     5   6 C        2.907    -0.022    28.565     8.764
     6   6 C        2.916    -0.018    28.462     8.748
     7   6 C        2.835     0.083    26.146     8.379
     8   1 H        0.925     0.059     2.212     2.326
     9   1 H        0.925     0.061     2.191     2.315
    10   1 H        0.925     0.061     2.185     2.312
    11   7 N        2.674    -0.049    22.189     6.996
    12   6 C        3.740    -0.021    21.020     6.541
    13   1 H        0.856     0.251     0.881     1.470
    14   6 C        3.798    -0.069    21.829     6.653
    15   1 H        0.924     0.071     2.076     2.253
    16   1 H        0.923     0.091     1.870     2.139
    17   1 H        0.923     0.057     2.237     2.339
    18   1 H        0.923     0.057     2.232     2.336
    19   8 O        1.484    -0.723    28.486     7.196
    20   1 H        0.925     0.105     1.740     2.063
    21   1 H        0.804     0.233     0.962     1.541
    22   8 O        1.047    -0.858    33.214     7.733
    23   1 H        0.924     0.304     0.698     1.307
    24   1 H        0.804     0.173     1.271     1.771
    25   1 H        0.857     0.199     1.111     1.651
    26   1 H        0.859     0.139     1.479     1.905
    27   6 C        3.796    -0.054    21.543     6.609
    28   1 H        0.923     0.034     2.533     2.489
    29   1 H        0.923     0.039     2.457     2.452
    30   1 H        0.925     0.059     2.212     2.326
    31   1 H        0.925     0.060     2.199     2.319
    32   6 C        3.746    -0.104    22.561     6.775
    33   1 H        0.923     0.039     2.461     2.453
    34   1 H        0.923     0.041     2.430     2.438
    35   1 H        0.923     0.039     2.460     2.453
    36   6 C        3.727     0.017    20.390     6.447
    37   1 H        0.923     0.035     2.522     2.484
    38   1 H        0.922     0.010     2.895     2.661
    39   6 C        3.797    -0.067    21.779     6.645
    40   1 H        0.923     0.042     2.417     2.431
    41   1 H        0.923     0.036     2.505     2.475
    42   6 C        3.795    -0.053    21.528     6.607
    43   1 H        0.923     0.029     2.597     2.520
    44   1 H        0.923     0.033     2.549     2.497
    45   6 C        3.745    -0.102    22.524     6.770
    46   1 H        0.923     0.039     2.459     2.452
    47   1 H        0.923     0.036     2.509     2.477
    48   1 H        0.923     0.037     2.491     2.468
    49   7 N        2.627    -0.376    29.717     8.096

 Mol. C6AA /au·bohr⁶  :      19091.825757
 Mol. C8AA /au·bohr⁸  :     416058.585626
 Mol. α(0) /au        :        211.001547


Wiberg/Mayer (AO) data.
largest (>0.10) Wiberg bond orders for each atom

 ---------------------------------------------------------------------------
     #   Z sym  total        # sym  WBO       # sym  WBO       # sym  WBO
 ---------------------------------------------------------------------------
     1   6 C    3.984 --     6 C    1.352     2 C    1.350     7 C    1.122
     2   6 C    3.988 --     3 C    1.468     1 C    1.350     8 H    0.961
                             5 C    0.103
     3   6 C    3.989 --     2 C    1.468     4 C    1.421    31 H    0.968
                             6 C    0.101
     4   6 C    3.982 --     5 C    1.426     3 C    1.421    10 H    0.969
     5   6 C    3.989 --     6 C    1.463     4 C    1.426    30 H    0.968
                             2 C    0.103
     6   6 C    3.982 --     5 C    1.463     1 C    1.352     9 H    0.966
                             3 C    0.101
     7   6 C    3.927 --    11 N    1.640     1 C    1.122    20 H    0.944
     8   1 H    0.997 --     2 C    0.961
     9   1 H    0.996 --     6 C    0.966
    10   1 H    0.996 --     4 C    0.969
    11   7 N    3.646 --     7 C    1.640    12 C    0.983    13 H    0.779
    12   6 C    3.947 --    14 C    0.992    11 N    0.983    15 H    0.969
                            16 H    0.943
    13   1 H    0.937 --    11 N    0.779    49 N    0.119
    14   6 C    3.986 --    27 C    1.004    12 C    0.992    18 H    0.975
                            17 H    0.970
    15   1 H    0.995 --    12 C    0.969
    16   1 H    0.987 --    12 C    0.943
    17   1 H    0.997 --    14 C    0.970
    18   1 H    0.996 --    14 C    0.975
    19   8 O    1.772 --    21 H    0.942    23 H    0.569    22 O    0.112
    20   1 H    0.988 --     7 C    0.944
    21   1 H    0.946 --    19 O    0.942
    22   8 O    1.523 --    24 H    0.964    23 H    0.336    19 O    0.112
    23   1 H    0.908 --    19 O    0.569    22 O    0.336
    24   1 H    0.970 --    22 O    0.964
    25   1 H    0.960 --    49 N    0.883
    26   1 H    0.981 --    49 N    0.966
    27   6 C    3.994 --    32 C    1.019    14 C    1.004    28 H    0.978
                            29 H    0.978
    28   1 H    0.999 --    27 C    0.978
    29   1 H    0.998 --    27 C    0.978
    30   1 H    0.996 --     5 C    0.968
    31   1 H    0.996 --     3 C    0.968
    32   6 C    3.994 --    27 C    1.019    35 H    0.987    34 H    0.987
                            33 H    0.987
    33   1 H    0.998 --    32 C    0.987
    34   1 H    0.998 --    32 C    0.987
    35   1 H    0.998 --    32 C    0.987
    36   6 C    3.981 --    49 N    1.011    39 C    1.004    37 H    0.974
                            38 H    0.972
    37   1 H    0.999 --    36 C    0.974
    38   1 H    0.999 --    36 C    0.972
    39   6 C    3.995 --    42 C    1.006    36 C    1.004    41 H    0.976
                            40 H    0.974
    40   1 H    0.998 --    39 C    0.974
    41   1 H    0.999 --    39 C    0.976
    42   6 C    3.996 --    45 C    1.019    39 C    1.006    43 H    0.978
                            44 H    0.978
    43   1 H    0.999 --    42 C    0.978
    44   1 H    0.999 --    42 C    0.978
    45   6 C    3.995 --    42 C    1.019    47 H    0.988    46 H    0.988
                            48 H    0.987
    46   1 H    0.998 --    45 C    0.988
    47   1 H    0.999 --    45 C    0.988
    48   1 H    0.998 --    45 C    0.987
    49   7 N    3.131 --    36 C    1.011    26 H    0.966    25 H    0.883
                            13 H    0.119
 ---------------------------------------------------------------------------

Topologies differ in total number of bonds
Writing topology from bond orders to xtbtopo.mol

molecular dipole:
                 x           y           z       tot (Debye)
 q only:       -0.693      -2.717       3.239
   full:       -0.486      -1.844       3.049       9.140
molecular quadrupole (traceless):
                xx          xy          yy          xz          yz          zz
 q only:       42.553      40.475     -24.263     -33.277      37.974     -18.290
  q+dip:       32.917      23.906     -14.254     -32.129      35.905     -18.663
   full:       32.327      25.575     -12.620     -32.066      33.612     -19.707


           -------------------------------------------------
          | TOTAL ENERGY              -61.345735692859 Eh   |
          | GRADIENT NORM               0.050512000036 Eh/α |
          | HOMO-LUMO GAP               1.298486044383 eV   |
           -------------------------------------------------

------------------------------------------------------------------------
 * finished run on 2020/12/05 at 23:07:04.138     
------------------------------------------------------------------------
 total:
 * wall-time:     0 d,  0 h,  0 min,  0.299 sec
 *  cpu-time:     0 d,  0 h,  0 min,  2.924 sec
 * ratio c/w:     9.789 speedup
 SCF:
 * wall-time:     0 d,  0 h,  0 min,  0.216 sec
 *  cpu-time:     0 d,  0 h,  0 min,  2.181 sec
 * ratio c/w:    10.085 speedup


-------------------------   --------------------
FINAL SINGLE POINT ENERGY       -61.345735692860
-------------------------   --------------------


----------------------------------------------------------------------------
                           ORCA NUMERICAL FREQUENCIES
                              (6-process run)
----------------------------------------------------------------------------

Number of atoms                ... 49
Central differences            ... used
Number of displacements        ... 294
Numerical increment            ... 5.000e-03 bohr
IR-spectrum generation         ... on
Raman-spectrum generation      ... off
Surface Crossing Hessian       ... off
List of participating nodes    ...  freq.hostnames

The output will be reduced. Please look at the following files:
SCF program output             ... >freq.lastscf
Integral program output        ... >freq.lastint
Gradient program output        ... >freq.lastgrad
Dipole moment program output   ... >freq.lastmom
AutoCI program output          ... >freq.lastautoci


         <<< Energy and Gradient at the input geometry >>>

        <<< Energy and Gradient at displaced geometries >>>
             <<<Displacing   2/coordinate 2 (+)>>>
             <<<Displacing   1/coordinate 1 (+)>>>
             <<<Displacing   1/coordinate 2 (+)>>>
             <<<Displacing   2/coordinate 3 (+)>>>
             <<<Displacing   2/coordinate 1 (+)>>>
             <<<Displacing   1/coordinate 3 (+)>>>
             <<<Displacing   1/coordinate 3 (-)>>>
             <<<Displacing   2/coordinate 3 (-)>>>
             <<<Displacing   2/coordinate 2 (-)>>>
             <<<Displacing   1/coordinate 1 (-)>>>
             <<<Displacing   2/coordinate 1 (-)>>>
             <<<Displacing   1/coordinate 2 (-)>>>
             <<<Displacing   3/coordinate 2 (+)>>>
             <<<Displacing   3/coordinate 2 (-)>>>
             <<<Displacing   3/coordinate 3 (+)>>>
             <<<Displacing   4/coordinate 2 (+)>>>
             <<<Displacing   3/coordinate 1 (+)>>>
             <<<Displacing   4/coordinate 1 (+)>>>
             <<<Displacing   4/coordinate 3 (+)>>>
             <<<Displacing   3/coordinate 3 (-)>>>
             <<<Displacing   4/coordinate 2 (-)>>>
             <<<Displacing   3/coordinate 1 (-)>>>
             <<<Displacing   4/coordinate 1 (-)>>>
             <<<Displacing   4/coordinate 3 (-)>>>
             <<<Displacing   5/coordinate 1 (+)>>>
             <<<Displacing   5/coordinate 2 (+)>>>
             <<<Displacing   5/coordinate 3 (+)>>>
             <<<Displacing   5/coordinate 1 (-)>>>
             <<<Displacing   6/coordinate 1 (+)>>>
             <<<Displacing   5/coordinate 3 (-)>>>
             <<<Displacing   5/coordinate 2 (-)>>>
             <<<Displacing   6/coordinate 2 (+)>>>
             <<<Displacing   6/coordinate 1 (-)>>>
             <<<Displacing   6/coordinate 3 (+)>>>
             <<<Displacing   6/coordinate 2 (-)>>>
             <<<Displacing   6/coordinate 3 (-)>>>
             <<<Displacing   7/coordinate 2 (+)>>>
             <<<Displacing   7/coordinate 1 (+)>>>
             <<<Displacing   7/coordinate 1 (-)>>>
             <<<Displacing   7/coordinate 2 (-)>>>
             <<<Displacing   7/coordinate 3 (+)>>>
             <<<Displacing   8/coordinate 1 (+)>>>
             <<<Displacing   8/coordinate 2 (+)>>>
             <<<Displacing   7/coordinate 3 (-)>>>
             <<<Displacing   8/coordinate 1 (-)>>>
             <<<Displacing   8/coordinate 2 (-)>>>
             <<<Displacing   8/coordinate 3 (+)>>>
             <<<Displacing   8/coordinate 3 (-)>>>
             <<<Displacing   9/coordinate 2 (+)>>>
             <<<Displacing   9/coordinate 2 (-)>>>
             <<<Displacing   9/coordinate 1 (+)>>>
             <<<Displacing   9/coordinate 1 (-)>>>
             <<<Displacing  10/coordinate 1 (+)>>>
             <<<Displacing   9/coordinate 3 (+)>>>
             <<<Displacing  10/coordinate 2 (+)>>>
             <<<Displacing  10/coordinate 1 (-)>>>
             <<<Displacing   9/coordinate 3 (-)>>>
             <<<Displacing  10/coordinate 2 (-)>>>
             <<<Displacing  10/coordinate 3 (+)>>>
             <<<Displacing  10/coordinate 3 (-)>>>
             <<<Displacing  11/coordinate 1 (+)>>>
             <<<Displacing  11/coordinate 1 (-)>>>
             <<<Displacing  11/coordinate 2 (+)>>>
             <<<Displacing  11/coordinate 3 (+)>>>
             <<<Displacing  11/coordinate 2 (-)>>>
             <<<Displacing  11/coordinate 3 (-)>>>
             <<<Displacing  12/coordinate 2 (+)>>>
             <<<Displacing  12/coordinate 2 (-)>>>
             <<<Displacing  12/coordinate 1 (+)>>>
             <<<Displacing  12/coordinate 1 (-)>>>
             <<<Displacing  12/coordinate 3 (+)>>>
             <<<Displacing  12/coordinate 3 (-)>>>
             <<<Displacing  13/coordinate 1 (+)>>>
             <<<Displacing  13/coordinate 3 (+)>>>
             <<<Displacing  13/coordinate 1 (-)>>>
             <<<Displacing  13/coordinate 2 (+)>>>
             <<<Displacing  13/coordinate 3 (-)>>>
             <<<Displacing  13/coordinate 2 (-)>>>
             <<<Displacing  14/coordinate 1 (+)>>>
             <<<Displacing  14/coordinate 1 (-)>>>
             <<<Displacing  14/coordinate 2 (+)>>>
             <<<Displacing  14/coordinate 2 (-)>>>
             <<<Displacing  14/coordinate 3 (+)>>>
             <<<Displacing  14/coordinate 3 (-)>>>
             <<<Displacing  15/coordinate 1 (+)>>>
             <<<Displacing  15/coordinate 2 (+)>>>
             <<<Displacing  15/coordinate 1 (-)>>>
             <<<Displacing  15/coordinate 2 (-)>>>
             <<<Displacing  15/coordinate 3 (+)>>>
             <<<Displacing  16/coordinate 1 (+)>>>
             <<<Displacing  15/coordinate 3 (-)>>>
             <<<Displacing  16/coordinate 1 (-)>>>
             <<<Displacing  16/coordinate 2 (+)>>>
             <<<Displacing  16/coordinate 2 (-)>>>
             <<<Displacing  16/coordinate 3 (+)>>>
             <<<Displacing  16/coordinate 3 (-)>>>
             <<<Displacing  17/coordinate 1 (+)>>>
             <<<Displacing  17/coordinate 2 (+)>>>
             <<<Displacing  17/coordinate 1 (-)>>>
             <<<Displacing  17/coordinate 3 (+)>>>
             <<<Displacing  17/coordinate 2 (-)>>>
             <<<Displacing  17/coordinate 3 (-)>>>
             <<<Displacing  18/coordinate 1 (+)>>>
             <<<Displacing  18/coordinate 1 (-)>>>
             <<<Displacing  18/coordinate 2 (+)>>>
             <<<Displacing  18/coordinate 2 (-)>>>
             <<<Displacing  18/coordinate 3 (+)>>>
             <<<Displacing  18/coordinate 3 (-)>>>
             <<<Displacing  19/coordinate 1 (+)>>>
             <<<Displacing  19/coordinate 1 (-)>>>
             <<<Displacing  19/coordinate 3 (+)>>>
             <<<Displacing  19/coordinate 2 (+)>>>
             <<<Displacing  19/coordinate 3 (-)>>>
             <<<Displacing  20/coordinate 1 (+)>>>
             <<<Displacing  19/coordinate 2 (-)>>>
             <<<Displacing  20/coordinate 1 (-)>>>
             <<<Displacing  20/coordinate 2 (+)>>>
             <<<Displacing  20/coordinate 2 (-)>>>
             <<<Displacing  20/coordinate 3 (+)>>>
             <<<Displacing  20/coordinate 3 (-)>>>
             <<<Displacing  21/coordinate 1 (+)>>>
             <<<Displacing  21/coordinate 2 (+)>>>
             <<<Displacing  21/coordinate 1 (-)>>>
             <<<Displacing  21/coordinate 2 (-)>>>
             <<<Displacing  21/coordinate 3 (+)>>>
             <<<Displacing  22/coordinate 1 (+)>>>
             <<<Displacing  21/coordinate 3 (-)>>>
             <<<Displacing  22/coordinate 1 (-)>>>
             <<<Displacing  22/coordinate 2 (+)>>>
             <<<Displacing  22/coordinate 2 (-)>>>
             <<<Displacing  22/coordinate 3 (+)>>>
             <<<Displacing  22/coordinate 3 (-)>>>
             <<<Displacing  23/coordinate 1 (+)>>>
             <<<Displacing  23/coordinate 2 (+)>>>
             <<<Displacing  23/coordinate 1 (-)>>>
             <<<Displacing  23/coordinate 3 (+)>>>
             <<<Displacing  23/coordinate 2 (-)>>>
             <<<Displacing  23/coordinate 3 (-)>>>
             <<<Displacing  24/coordinate 1 (+)>>>
             <<<Displacing  24/coordinate 1 (-)>>>
             <<<Displacing  24/coordinate 2 (+)>>>
             <<<Displacing  24/coordinate 2 (-)>>>
             <<<Displacing  24/coordinate 3 (+)>>>
             <<<Displacing  24/coordinate 3 (-)>>>
             <<<Displacing  25/coordinate 1 (+)>>>
             <<<Displacing  25/coordinate 2 (+)>>>
             <<<Displacing  25/coordinate 1 (-)>>>
             <<<Displacing  25/coordinate 3 (+)>>>
             <<<Displacing  25/coordinate 3 (-)>>>
             <<<Displacing  25/coordinate 2 (-)>>>
             <<<Displacing  26/coordinate 1 (+)>>>
             <<<Displacing  26/coordinate 1 (-)>>>
             <<<Displacing  26/coordinate 2 (+)>>>
             <<<Displacing  26/coordinate 2 (-)>>>
             <<<Displacing  26/coordinate 3 (+)>>>
             <<<Displacing  26/coordinate 3 (-)>>>
             <<<Displacing  27/coordinate 1 (+)>>>
             <<<Displacing  27/coordinate 1 (-)>>>
             <<<Displacing  27/coordinate 3 (+)>>>
             <<<Displacing  27/coordinate 2 (+)>>>
             <<<Displacing  27/coordinate 3 (-)>>>
             <<<Displacing  27/coordinate 2 (-)>>>
             <<<Displacing  28/coordinate 1 (+)>>>
             <<<Displacing  28/coordinate 1 (-)>>>
             <<<Displacing  28/coordinate 2 (+)>>>
             <<<Displacing  28/coordinate 2 (-)>>>
             <<<Displacing  28/coordinate 3 (+)>>>
             <<<Displacing  28/coordinate 3 (-)>>>
             <<<Displacing  29/coordinate 1 (+)>>>
             <<<Displacing  29/coordinate 1 (-)>>>
             <<<Displacing  29/coordinate 2 (+)>>>
             <<<Displacing  29/coordinate 3 (+)>>>
             <<<Displacing  29/coordinate 2 (-)>>>
             <<<Displacing  30/coordinate 1 (+)>>>
             <<<Displacing  29/coordinate 3 (-)>>>
             <<<Displacing  30/coordinate 1 (-)>>>
             <<<Displacing  30/coordinate 2 (+)>>>
             <<<Displacing  30/coordinate 2 (-)>>>
             <<<Displacing  30/coordinate 3 (+)>>>
             <<<Displacing  30/coordinate 3 (-)>>>
             <<<Displacing  31/coordinate 2 (+)>>>
             <<<Displacing  31/coordinate 1 (+)>>>
             <<<Displacing  31/coordinate 2 (-)>>>
             <<<Displacing  31/coordinate 1 (-)>>>
             <<<Displacing  32/coordinate 1 (+)>>>
             <<<Displacing  31/coordinate 3 (+)>>>
             <<<Displacing  31/coordinate 3 (-)>>>
             <<<Displacing  32/coordinate 1 (-)>>>
             <<<Displacing  32/coordinate 2 (+)>>>
             <<<Displacing  32/coordinate 2 (-)>>>
             <<<Displacing  32/coordinate 3 (+)>>>
             <<<Displacing  32/coordinate 3 (-)>>>
             <<<Displacing  33/coordinate 1 (+)>>>
             <<<Displacing  33/coordinate 1 (-)>>>
             <<<Displacing  33/coordinate 2 (+)>>>
             <<<Displacing  33/coordinate 2 (-)>>>
             <<<Displacing  34/coordinate 1 (+)>>>
             <<<Displacing  33/coordinate 3 (+)>>>
             <<<Displacing  34/coordinate 1 (-)>>>
             <<<Displacing  33/coordinate 3 (-)>>>
             <<<Displacing  34/coordinate 2 (+)>>>
             <<<Displacing  34/coordinate 2 (-)>>>
             <<<Displacing  34/coordinate 3 (+)>>>
             <<<Displacing  34/coordinate 3 (-)>>>
             <<<Displacing  35/coordinate 1 (+)>>>
             <<<Displacing  35/coordinate 2 (+)>>>
             <<<Displacing  35/coordinate 1 (-)>>>
             <<<Displacing  35/coordinate 2 (-)>>>
             <<<Displacing  36/coordinate 1 (+)>>>
             <<<Displacing  35/coordinate 3 (+)>>>
             <<<Displacing  36/coordinate 1 (-)>>>
             <<<Displacing  35/coordinate 3 (-)>>>
             <<<Displacing  36/coordinate 2 (+)>>>
             <<<Displacing  36/coordinate 3 (+)>>>
             <<<Displacing  36/coordinate 2 (-)>>>
             <<<Displacing  36/coordinate 3 (-)>>>
             <<<Displacing  37/coordinate 1 (+)>>>
             <<<Displacing  37/coordinate 1 (-)>>>
             <<<Displacing  37/coordinate 2 (+)>>>
             <<<Displacing  37/coordinate 3 (+)>>>
             <<<Displacing  37/coordinate 3 (-)>>>
             <<<Displacing  37/coordinate 2 (-)>>>
             <<<Displacing  38/coordinate 1 (+)>>>
             <<<Displacing  38/coordinate 1 (-)>>>
             <<<Displacing  38/coordinate 2 (+)>>>
             <<<Displacing  38/coordinate 3 (+)>>>
             <<<Displacing  38/coordinate 2 (-)>>>
             <<<Displacing  38/coordinate 3 (-)>>>
             <<<Displacing  39/coordinate 2 (+)>>>
             <<<Displacing  39/coordinate 1 (+)>>>
             <<<Displacing  39/coordinate 2 (-)>>>
             <<<Displacing  39/coordinate 1 (-)>>>
             <<<Displacing  39/coordinate 3 (+)>>>
             <<<Displacing  39/coordinate 3 (-)>>>
             <<<Displacing  40/coordinate 1 (+)>>>
             <<<Displacing  40/coordinate 1 (-)>>>
             <<<Displacing  40/coordinate 2 (+)>>>
             <<<Displacing  40/coordinate 3 (+)>>>
             <<<Displacing  40/coordinate 2 (-)>>>
             <<<Displacing  40/coordinate 3 (-)>>>
             <<<Displacing  41/coordinate 1 (+)>>>
             <<<Displacing  41/coordinate 3 (+)>>>
             <<<Displacing  41/coordinate 2 (+)>>>
             <<<Displacing  41/coordinate 1 (-)>>>
             <<<Displacing  41/coordinate 3 (-)>>>
             <<<Displacing  41/coordinate 2 (-)>>>
             <<<Displacing  42/coordinate 1 (+)>>>
             <<<Displacing  42/coordinate 1 (-)>>>
             <<<Displacing  42/coordinate 2 (+)>>>
             <<<Displacing  42/coordinate 3 (+)>>>
             <<<Displacing  42/coordinate 2 (-)>>>
             <<<Displacing  42/coordinate 3 (-)>>>
             <<<Displacing  43/coordinate 1 (+)>>>
             <<<Displacing  43/coordinate 2 (+)>>>
             <<<Displacing  43/coordinate 3 (+)>>>
             <<<Displacing  43/coordinate 1 (-)>>>
             <<<Displacing  43/coordinate 3 (-)>>>
             <<<Displacing  43/coordinate 2 (-)>>>
             <<<Displacing  44/coordinate 1 (+)>>>
             <<<Displacing  44/coordinate 1 (-)>>>
             <<<Displacing  44/coordinate 2 (+)>>>
             <<<Displacing  44/coordinate 3 (+)>>>
             <<<Displacing  44/coordinate 3 (-)>>>
             <<<Displacing  44/coordinate 2 (-)>>>
             <<<Displacing  45/coordinate 1 (+)>>>
             <<<Displacing  45/coordinate 2 (+)>>>
             <<<Displacing  45/coordinate 1 (-)>>>
             <<<Displacing  45/coordinate 3 (+)>>>
             <<<Displacing  45/coordinate 2 (-)>>>
             <<<Displacing  45/coordinate 3 (-)>>>
             <<<Displacing  46/coordinate 1 (+)>>>
             <<<Displacing  46/coordinate 1 (-)>>>
             <<<Displacing  46/coordinate 3 (+)>>>
             <<<Displacing  46/coordinate 2 (+)>>>
             <<<Displacing  46/coordinate 3 (-)>>>
             <<<Displacing  46/coordinate 2 (-)>>>
             <<<Displacing  47/coordinate 1 (+)>>>
             <<<Displacing  47/coordinate 2 (+)>>>
             <<<Displacing  47/coordinate 1 (-)>>>
             <<<Displacing  47/coordinate 3 (+)>>>
             <<<Displacing  47/coordinate 2 (-)>>>
             <<<Displacing  47/coordinate 3 (-)>>>
             <<<Displacing  48/coordinate 1 (+)>>>
             <<<Displacing  48/coordinate 1 (-)>>>
             <<<Displacing  48/coordinate 2 (+)>>>
             <<<Displacing  48/coordinate 2 (-)>>>
             <<<Displacing  48/coordinate 3 (+)>>>
             <<<Displacing  48/coordinate 3 (-)>>>
             <<<Displacing  49/coordinate 2 (+)>>>
             <<<Displacing  49/coordinate 1 (+)>>>
             <<<Displacing  49/coordinate 2 (-)>>>
             <<<Displacing  49/coordinate 1 (-)>>>
             <<<Displacing  49/coordinate 3 (+)>>>
             <<<Displacing  49/coordinate 3 (-)>>>

-----------------------
VIBRATIONAL FREQUENCIES
-----------------------

Scaling factor for frequencies =  1.000000000 (already applied!)

   0:         0.00 cm**-1
   1:         0.00 cm**-1
   2:         0.00 cm**-1
   3:         0.00 cm**-1
   4:         0.00 cm**-1
   5:         0.00 cm**-1
   6:      -255.23 cm**-1 ***imaginary mode***
   7:        47.02 cm**-1
   8:        55.64 cm**-1
   9:        55.95 cm**-1
  10:        65.09 cm**-1
  11:        78.03 cm**-1
  12:        87.82 cm**-1
  13:       101.57 cm**-1
  14:       106.55 cm**-1
  15:       117.29 cm**-1
  16:       130.08 cm**-1
  17:       145.58 cm**-1
  18:       154.10 cm**-1
  19:       170.81 cm**-1
  20:       181.32 cm**-1
  21:       185.74 cm**-1
  22:       193.58 cm**-1
  23:       202.28 cm**-1
  24:       223.99 cm**-1
  25:       251.17 cm**-1
  26:       261.42 cm**-1
  27:       283.68 cm**-1
  28:       323.03 cm**-1
  29:       353.57 cm**-1
  30:       354.57 cm**-1
  31:       369.98 cm**-1
  32:       388.01 cm**-1
  33:       399.07 cm**-1
  34:       411.97 cm**-1
  35:       430.77 cm**-1
  36:       455.45 cm**-1
  37:       471.69 cm**-1
  38:       491.58 cm**-1
  39:       510.63 cm**-1
  40:       521.72 cm**-1
  41:       588.75 cm**-1
  42:       610.94 cm**-1
  43:       627.54 cm**-1
  44:       675.30 cm**-1
  45:       719.46 cm**-1
  46:       776.83 cm**-1
  47:       781.42 cm**-1
  48:       799.16 cm**-1
  49:       800.09 cm**-1
  50:       832.05 cm**-1
  51:       846.44 cm**-1
  52:       850.25 cm**-1
  53:       860.10 cm**-1
  54:       895.93 cm**-1
  55:       904.96 cm**-1
  56:       933.63 cm**-1
  57:       941.16 cm**-1
  58:       944.09 cm**-1
  59:       953.01 cm**-1
  60:       955.03 cm**-1
  61:       956.98 cm**-1
  62:       959.82 cm**-1
  63:       974.75 cm**-1
  64:       992.13 cm**-1
  65:      1000.44 cm**-1
  66:      1025.99 cm**-1
  67:      1046.53 cm**-1
  68:      1055.12 cm**-1
  69:      1059.82 cm**-1
  70:      1071.73 cm**-1
  71:      1078.83 cm**-1
  72:      1085.62 cm**-1
  73:      1112.52 cm**-1
  74:      1119.34 cm**-1
  75:      1123.53 cm**-1
  76:      1135.21 cm**-1
  77:      1181.39 cm**-1
  78:      1186.28 cm**-1
  79:      1199.46 cm**-1
  80:      1207.82 cm**-1
  81:      1211.47 cm**-1
  82:      1216.16 cm**-1
  83:      1248.95 cm**-1
  84:      1253.74 cm**-1
  85:      1255.24 cm**-1
  86:      1263.27 cm**-1
  87:      1279.69 cm**-1
  88:      1280.39 cm**-1
  89:      1283.50 cm**-1
  90:      1286.58 cm**-1
  91:      1301.98 cm**-1
  92:      1305.59 cm**-1
  93:      1309.86 cm**-1
  94:      1335.67 cm**-1
  95:      1357.01 cm**-1
  96:      1368.07 cm**-1
  97:      1376.05 cm**-1
  98:      1378.92 cm**-1
  99:      1404.62 cm**-1
 100:      1434.42 cm**-1
 101:      1435.33 cm**-1
 102:      1435.57 cm**-1
 103:      1452.02 cm**-1
 104:      1495.64 cm**-1
 105:      1507.42 cm**-1
 106:      1508.47 cm**-1
 107:      1510.24 cm**-1
 108:      1511.87 cm**-1
 109:      1512.08 cm**-1
 110:      1512.80 cm**-1
 111:      1513.80 cm**-1
 112:      1514.38 cm**-1
 113:      1516.62 cm**-1
 114:      1522.30 cm**-1
 115:      1527.78 cm**-1
 116:      1539.21 cm**-1
 117:      1581.74 cm**-1
 118:      2220.63 cm**-1
 119:      2801.50 cm**-1
 120:      2820.70 cm**-1
 121:      2864.74 cm**-1
 122:      2877.19 cm**-1
 123:      2878.59 cm**-1
 124:      2891.19 cm**-1
 125:      2893.43 cm**-1
 126:      2898.00 cm**-1
 127:      2901.05 cm**-1
 128:      2905.10 cm**-1
 129:      2907.42 cm**-1
 130:      2912.36 cm**-1
 131:      2915.07 cm**-1
 132:      2917.88 cm**-1
 133:      2918.13 cm**-1
 134:      2924.10 cm**-1
 135:      2930.54 cm**-1
 136:      2933.66 cm**-1
 137:      2944.02 cm**-1
 138:      2992.96 cm**-1
 139:      2998.03 cm**-1
 140:      3003.25 cm**-1
 141:      3009.37 cm**-1
 142:      3012.59 cm**-1
 143:      3022.17 cm**-1
 144:      3303.21 cm**-1
 145:      3459.05 cm**-1
 146:      3483.37 cm**-1


------------
NORMAL MODES
------------

These modes are the cartesian displacements weighted by the diagonal matrix
M(i,i)=1/sqrt(m[i]) where m[i] is the mass of the displaced atom
Thus, these vectors are normalized but *not* orthogonal

                  0          1          2          3          4          5    
      0       0.000000   0.000000   0.000000   0.000000   0.000000   0.000000
      1       0.000000   0.000000   0.000000   0.000000   0.000000   0.000000
      2       0.000000   0.000000   0.000000   0.000000   0.000000   0.000000
      3       0.000000   0.000000   0.000000   0.000000   0.000000   0.000000
      4       0.000000   0.000000   0.000000   0.000000   0.000000   0.000000
      5       0.000000   0.000000   0.000000   0.000000   0.000000   0.000000
      6       0.000000   0.000000   0.000000   0.000000   0.000000   0.000000
      7       0.000000   0.000000   0.000000   0.000000   0.000000   0.000000
      8       0.000000   0.000000   0.000000   0.000000   0.000000   0.000000
      9       0.000000   0.000000   0.000000   0.000000   0.000000   0.000000
     10       0.000000   0.000000   0.000000   0.000000   0.000000   0.000000
     11       0.000000   0.000000   0.000000   0.000000   0.000000   0.000000
     12       0.000000   0.000000   0.000000   0.000000   0.000000   0.000000
     13       0.000000   0.000000   0.000000   0.000000   0.000000   0.000000
     14       0.000000   0.000000   0.000000   0.000000   0.000000   0.000000
     15       0.000000   0.000000   0.000000   0.000000   0.000000   0.000000
     16       0.000000   0.000000   0.000000   0.000000   0.000000   0.000000
     17       0.000000   0.000000   0.000000   0.000000   0.000000   0.000000
     18       0.000000   0.000000   0.000000   0.000000   0.000000   0.000000
     19       0.000000   0.000000   0.000000   0.000000   0.000000   0.000000
     20       0.000000   0.000000   0.000000   0.000000   0.000000   0.000000
     21       0.000000   0.000000   0.000000   0.000000   0.000000   0.000000
     22       0.000000   0.000000   0.000000   0.000000   0.000000   0.000000
     23       0.000000   0.000000   0.000000   0.000000   0.000000   0.000000
     24       0.000000   0.000000   0.000000   0.000000   0.000000   0.000000
     25       0.000000   0.000000   0.000000   0.000000   0.000000   0.000000
     26       0.000000   0.000000   0.000000   0.000000   0.000000   0.000000
     27       0.000000   0.000000   0.000000   0.000000   0.000000   0.000000
     28       0.000000   0.000000   0.000000   0.000000   0.000000   0.000000
     29       0.000000   0.000000   0.000000   0.000000   0.000000   0.000000
     30       0.000000   0.000000   0.000000   0.000000   0.000000   0.000000
     31       0.000000   0.000000   0.000000   0.000000   0.000000   0.000000
     32       0.000000   0.000000   0.000000   0.000000   0.000000   0.000000
     33       0.000000   0.000000   0.000000   0.000000   0.000000   0.000000
     34       0.000000   0.000000   0.000000   0.000000   0.000000   0.000000
     35       0.000000   0.000000   0.000000   0.000000   0.000000   0.000000
     36       0.000000   0.000000   0.000000   0.000000   0.000000   0.000000
     37       0.000000   0.000000   0.000000   0.000000   0.000000   0.000000
     38       0.000000   0.000000   0.000000   0.000000   0.000000   0.000000
     39       0.000000   0.000000   0.000000   0.000000   0.000000   0.000000
     40       0.000000   0.000000   0.000000   0.000000   0.000000   0.000000
     41       0.000000   0.000000   0.000000   0.000000   0.000000   0.000000
     42       0.000000   0.000000   0.000000   0.000000   0.000000   0.000000
     43       0.000000   0.000000   0.000000   0.000000   0.000000   0.000000
     44       0.000000   0.000000   0.000000   0.000000   0.000000   0.000000
     45       0.000000   0.000000   0.000000   0.000000   0.000000   0.000000
     46       0.000000   0.000000   0.000000   0.000000   0.000000   0.000000
     47       0.000000   0.000000   0.000000   0.000000   0.000000   0.000000
     48       0.000000   0.000000   0.000000   0.000000   0.000000   0.000000
     49       0.000000   0.000000   0.000000   0.000000   0.000000   0.000000
     50       0.000000   0.000000   0.000000   0.000000   0.000000   0.000000
     51       0.000000   0.000000   0.000000   0.000000   0.000000   0.000000
     52       0.000000   0.000000   0.000000   0.000000   0.000000   0.000000
     53       0.000000   0.000000   0.000000   0.000000   0.000000   0.000000
     54       0.000000   0.000000   0.000000   0.000000   0.000000   0.000000
     55       0.000000   0.000000   0.000000   0.000000   0.000000   0.000000
     56       0.000000   0.000000   0.000000   0.000000   0.000000   0.000000
     57       0.000000   0.000000   0.000000   0.000000   0.000000   0.000000
     58       0.000000   0.000000   0.000000   0.000000   0.000000   0.000000
     59       0.000000   0.000000   0.000000   0.000000   0.000000   0.000000
     60       0.000000   0.000000   0.000000   0.000000   0.000000   0.000000
     61       0.000000   0.000000   0.000000   0.000000   0.000000   0.000000
     62       0.000000   0.000000   0.000000   0.000000   0.000000   0.000000
     63       0.000000   0.000000   0.000000   0.000000   0.000000   0.000000
     64       0.000000   0.000000   0.000000   0.000000   0.000000   0.000000
     65       0.000000   0.000000   0.000000   0.000000   0.000000   0.000000
     66       0.000000   0.000000   0.000000   0.000000   0.000000   0.000000
     67       0.000000   0.000000   0.000000   0.000000   0.000000   0.000000
     68       0.000000   0.000000   0.000000   0.000000   0.000000   0.000000
     69       0.000000   0.000000   0.000000   0.000000   0.000000   0.000000
     70       0.000000   0.000000   0.000000   0.000000   0.000000   0.000000
     71       0.000000   0.000000   0.000000   0.000000   0.000000   0.000000
     72       0.000000   0.000000   0.000000   0.000000   0.000000   0.000000
     73       0.000000   0.000000   0.000000   0.000000   0.000000   0.000000
     74       0.000000   0.000000   0.000000   0.000000   0.000000   0.000000
     75       0.000000   0.000000   0.000000   0.000000   0.000000   0.000000
     76       0.000000   0.000000   0.000000   0.000000   0.000000   0.000000
     77       0.000000   0.000000   0.000000   0.000000   0.000000   0.000000
     78       0.000000   0.000000   0.000000   0.000000   0.000000   0.000000
     79       0.000000   0.000000   0.000000   0.000000   0.000000   0.000000
     80       0.000000   0.000000   0.000000   0.000000   0.000000   0.000000
     81       0.000000   0.000000   0.000000   0.000000   0.000000   0.000000
     82       0.000000   0.000000   0.000000   0.000000   0.000000   0.000000
     83       0.000000   0.000000   0.000000   0.000000   0.000000   0.000000
     84       0.000000   0.000000   0.000000   0.000000   0.000000   0.000000
     85       0.000000   0.000000   0.000000   0.000000   0.000000   0.000000
     86       0.000000   0.000000   0.000000   0.000000   0.000000   0.000000
     87       0.000000   0.000000   0.000000   0.000000   0.000000   0.000000
     88       0.000000   0.000000   0.000000   0.000000   0.000000   0.000000
     89       0.000000   0.000000   0.000000   0.000000   0.000000   0.000000
     90       0.000000   0.000000   0.000000   0.000000   0.000000   0.000000
     91       0.000000   0.000000   0.000000   0.000000   0.000000   0.000000
     92       0.000000   0.000000   0.000000   0.000000   0.000000   0.000000
     93       0.000000   0.000000   0.000000   0.000000   0.000000   0.000000
     94       0.000000   0.000000   0.000000   0.000000   0.000000   0.000000
     95       0.000000   0.000000   0.000000   0.000000   0.000000   0.000000
     96       0.000000   0.000000   0.000000   0.000000   0.000000   0.000000
     97       0.000000   0.000000   0.000000   0.000000   0.000000   0.000000
     98       0.000000   0.000000   0.000000   0.000000   0.000000   0.000000
     99       0.000000   0.000000   0.000000   0.000000   0.000000   0.000000
    100       0.000000   0.000000   0.000000   0.000000   0.000000   0.000000
    101       0.000000   0.000000   0.000000   0.000000   0.000000   0.000000
    102       0.000000   0.000000   0.000000   0.000000   0.000000   0.000000
    103       0.000000   0.000000   0.000000   0.000000   0.000000   0.000000
    104       0.000000   0.000000   0.000000   0.000000   0.000000   0.000000
    105       0.000000   0.000000   0.000000   0.000000   0.000000   0.000000
    106       0.000000   0.000000   0.000000   0.000000   0.000000   0.000000
    107       0.000000   0.000000   0.000000   0.000000   0.000000   0.000000
    108       0.000000   0.000000   0.000000   0.000000   0.000000   0.000000
    109       0.000000   0.000000   0.000000   0.000000   0.000000   0.000000
    110       0.000000   0.000000   0.000000   0.000000   0.000000   0.000000
    111       0.000000   0.000000   0.000000   0.000000   0.000000   0.000000
    112       0.000000   0.000000   0.000000   0.000000   0.000000   0.000000
    113       0.000000   0.000000   0.000000   0.000000   0.000000   0.000000
    114       0.000000   0.000000   0.000000   0.000000   0.000000   0.000000
    115       0.000000   0.000000   0.000000   0.000000   0.000000   0.000000
    116       0.000000   0.000000   0.000000   0.000000   0.000000   0.000000
    117       0.000000   0.000000   0.000000   0.000000   0.000000   0.000000
    118       0.000000   0.000000   0.000000   0.000000   0.000000   0.000000
    119       0.000000   0.000000   0.000000   0.000000   0.000000   0.000000
    120       0.000000   0.000000   0.000000   0.000000   0.000000   0.000000
    121       0.000000   0.000000   0.000000   0.000000   0.000000   0.000000
    122       0.000000   0.000000   0.000000   0.000000   0.000000   0.000000
    123       0.000000   0.000000   0.000000   0.000000   0.000000   0.000000
    124       0.000000   0.000000   0.000000   0.000000   0.000000   0.000000
    125       0.000000   0.000000   0.000000   0.000000   0.000000   0.000000
    126       0.000000   0.000000   0.000000   0.000000   0.000000   0.000000
    127       0.000000   0.000000   0.000000   0.000000   0.000000   0.000000
    128       0.000000   0.000000   0.000000   0.000000   0.000000   0.000000
    129       0.000000   0.000000   0.000000   0.000000   0.000000   0.000000
    130       0.000000   0.000000   0.000000   0.000000   0.000000   0.000000
    131       0.000000   0.000000   0.000000   0.000000   0.000000   0.000000
    132       0.000000   0.000000   0.000000   0.000000   0.000000   0.000000
    133       0.000000   0.000000   0.000000   0.000000   0.000000   0.000000
    134       0.000000   0.000000   0.000000   0.000000   0.000000   0.000000
    135       0.000000   0.000000   0.000000   0.000000   0.000000   0.000000
    136       0.000000   0.000000   0.000000   0.000000   0.000000   0.000000
    137       0.000000   0.000000   0.000000   0.000000   0.000000   0.000000
    138       0.000000   0.000000   0.000000   0.000000   0.000000   0.000000
    139       0.000000   0.000000   0.000000   0.000000   0.000000   0.000000
    140       0.000000   0.000000   0.000000   0.000000   0.000000   0.000000
    141       0.000000   0.000000   0.000000   0.000000   0.000000   0.000000
    142       0.000000   0.000000   0.000000   0.000000   0.000000   0.000000
    143       0.000000   0.000000   0.000000   0.000000   0.000000   0.000000
    144       0.000000   0.000000   0.000000   0.000000   0.000000   0.000000
    145       0.000000   0.000000   0.000000   0.000000   0.000000   0.000000
    146       0.000000   0.000000   0.000000   0.000000   0.000000   0.000000
                  6          7          8          9         10         11    
      0       0.037511   0.085508   0.018160  -0.017850   0.056768  -0.002696
      1       0.048518  -0.014688   0.001733  -0.012953  -0.012346  -0.023699
      2      -0.047551  -0.015604  -0.002065  -0.039355   0.051563  -0.008592
      3       0.015826   0.112454   0.041129  -0.016853   0.067454   0.013052
      4       0.010763  -0.000867   0.000626  -0.043562  -0.022216   0.018231
      5      -0.041711  -0.007544   0.009889  -0.024895   0.061823  -0.022563
      6      -0.003117   0.134925   0.060046  -0.017162   0.073697   0.035188
      7      -0.012507  -0.013326  -0.016099  -0.085486  -0.056332   0.110290
      8      -0.017452  -0.019821   0.001910  -0.011896   0.068494  -0.065245
      9      -0.004135   0.131760   0.057281  -0.019725   0.070310   0.041734
     10      -0.007465  -0.035402  -0.032064  -0.101326  -0.078908   0.157639
     11       0.005308  -0.041456  -0.018540  -0.013198   0.064717  -0.093851
     12       0.010029   0.106501   0.034909  -0.022326   0.060519   0.027607
     13      -0.004772  -0.043767  -0.032459  -0.079562  -0.066437   0.116337
     14       0.013021  -0.051477  -0.030666  -0.025607   0.053166  -0.080832
     15       0.027890   0.083907   0.015476  -0.021808   0.053970   0.005926
     16       0.020067  -0.033976  -0.015966  -0.036005  -0.032352   0.028206
     17      -0.006007  -0.039052  -0.022730  -0.039117   0.046589  -0.038638
     18       0.089524   0.059764  -0.009039  -0.019495   0.047678  -0.017678
     19       0.125939  -0.007181   0.017716   0.032723   0.007248  -0.078875
     20      -0.121779   0.001492   0.008353  -0.052508   0.047949   0.014562
     21       0.017385   0.115354   0.043053  -0.015089   0.069836   0.008552
     22       0.024120   0.021217   0.012311  -0.031554  -0.002037  -0.020207
     23      -0.055334   0.005922   0.024889  -0.026188   0.062599   0.000241
     24       0.041940   0.064556  -0.001036  -0.023781   0.047912  -0.004047
     25       0.032009  -0.040990  -0.015700  -0.017990  -0.023776   0.000607
     26      -0.005068  -0.046030  -0.031801  -0.048809   0.039244  -0.030526
     27      -0.015016   0.148390   0.071863  -0.019549   0.074375   0.056991
     28      -0.008850  -0.043929  -0.043800  -0.129628  -0.103892   0.222430
     29       0.013313  -0.050166  -0.024872  -0.004581   0.069624  -0.124206
     30       0.024203   0.054605  -0.011904  -0.021583   0.039971  -0.026702
     31      -0.009410  -0.019361   0.027158   0.032176  -0.018298  -0.112367
     32      -0.033289   0.017982   0.038672  -0.039481   0.059210   0.026791
     33      -0.001847   0.045745  -0.048429  -0.030932   0.062218  -0.008517
     34      -0.010413  -0.008343   0.018395   0.006257   0.000527  -0.107326
     35      -0.024599   0.020589   0.062127  -0.026993   0.040559   0.010487
     36       0.047324   0.026741   0.004337  -0.016044   0.022287  -0.025987
     37      -0.104904  -0.074924   0.057701   0.048348  -0.005451  -0.075125
     38      -0.000228   0.042059   0.029865  -0.038593   0.035582   0.010634
     39       0.003579   0.047128  -0.050087   0.024257   0.045920  -0.047867
     40      -0.007422  -0.007252   0.040881  -0.085374   0.019629  -0.056343
     41      -0.004205   0.025513   0.111745   0.008899   0.003204  -0.042577
     42      -0.003520   0.041291  -0.074477  -0.009774   0.065391  -0.012810
     43      -0.018762  -0.003271  -0.000505   0.047967  -0.002899  -0.133119
     44      -0.015685   0.010889   0.053668  -0.049542   0.047895   0.032648
     45      -0.019664   0.043295  -0.053920  -0.108222   0.090793   0.036699
     46      -0.036681  -0.001812   0.010411  -0.003812   0.011618  -0.104970
     47      -0.055345   0.031359   0.051161  -0.018056   0.048069   0.000024
     48       0.010765   0.053133  -0.019164  -0.015307   0.047938  -0.033466
     49      -0.003437  -0.008280   0.051939  -0.106358   0.015530  -0.051458
     50      -0.001647   0.031760   0.127041  -0.005244   0.008429  -0.034513
     51       0.003648   0.047639  -0.047061   0.099647   0.019184  -0.104283
     52      -0.005330  -0.010480   0.040085  -0.052511   0.003218  -0.083435
     53      -0.001567   0.019506   0.109138   0.037637  -0.014947  -0.068978
     54      -0.134055   0.051164  -0.023107  -0.063985  -0.234848  -0.061743
     55      -0.150043   0.044471   0.032398   0.152430   0.095634  -0.020132
     56       0.175671  -0.038111   0.078267   0.132889   0.098625   0.255216
     57       0.068808   0.054140  -0.031246  -0.023346   0.048038  -0.012924
     58       0.086233   0.016945   0.007459   0.042062   0.012334  -0.093435
     59      -0.092059  -0.023137   0.001330  -0.064081   0.043167   0.029267
     60      -0.124181   0.050322  -0.017321  -0.065662  -0.303473  -0.059357
     61      -0.119879   0.036013   0.028063   0.143770   0.181628  -0.023770
     62       0.140388  -0.031295   0.076287   0.140920   0.098866   0.256159
     63       0.123420  -0.000590   0.012351  -0.033643  -0.343039  -0.048572
     64      -0.012227  -0.025522   0.087317   0.202986  -0.083927   0.018049
     65      -0.093040   0.098315   0.027366   0.068090  -0.241404   0.178545
     66      -0.595615   0.021721   0.007133  -0.023709  -0.244875   0.022349
     67       0.254150   0.009709   0.053542   0.165382  -0.003894  -0.036922
     68       0.041258   0.027964   0.052669   0.101073  -0.053315   0.217908
     69       0.360439  -0.035074   0.027717  -0.022321  -0.365563  -0.061618
     70      -0.131450  -0.026416   0.096654   0.228581  -0.060130   0.064052
     71      -0.229556   0.083304   0.052274   0.124633  -0.201872   0.266711
     72      -0.054817  -0.110813   0.049149   0.042483  -0.036293   0.092653
     73       0.144912  -0.045515   0.028812   0.038892  -0.063563  -0.147732
     74       0.217699   0.088313  -0.026499  -0.027245  -0.161797  -0.013295
     75      -0.103965  -0.166500   0.009889   0.043508   0.032850   0.083082
     76       0.009816  -0.048598   0.020707   0.002020   0.035494  -0.147553
     77       0.154359   0.071794  -0.022679  -0.016285  -0.144677   0.004431
     78      -0.003118   0.040178  -0.099104   0.035104   0.060487  -0.032254
     79      -0.005215   0.001243   0.049369  -0.189354   0.066912   0.028045
     80      -0.000597   0.028195   0.141527   0.025658  -0.016117  -0.073831
     81      -0.003877   0.042041  -0.101664  -0.024954   0.090167   0.023448
     82      -0.005144   0.003864   0.050788  -0.221126   0.082927   0.055391
     83       0.000007   0.032350   0.144871  -0.009737   0.001709  -0.045140
     84      -0.005266   0.034564  -0.130378   0.068916   0.057251  -0.044850
     85      -0.005334   0.000983   0.038705  -0.180126   0.068821   0.024426
     86      -0.002682   0.023546   0.123739   0.046870  -0.020809  -0.081634
     87       0.008919   0.104247   0.032882  -0.024633   0.057919   0.033067
     88      -0.015324  -0.057131  -0.044768  -0.093897  -0.082300   0.150965
     89       0.027957  -0.067674  -0.045776  -0.025121   0.048937  -0.101947
     90      -0.019623   0.154871   0.076127  -0.015441   0.080242   0.045722
     91      -0.025320  -0.004675  -0.016319  -0.103834  -0.063788   0.141433
     92      -0.019951  -0.013128   0.010831  -0.002073   0.075702  -0.074395
     93      -0.003578   0.038705  -0.100487   0.077831   0.041532  -0.072392
     94      -0.002868   0.005905   0.070350  -0.257222   0.089446   0.079001
     95      -0.000500   0.031676   0.184494   0.058397  -0.049724  -0.132780
     96      -0.004881   0.035469  -0.122388   0.073202   0.052987  -0.051572
     97      -0.002550   0.008233   0.064082  -0.295874   0.109435   0.118191
     98       0.000005   0.033137   0.198917   0.069203  -0.060785  -0.153459
     99      -0.004652   0.036936  -0.100542   0.132092   0.016697  -0.125157
    100      -0.003351   0.005040   0.075056  -0.242694   0.081163   0.063180
    101      -0.000866   0.030597   0.193453   0.068494  -0.057372  -0.145815
    102      -0.002180   0.042631  -0.079879   0.056930   0.042397  -0.067560
    103      -0.002785   0.007583   0.085897  -0.279186   0.093451   0.091049
    104       0.000749   0.033819   0.188482   0.059477  -0.052598  -0.139389
    105      -0.031203  -0.132804   0.038147   0.041125   0.003170   0.080103
    106       0.019138  -0.023320  -0.000378   0.040044  -0.024281  -0.089497
    107       0.026536   0.007940  -0.069988  -0.025596  -0.068351  -0.008895
    108       0.018429  -0.108387   0.074632   0.034495  -0.015297   0.072265
    109       0.004087  -0.037871   0.026883   0.029496  -0.051436  -0.096525
    110       0.021667   0.008432  -0.091943  -0.019207  -0.050530  -0.003629
    111      -0.067062  -0.106134   0.020824   0.058812   0.004925   0.122514
    112       0.007342  -0.015796  -0.005163   0.045100  -0.024784  -0.076579
    113       0.015867  -0.027639  -0.046068  -0.041987  -0.095027  -0.033690
    114      -0.023126  -0.198587   0.017828   0.026604   0.019596   0.033862
    115      -0.002104   0.022045  -0.051539   0.070367   0.014079  -0.034403
    116       0.009007  -0.006642  -0.116518  -0.016587  -0.033694  -0.005211
    117      -0.014301  -0.241934   0.051648   0.004513   0.007272  -0.016781
    118       0.000951   0.008705  -0.040492   0.063358   0.010748  -0.050812
    119      -0.002226   0.015225  -0.122084  -0.006755  -0.015350   0.013332
    120      -0.029195  -0.205266  -0.035855   0.038528   0.043309   0.048554
    121      -0.012216   0.022251  -0.062712   0.075161   0.034326  -0.032245
    122       0.015595  -0.004841  -0.096633  -0.021961  -0.049904  -0.009932
    123      -0.019700  -0.193764   0.024759   0.027012   0.016927   0.037299
    124      -0.006208   0.081964  -0.101795   0.102297   0.029795   0.040708
    125       0.003728  -0.047727  -0.177245  -0.014312  -0.008218  -0.020841
    126      -0.023432  -0.154309  -0.008842   0.048268   0.028116   0.088458
    127      -0.007399   0.094509  -0.112530   0.109059   0.033253   0.056760
    128       0.004497  -0.059712  -0.167964  -0.019704  -0.014578  -0.039255
    129      -0.017763  -0.187604   0.075484   0.016298  -0.002000   0.024455
    130      -0.007807   0.087356  -0.089439   0.101811   0.022597   0.038636
    131       0.004219  -0.051937  -0.195648  -0.011488   0.000018  -0.016637
    132      -0.014628  -0.248379   0.009170   0.015099   0.025084  -0.006994
    133      -0.007660   0.113708  -0.151588   0.123873   0.049947   0.093546
    134       0.004125  -0.062876  -0.220418  -0.008336   0.010000  -0.016497
    135      -0.011244  -0.278617   0.026055   0.002142   0.019289  -0.041731
    136      -0.006766   0.105767  -0.147876   0.120612   0.048716   0.084808
    137       0.003904  -0.047369  -0.243855   0.001674   0.019208   0.009524
    138      -0.013551  -0.260115  -0.021215   0.019733   0.038101  -0.005030
    139      -0.007500   0.114602  -0.176365   0.130048   0.060476   0.106686
    140       0.003934  -0.060737  -0.202234  -0.012236   0.002245  -0.023108
    141      -0.015423  -0.243271   0.012372   0.015757   0.023625  -0.003512
    142      -0.011657   0.142488  -0.164556   0.135628   0.054236   0.125287
    143       0.007874  -0.090919  -0.244172  -0.010160   0.020519  -0.032743
    144      -0.039446  -0.138730   0.034663   0.038732   0.007121   0.072297
    145       0.057926  -0.052902   0.022332   0.020362  -0.015930  -0.139183
    146       0.098952   0.063746  -0.031991  -0.026211  -0.102579   0.003508
                 12         13         14         15         16         17    
      0       0.016971  -0.030909   0.017028  -0.018061  -0.004691   0.019049
      1       0.000044  -0.010503   0.010623   0.001205   0.042939  -0.060596
      2      -0.031586   0.037624   0.045952   0.032122  -0.033978  -0.002383
      3      -0.029463   0.055560   0.025746  -0.006530  -0.013572  -0.007462
      4      -0.016084   0.132615   0.011348  -0.185739   0.021611  -0.066579
      5      -0.048598   0.013833   0.050076   0.126624  -0.031924  -0.014808
      6      -0.072991   0.119303   0.030002   0.031847  -0.024326  -0.023330
      7      -0.022905   0.130349   0.000329  -0.198602  -0.016842  -0.021950
      8      -0.016304  -0.029252   0.051441   0.105332  -0.012172  -0.017935
      9      -0.071753   0.098605   0.028501   0.058630  -0.028110  -0.014393
     10      -0.016150  -0.006105  -0.008761  -0.017269  -0.036890   0.035371
     11       0.033428  -0.051541   0.049548  -0.016945   0.001240  -0.014718
     12      -0.027355   0.013409   0.021872   0.050956  -0.020814   0.011312
     13      -0.004187  -0.145137  -0.004760   0.174893  -0.017373   0.040089
     14       0.051980  -0.028786   0.044191  -0.117950  -0.003954  -0.003233
     15       0.016323  -0.051208   0.016588   0.011449  -0.010701   0.026649
     16       0.004373  -0.148578   0.006296   0.176325   0.022477  -0.013205
     17       0.019776   0.016900   0.043399  -0.090893  -0.023360   0.002788
     18       0.062488  -0.080743   0.007943  -0.052774  -0.004809   0.030496
     19       0.006528   0.001369  -0.007278   0.014090   0.082198  -0.072891
     20      -0.062553   0.067448   0.051299   0.047388  -0.053804  -0.004287
     21      -0.031012   0.070571   0.026061  -0.024144  -0.012266  -0.012812
     22      -0.022136   0.240077   0.013521  -0.317037   0.030188  -0.098996
     23      -0.085212   0.027662   0.053262   0.210709  -0.043607  -0.025081
     24       0.049603  -0.113031   0.014462  -0.001907  -0.006685   0.043012
     25       0.015221  -0.246381   0.002212   0.309770   0.033941  -0.012111
     26       0.032715   0.031218   0.043614  -0.163203  -0.026884   0.011239
     27      -0.103950   0.145698   0.031212   0.086331  -0.036063  -0.026217
     28      -0.019868  -0.003437  -0.019079  -0.025197  -0.066303   0.074090
     29       0.056545  -0.084434   0.050820  -0.033395   0.015705  -0.018548
     30       0.061888  -0.069792   0.006752  -0.054483   0.011447   0.046232
     31      -0.019489   0.050136  -0.011162   0.022390   0.145032  -0.029941
     32      -0.084718   0.056787   0.048493   0.068827  -0.046138  -0.042006
     33       0.057267  -0.055378   0.034396  -0.054992   0.001500   0.064521
     34      -0.054200   0.061794  -0.030713   0.035521   0.196882  -0.041389
     35      -0.069633   0.041570   0.037396   0.062315  -0.049148  -0.045789
     36       0.024732  -0.061778  -0.007457  -0.052755   0.015234   0.036394
     37      -0.026299   0.083124   0.038766   0.055627   0.185990  -0.024723
     38      -0.097343   0.026357   0.003304   0.051837  -0.045946  -0.072210
     39       0.048863  -0.049295   0.033030  -0.055440   0.050354   0.054903
     40      -0.011660   0.026705  -0.039432   0.020494   0.128940  -0.008319
     41      -0.003641  -0.009574   0.008514   0.027879  -0.015221  -0.023969
     42       0.038725  -0.037055   0.052504  -0.050014   0.002927   0.060153
     43      -0.090921   0.084061  -0.026670   0.046777   0.252109  -0.064143
     44      -0.050095   0.037054   0.052588   0.054924  -0.108111  -0.025297
     45       0.060737  -0.057782   0.030312  -0.051772  -0.044961   0.079854
     46      -0.074558   0.070227  -0.041570   0.042202   0.226349  -0.047502
     47      -0.104400   0.057094   0.022461   0.072997   0.015177  -0.060724
     48       0.115922  -0.098753   0.034199  -0.087375   0.033150   0.081398
     49       0.001573   0.011126  -0.061883   0.012061   0.099934   0.019255
     50       0.042292  -0.039038   0.029766   0.006757  -0.004609  -0.024271
     51       0.044944  -0.043993   0.026242  -0.057976   0.121245   0.040379
     52      -0.026215   0.035216  -0.059831   0.024290   0.148039  -0.004256
     53      -0.028116   0.003535  -0.025669   0.035654  -0.007120  -0.010949
     54       0.135762   0.067978  -0.230427   0.065206  -0.048777  -0.053989
     55       0.130153  -0.005833  -0.188515  -0.041292  -0.171729  -0.074405
     56       0.127999   0.136057  -0.197953   0.065982   0.043206   0.039988
     57       0.094205  -0.111679  -0.000116  -0.065742  -0.035491   0.022313
     58       0.025027  -0.031170  -0.042596   0.024023   0.036834  -0.109079
     59      -0.056814   0.072871   0.075558   0.029427  -0.036523   0.020461
     60       0.079451   0.044643  -0.061227   0.045573  -0.002149  -0.021540
     61       0.158625   0.007327  -0.290269  -0.024942  -0.185399  -0.091716
     62       0.158569   0.147725  -0.277551   0.071890   0.011396   0.023653
     63       0.077522   0.071130   0.084243   0.080846  -0.090918  -0.042537
     64       0.022512  -0.000951   0.342619  -0.035666  -0.172566  -0.002184
     65      -0.055034  -0.023381   0.080639  -0.061480   0.210210   0.106255
     66       0.112464   0.094739  -0.071980   0.063703   0.050446   0.047948
     67       0.082250  -0.013190   0.056005  -0.031195  -0.237953  -0.092814
     68       0.047308   0.063574  -0.085073   0.004763   0.121735   0.071012
     69       0.074086   0.088188   0.178164   0.104339  -0.168021  -0.071379
     70       0.037924  -0.001077   0.340610  -0.045535  -0.127230   0.032704
     71      -0.024961  -0.018236   0.113265  -0.072853   0.271503   0.164492
     72      -0.078927  -0.083695  -0.037355  -0.029518   0.029369  -0.048954
     73      -0.071577   0.054340   0.015075   0.009296  -0.080872  -0.023281
     74      -0.161519  -0.114713  -0.097531  -0.080217  -0.102537  -0.124559
     75      -0.064742  -0.092849  -0.070684  -0.025750  -0.009807   0.004036
     76      -0.089582   0.110273  -0.078211  -0.014387  -0.004679   0.042136
     77      -0.163608  -0.120863  -0.098339  -0.076009  -0.076739  -0.116568
     78      -0.053281   0.022550   0.036363  -0.002295   0.028070   0.025921
     79       0.040142  -0.006545   0.019783   0.004239   0.055227  -0.010794
     80       0.051517  -0.049487  -0.006864  -0.003840   0.021445  -0.002253
     81      -0.033618   0.010669   0.075219  -0.015856  -0.066966   0.043050
     82       0.052205  -0.014180   0.038747   0.002676   0.033986  -0.016386
[...]
  28:       323.03    0.000000  (  0.000000   0.000000   0.000000)
  29:       353.57    0.000000  (  0.000000   0.000000   0.000000)
  30:       354.57    0.000000  (  0.000000   0.000000   0.000000)
  31:       369.98    0.000000  (  0.000000   0.000000   0.000000)
  32:       388.01    0.000000  (  0.000000   0.000000   0.000000)
  33:       399.07    0.000000  (  0.000000   0.000000   0.000000)
  34:       411.97    0.000000  (  0.000000   0.000000   0.000000)
  35:       430.77    0.000000  (  0.000000   0.000000   0.000000)
  36:       455.45    0.000000  (  0.000000   0.000000   0.000000)
  37:       471.69    0.000000  (  0.000000   0.000000   0.000000)
  38:       491.58    0.000000  (  0.000000   0.000000   0.000000)
  39:       510.63    0.000000  (  0.000000   0.000000   0.000000)
  40:       521.72    0.000000  (  0.000000   0.000000   0.000000)
  41:       588.75    0.000000  (  0.000000   0.000000   0.000000)
  42:       610.94    0.000000  (  0.000000   0.000000   0.000000)
  43:       627.54    0.000000  (  0.000000   0.000000   0.000000)
  44:       675.30    0.000000  (  0.000000   0.000000   0.000000)
  45:       719.46    0.000000  (  0.000000   0.000000   0.000000)
  46:       776.83    0.000000  (  0.000000   0.000000   0.000000)
  47:       781.42    0.000000  (  0.000000   0.000000   0.000000)
  48:       799.16    0.000000  (  0.000000   0.000000   0.000000)
  49:       800.09    0.000000  (  0.000000   0.000000   0.000000)
  50:       832.05    0.000000  (  0.000000   0.000000   0.000000)
  51:       846.44    0.000000  (  0.000000   0.000000   0.000000)
  52:       850.25    0.000000  (  0.000000   0.000000   0.000000)
  53:       860.10    0.000000  (  0.000000   0.000000   0.000000)
  54:       895.93    0.000000  (  0.000000   0.000000   0.000000)
  55:       904.96    0.000000  (  0.000000   0.000000   0.000000)
  56:       933.63    0.000000  (  0.000000   0.000000   0.000000)
  57:       941.16    0.000000  (  0.000000   0.000000   0.000000)
  58:       944.09    0.000000  (  0.000000   0.000000   0.000000)
  59:       953.01    0.000000  (  0.000000   0.000000   0.000000)
  60:       955.03    0.000000  (  0.000000   0.000000   0.000000)
  61:       956.98    0.000000  (  0.000000   0.000000   0.000000)
  62:       959.82    0.000000  (  0.000000   0.000000   0.000000)
  63:       974.75    0.000000  (  0.000000   0.000000   0.000000)
  64:       992.13    0.000000  (  0.000000   0.000000   0.000000)
  65:      1000.44    0.000000  (  0.000000   0.000000   0.000000)
  66:      1025.99    0.000000  (  0.000000   0.000000   0.000000)
  67:      1046.53    0.000000  (  0.000000   0.000000   0.000000)
  68:      1055.12    0.000000  (  0.000000   0.000000   0.000000)
  69:      1059.82    0.000000  (  0.000000   0.000000   0.000000)
  70:      1071.73    0.000000  (  0.000000   0.000000   0.000000)
  71:      1078.83    0.000000  (  0.000000   0.000000   0.000000)
  72:      1085.62    0.000000  (  0.000000   0.000000   0.000000)
  73:      1112.52    0.000000  (  0.000000   0.000000   0.000000)
  74:      1119.34    0.000000  (  0.000000   0.000000   0.000000)
  75:      1123.53    0.000000  (  0.000000   0.000000   0.000000)
  76:      1135.21    0.000000  (  0.000000   0.000000   0.000000)
  77:      1181.39    0.000000  (  0.000000   0.000000   0.000000)
  78:      1186.28    0.000000  (  0.000000   0.000000   0.000000)
  79:      1199.46    0.000000  (  0.000000   0.000000   0.000000)
  80:      1207.82    0.000000  (  0.000000   0.000000   0.000000)
  81:      1211.47    0.000000  (  0.000000   0.000000   0.000000)
  82:      1216.16    0.000000  (  0.000000   0.000000   0.000000)
  83:      1248.95    0.000000  (  0.000000   0.000000   0.000000)
  84:      1253.74    0.000000  (  0.000000   0.000000   0.000000)
  85:      1255.24    0.000000  (  0.000000   0.000000   0.000000)
  86:      1263.27    0.000000  (  0.000000   0.000000   0.000000)
  87:      1279.69    0.000000  (  0.000000   0.000000   0.000000)
  88:      1280.39    0.000000  (  0.000000   0.000000   0.000000)
  89:      1283.50    0.000000  (  0.000000   0.000000   0.000000)
  90:      1286.58    0.000000  (  0.000000   0.000000   0.000000)
  91:      1301.98    0.000000  (  0.000000   0.000000   0.000000)
  92:      1305.59    0.000000  (  0.000000   0.000000   0.000000)
  93:      1309.86    0.000000  (  0.000000   0.000000   0.000000)
  94:      1335.67    0.000000  (  0.000000   0.000000   0.000000)
  95:      1357.01    0.000000  (  0.000000   0.000000   0.000000)
  96:      1368.07    0.000000  (  0.000000   0.000000   0.000000)
  97:      1376.05    0.000000  (  0.000000   0.000000   0.000000)
  98:      1378.92    0.000000  (  0.000000   0.000000   0.000000)
  99:      1404.62    0.000000  (  0.000000   0.000000   0.000000)
 100:      1434.42    0.000000  (  0.000000   0.000000   0.000000)
 101:      1435.33    0.000000  (  0.000000   0.000000   0.000000)
 102:      1435.57    0.000000  (  0.000000   0.000000   0.000000)
 103:      1452.02    0.000000  (  0.000000   0.000000   0.000000)
 104:      1495.64    0.000000  (  0.000000   0.000000   0.000000)
 105:      1507.42    0.000000  (  0.000000   0.000000   0.000000)
 106:      1508.47    0.000000  (  0.000000   0.000000   0.000000)
 107:      1510.24    0.000000  (  0.000000   0.000000   0.000000)
 108:      1511.87    0.000000  (  0.000000   0.000000   0.000000)
 109:      1512.08    0.000000  (  0.000000   0.000000   0.000000)
 110:      1512.80    0.000000  (  0.000000   0.000000   0.000000)
 111:      1513.80    0.000000  (  0.000000   0.000000   0.000000)
 112:      1514.38    0.000000  (  0.000000   0.000000   0.000000)
 113:      1516.62    0.000000  (  0.000000   0.000000   0.000000)
 114:      1522.30    0.000000  (  0.000000   0.000000   0.000000)
 115:      1527.78    0.000000  (  0.000000   0.000000   0.000000)
 116:      1539.21    0.000000  (  0.000000   0.000000   0.000000)
 117:      1581.74    0.000000  (  0.000000   0.000000   0.000000)
 118:      2220.63    0.000000  (  0.000000   0.000000   0.000000)
 119:      2801.50    0.000000  (  0.000000   0.000000   0.000000)
 120:      2820.70    0.000000  (  0.000000   0.000000   0.000000)
 121:      2864.74    0.000000  (  0.000000   0.000000   0.000000)
 122:      2877.19    0.000000  (  0.000000   0.000000   0.000000)
 123:      2878.59    0.000000  (  0.000000   0.000000   0.000000)
 124:      2891.19    0.000000  (  0.000000   0.000000   0.000000)
 125:      2893.43    0.000000  (  0.000000   0.000000   0.000000)
 126:      2898.00    0.000000  (  0.000000   0.000000   0.000000)
 127:      2901.05    0.000000  (  0.000000   0.000000   0.000000)
 128:      2905.10    0.000000  (  0.000000   0.000000   0.000000)
 129:      2907.42    0.000000  (  0.000000   0.000000   0.000000)
 130:      2912.36    0.000000  (  0.000000   0.000000   0.000000)
 131:      2915.07    0.000000  (  0.000000   0.000000   0.000000)
 132:      2917.88    0.000000  (  0.000000   0.000000   0.000000)
 133:      2918.13    0.000000  (  0.000000   0.000000   0.000000)
 134:      2924.10    0.000000  (  0.000000   0.000000   0.000000)
 135:      2930.54    0.000000  (  0.000000   0.000000   0.000000)
 136:      2933.66    0.000000  (  0.000000   0.000000   0.000000)
 137:      2944.02    0.000000  (  0.000000   0.000000   0.000000)
 138:      2992.96    0.000000  (  0.000000   0.000000   0.000000)
 139:      2998.03    0.000000  (  0.000000   0.000000   0.000000)
 140:      3003.25    0.000000  (  0.000000   0.000000   0.000000)
 141:      3009.37    0.000000  (  0.000000   0.000000   0.000000)
 142:      3012.59    0.000000  (  0.000000   0.000000   0.000000)
 143:      3022.17    0.000000  (  0.000000   0.000000   0.000000)
 144:      3303.21    0.000000  (  0.000000   0.000000   0.000000)
 145:      3459.05    0.000000  (  0.000000   0.000000   0.000000)
 146:      3483.37    0.000000  (  0.000000   0.000000   0.000000)

The first frequency considered to be a vibration is 7
The total number of vibrations considered is 140


--------------------------
THERMOCHEMISTRY AT 298.15K
--------------------------

Temperature         ... 298.15 K
Pressure            ... 1.00 atm
Total Mass          ... 270.42 AMU

Throughout the following assumptions are being made:
  (1) The electronic state is orbitally nondegenerate
  (2) There are no thermally accessible electronically excited states
  (3) Hindered rotations indicated by low frequency modes are not
      treated as such but are treated as vibrations and this may
      cause some error
  (4) All equations used are the standard statistical mechanics
      equations for an ideal gas
  (5) All vibrations are strictly harmonic

freq.      47.02  E(vib)   ...       0.53 
freq.      55.64  E(vib)   ...       0.52 
freq.      55.95  E(vib)   ...       0.52 
freq.      65.09  E(vib)   ...       0.50 
freq.      78.03  E(vib)   ...       0.49 
freq.      87.82  E(vib)   ...       0.48 
freq.     101.57  E(vib)   ...       0.46 
freq.     106.55  E(vib)   ...       0.45 
freq.     117.29  E(vib)   ...       0.44 
freq.     130.08  E(vib)   ...       0.43 
freq.     145.58  E(vib)   ...       0.41 
freq.     154.10  E(vib)   ...       0.40 
freq.     170.81  E(vib)   ...       0.38 
freq.     181.32  E(vib)   ...       0.37 
freq.     185.74  E(vib)   ...       0.37 
freq.     193.58  E(vib)   ...       0.36 
freq.     202.28  E(vib)   ...       0.35 
freq.     223.99  E(vib)   ...       0.33 
freq.     251.17  E(vib)   ...       0.30 
freq.     261.42  E(vib)   ...       0.30 
freq.     283.68  E(vib)   ...       0.28 
freq.     323.03  E(vib)   ...       0.25 
freq.     353.57  E(vib)   ...       0.22 
freq.     354.57  E(vib)   ...       0.22 
freq.     369.98  E(vib)   ...       0.21 
freq.     388.01  E(vib)   ...       0.20 
freq.     399.07  E(vib)   ...       0.19 
freq.     411.97  E(vib)   ...       0.19 
freq.     430.77  E(vib)   ...       0.18 
freq.     455.45  E(vib)   ...       0.16 
freq.     471.69  E(vib)   ...       0.15 
freq.     491.58  E(vib)   ...       0.14 
freq.     510.63  E(vib)   ...       0.14 
freq.     521.72  E(vib)   ...       0.13 
freq.     588.75  E(vib)   ...       0.10 
freq.     610.94  E(vib)   ...       0.10 
freq.     627.54  E(vib)   ...       0.09 
freq.     675.30  E(vib)   ...       0.08 
freq.     719.46  E(vib)   ...       0.07 
freq.     776.83  E(vib)   ...       0.05 
freq.     781.42  E(vib)   ...       0.05 
freq.     799.16  E(vib)   ...       0.05 
freq.     800.09  E(vib)   ...       0.05 
freq.     832.05  E(vib)   ...       0.04 
freq.     846.44  E(vib)   ...       0.04 
freq.     850.25  E(vib)   ...       0.04 
freq.     860.10  E(vib)   ...       0.04 
freq.     895.93  E(vib)   ...       0.03 
freq.     904.96  E(vib)   ...       0.03 
freq.     933.63  E(vib)   ...       0.03 
freq.     941.16  E(vib)   ...       0.03 
freq.     944.09  E(vib)   ...       0.03 
freq.     953.01  E(vib)   ...       0.03 
freq.     955.03  E(vib)   ...       0.03 
freq.     956.98  E(vib)   ...       0.03 
freq.     959.82  E(vib)   ...       0.03 
freq.     974.75  E(vib)   ...       0.03 
freq.     992.13  E(vib)   ...       0.02 
freq.    1000.44  E(vib)   ...       0.02 
freq.    1025.99  E(vib)   ...       0.02 
freq.    1046.53  E(vib)   ...       0.02 
freq.    1055.12  E(vib)   ...       0.02 
freq.    1059.82  E(vib)   ...       0.02 
freq.    1071.73  E(vib)   ...       0.02 
freq.    1078.83  E(vib)   ...       0.02 
freq.    1085.62  E(vib)   ...       0.02 
freq.    1112.52  E(vib)   ...       0.01 
freq.    1119.34  E(vib)   ...       0.01 
freq.    1123.53  E(vib)   ...       0.01 
freq.    1135.21  E(vib)   ...       0.01 
freq.    1181.39  E(vib)   ...       0.01 
freq.    1186.28  E(vib)   ...       0.01 
freq.    1199.46  E(vib)   ...       0.01 
freq.    1207.82  E(vib)   ...       0.01 
freq.    1211.47  E(vib)   ...       0.01 
freq.    1216.16  E(vib)   ...       0.01 
freq.    1248.95  E(vib)   ...       0.01 
freq.    1253.74  E(vib)   ...       0.01 
freq.    1255.24  E(vib)   ...       0.01 
freq.    1263.27  E(vib)   ...       0.01 
freq.    1279.69  E(vib)   ...       0.01 
freq.    1280.39  E(vib)   ...       0.01 
freq.    1283.50  E(vib)   ...       0.01 
freq.    1286.58  E(vib)   ...       0.01 
freq.    1301.98  E(vib)   ...       0.01 
freq.    1305.59  E(vib)   ...       0.01 
freq.    1309.86  E(vib)   ...       0.01 
freq.    1335.67  E(vib)   ...       0.01 
freq.    1357.01  E(vib)   ...       0.01 
freq.    1368.07  E(vib)   ...       0.01 
freq.    1376.05  E(vib)   ...       0.01 
freq.    1378.92  E(vib)   ...       0.01 
freq.    1404.62  E(vib)   ...       0.00 
freq.    1434.42  E(vib)   ...       0.00 
freq.    1435.33  E(vib)   ...       0.00 
freq.    1435.57  E(vib)   ...       0.00 
freq.    1452.02  E(vib)   ...       0.00 
freq.    1495.64  E(vib)   ...       0.00 
freq.    1507.42  E(vib)   ...       0.00 
freq.    1508.47  E(vib)   ...       0.00 
freq.    1510.24  E(vib)   ...       0.00 
freq.    1511.87  E(vib)   ...       0.00 
freq.    1512.08  E(vib)   ...       0.00 
freq.    1512.80  E(vib)   ...       0.00 
freq.    1513.80  E(vib)   ...       0.00 
freq.    1514.38  E(vib)   ...       0.00 
freq.    1516.62  E(vib)   ...       0.00 
freq.    1522.30  E(vib)   ...       0.00 
freq.    1527.78  E(vib)   ...       0.00 
freq.    1539.21  E(vib)   ...       0.00 
freq.    1581.74  E(vib)   ...       0.00 
freq.    2220.63  E(vib)   ...       0.00 
freq.    2801.50  E(vib)   ...       0.00 
freq.    2820.70  E(vib)   ...       0.00 
freq.    2864.74  E(vib)   ...       0.00 
freq.    2877.19  E(vib)   ...       0.00 
freq.    2878.59  E(vib)   ...       0.00 
freq.    2891.19  E(vib)   ...       0.00 
freq.    2893.43  E(vib)   ...       0.00 
freq.    2898.00  E(vib)   ...       0.00 
freq.    2901.05  E(vib)   ...       0.00 
freq.    2905.10  E(vib)   ...       0.00 
freq.    2907.42  E(vib)   ...       0.00 
freq.    2912.36  E(vib)   ...       0.00 
freq.    2915.07  E(vib)   ...       0.00 
freq.    2917.88  E(vib)   ...       0.00 
freq.    2918.13  E(vib)   ...       0.00 
freq.    2924.10  E(vib)   ...       0.00 
freq.    2930.54  E(vib)   ...       0.00 
freq.    2933.66  E(vib)   ...       0.00 
freq.    2944.02  E(vib)   ...       0.00 
freq.    2992.96  E(vib)   ...       0.00 
freq.    2998.03  E(vib)   ...       0.00 
freq.    3003.25  E(vib)   ...       0.00 
freq.    3009.37  E(vib)   ...       0.00 
freq.    3012.59  E(vib)   ...       0.00 
freq.    3022.17  E(vib)   ...       0.00 
freq.    3303.21  E(vib)   ...       0.00 
freq.    3459.05  E(vib)   ...       0.00 
freq.    3483.37  E(vib)   ...       0.00 

------------
INNER ENERGY
------------

The inner energy is: U= E(el) + E(ZPE) + E(vib) + E(rot) + E(trans)
    E(el)   - is the total energy from the electronic structure calculation
              = E(kin-el) + E(nuc-el) + E(el-el) + E(nuc-nuc)
    E(ZPE)  - the the zero temperature vibrational energy from the frequency calculation
    E(vib)  - the the finite temperature correction to E(ZPE) due to population
              of excited vibrational states
    E(rot)  - is the rotational thermal energy
    E(trans)- is the translational thermal energy

Summary of contributions to the inner energy U:
Electronic energy                ...    -61.34573569 Eh
Zero point energy                ...      0.41858590 Eh     262.67 kcal/mol
Thermal vibrational correction   ...      0.02008633 Eh      12.60 kcal/mol
Thermal rotational correction    ...      0.00141627 Eh       0.89 kcal/mol
Thermal translational correction ...      0.00141627 Eh       0.89 kcal/mol
-----------------------------------------------------------------------
Total thermal energy                    -60.90423093 Eh


Summary of corrections to the electronic energy:
(perhaps to be used in another calculation)
Total thermal correction                  0.02291887 Eh      14.38 kcal/mol
Non-thermal (ZPE) correction              0.41858590 Eh     262.67 kcal/mol
-----------------------------------------------------------------------
Total correction                          0.44150476 Eh     277.05 kcal/mol


--------
ENTHALPY
--------

The enthalpy is H = U + kB*T
                kB is Boltzmann's constant
Total free energy                 ...    -60.90423093 Eh 
Thermal Enthalpy correction       ...      0.00094421 Eh       0.59 kcal/mol
-----------------------------------------------------------------------
Total Enthalpy                    ...    -60.90328672 Eh


Note: Only C1 symmetry has been detected, increase convergence thresholds 
      if your molecule has a higher symmetry. Symmetry factor of 1.0 is   
      used for the rotational entropy correction. 
 

Note: Rotational entropy computed according to Herzberg 
Infrared and Raman Spectra, Chapter V,1, Van Nostrand Reinhold, 1945 
Point Group:  C1, Symmetry Number:   1  
Rotational constants in cm-1:     0.012621     0.006012     0.005058 

Vibrational entropy computed according to the QRRHO of S. Grimme
Chem.Eur.J. 2012 18 9955


-------
ENTROPY
-------

The entropy contributions are T*S = T*(S(el)+S(vib)+S(rot)+S(trans))
     S(el)   - electronic entropy
     S(vib)  - vibrational entropy
     S(rot)  - rotational entropy
     S(trans)- translational entropy
The entropies will be listed as mutliplied by the temperature to get
units of energy

Electronic entropy                ...      0.00000000 Eh      0.00 kcal/mol
Vibrational entropy               ...      0.03546621 Eh     22.26 kcal/mol
Rotational entropy                ...      0.01648510 Eh     10.34 kcal/mol
Translational entropy             ...      0.02028014 Eh     12.73 kcal/mol
-----------------------------------------------------------------------
Final entropy term                ...      0.07223145 Eh     45.33 kcal/mol

In case the symmetry of your molecule has not been determined correctly
or in case you have a reason to use a different symmetry number we print 
out the resulting rotational entropy values for sn=1,12 :
 --------------------------------------------------------
|  sn= 1 | S(rot)=       0.01648510 Eh     10.34 kcal/mol|
|  sn= 2 | S(rot)=       0.01583064 Eh      9.93 kcal/mol|
|  sn= 3 | S(rot)=       0.01544781 Eh      9.69 kcal/mol|
|  sn= 4 | S(rot)=       0.01517619 Eh      9.52 kcal/mol|
|  sn= 5 | S(rot)=       0.01496550 Eh      9.39 kcal/mol|
|  sn= 6 | S(rot)=       0.01479335 Eh      9.28 kcal/mol|
|  sn= 7 | S(rot)=       0.01464781 Eh      9.19 kcal/mol|
|  sn= 8 | S(rot)=       0.01452173 Eh      9.11 kcal/mol|
|  sn= 9 | S(rot)=       0.01441052 Eh      9.04 kcal/mol|
|  sn=10 | S(rot)=       0.01431104 Eh      8.98 kcal/mol|
|  sn=11 | S(rot)=       0.01422105 Eh      8.92 kcal/mol|
|  sn=12 | S(rot)=       0.01413890 Eh      8.87 kcal/mol|
 --------------------------------------------------------


-------------------
GIBBS FREE ENERGY
-------------------

The Gibbs free energy is G = H - T*S

Total enthalpy                    ...    -60.90328672 Eh 
Total entropy correction          ...     -0.07223145 Eh    -45.33 kcal/mol
-----------------------------------------------------------------------
Final Gibbs free energy         ...    -60.97551817 Eh

For completeness - the Gibbs free energy minus the electronic energy
G-E(el)                           ...      0.37021752 Eh    232.31 kcal/mol


Total Time for Numerical Frequencies  :       230.371 sec
Time for Reference State(s)           :         0.271 sec
Time for Displacements                :       216.618 sec

Timings for individual modules:

Sum of individual times         ...        0.579 sec (=   0.010 min)
XTB module                      ...        0.579 sec (=   0.010 min) 100.0 %
                             ****ORCA TERMINATED NORMALLY****
TOTAL RUN TIME: 0 days 0 hours 3 minutes 52 seconds 278 msec
