
                                 *****************
                                 * O   R   C   A *
                                 *****************

           --- An Ab Initio, DFT and Semiempirical electronic structure package ---

                  #######################################################
                  #                        -***-                        #
                  #          Department of theory and spectroscopy      #
                  #               Directorship: Frank Neese             #
                  #        Max Planck Institute fuer Kohlenforschung    #
                  #                Kaiser Wilhelm Platz 1               #
                  #                 D-45470 Muelheim/Ruhr               #
                  #                      Germany                        #
                  #                                                     #
                  #                  All rights reserved                #
                  #                        -***-                        #
                  #######################################################


                         Program Version 4.2.1 -  RELEASE  -


 With contributions from (in alphabetic order):
   Daniel Aravena         : Magnetic Suceptibility
   Michael Atanasov       : Ab Initio Ligand Field Theory (pilot matlab implementation)
   Alexander A. Auer      : GIAO ZORA, VPT2
   Ute Becker             : Parallelization
   Giovanni Bistoni       : ED, misc. LED, open-shell LED, HFLD
   Martin Brehm           : Molecular dynamics
   Dmytro Bykov           : SCF Hessian
   Vijay G. Chilkuri      : MRCI spin determinant printing, contributions to CSF-ICE
   Dipayan Datta          : RHF DLPNO-CCSD density
   Achintya Kumar Dutta   : EOM-CC, STEOM-CC
   Dmitry Ganyushin       : Spin-Orbit,Spin-Spin,Magnetic field MRCI
   Miquel Garcia          : C-PCM Hessian, Gaussian charge scheme
   Yang Guo               : DLPNO-NEVPT2, CIM, IAO-localization
   Andreas Hansen         : Spin unrestricted coupled pair/coupled cluster methods
   Benjamin Helmich-Paris : CASSCF linear response (MC-RPA)
   Lee Huntington         : MR-EOM, pCC
   Robert Izsak           : Overlap fitted RIJCOSX, COSX-SCS-MP3, EOM
   Christian Kollmar      : KDIIS, OOCD, Brueckner-CCSD(T), CCSD density
   Simone Kossmann        : Meta GGA functionals, TD-DFT gradient, OOMP2, MP2 Hessian
   Martin Krupicka        : AUTO-CI
   Lucas Lang             : DCDCAS
   Dagmar Lenk            : GEPOL surface, SMD
   Dimitrios Liakos       : Extrapolation schemes; Compound Job, initial MDCI parallelization
   Dimitrios Manganas     : Further ROCIS development; embedding schemes
   Dimitrios Pantazis     : SARC Basis sets
   Taras Petrenko         : DFT Hessian,TD-DFT gradient, ASA, ECA, R-Raman, ABS, FL, XAS/XES, NRVS
   Peter Pinski           : DLPNO-MP2, DLPNO-MP2 Gradient
   Christoph Reimann      : Effective Core Potentials
   Marius Retegan         : Local ZFS, SOC
   Christoph Riplinger    : Optimizer, TS searches, QM/MM, DLPNO-CCSD(T), (RO)-DLPNO pert. Triples
   Tobias Risthaus        : Range-separated hybrids, TD-DFT gradient, RPA, STAB
   Michael Roemelt        : Original ROCIS implementation
   Masaaki Saitow         : Open-shell DLPNO-CCSD energy and density
   Barbara Sandhoefer     : DKH picture change effects
   Avijit Sen             : IP-ROCIS
   Kantharuban Sivalingam : CASSCF convergence, NEVPT2, FIC-MRCI
   Bernardo de Souza      : ESD, SOC TD-DFT
   Georgi Stoychev        : AutoAux, RI-MP2 NMR
   Willem Van den Heuvel  : Paramagnetic NMR
   Boris Wezisla          : Elementary symmetry handling
   Frank Wennmohs         : Technical directorship


 We gratefully acknowledge several colleagues who have allowed us to
 interface, adapt or use parts of their codes:
   Stefan Grimme, W. Hujo, H. Kruse,             : VdW corrections, initial TS optimization,
                  C. Bannwarth                     DFT functionals, gCP, sTDA/sTD-DF
   Ed Valeev, F. Pavosevic, A. Kumar             : LibInt (2-el integral package), F12 methods
   Garnet Chan, S. Sharma, J. Yang, R. Olivares  : DMRG
   Ulf Ekstrom                                   : XCFun DFT Library
   Mihaly Kallay                                 : mrcc  (arbitrary order and MRCC methods)
   Andreas Klamt, Michael Diedenhofen            : otool_cosmo (COSMO solvation model)
   Jiri Pittner, Ondrej Demel                    : Mk-CCSD
   Frank Weinhold                                : gennbo (NPA and NBO analysis)
   Christopher J. Cramer and Donald G. Truhlar   : smd solvation model
   Lars Goerigk                                  : TD-DFT with DH, B97 family of functionals
   V. Asgeirsson, H. Jonsson                     : NEB implementation
   FAccTs GmbH                                   : IRC, NEB, NEB-TS, Multilevel, MM, QM/MM, CI optimization
   S Lehtola, MJT Oliveira, MAL Marques          : LibXC Library


 Your calculation uses the libint2 library for the computation of 2-el integrals
 For citations please refer to: http://libint.valeyev.net

 Your ORCA version has been built with support for libXC version: 4.2.3
 For citations please refer to: https://tddft.org/programs/libxc/

 This ORCA versions uses:
   CBLAS   interface :  Fast vector & matrix operations
   LAPACKE interface :  Fast linear algebra routines
   SCALAPACK package :  Parallel linear algebra routines




***************************************
The coordinates will be read from file: init.xyz
***************************************


Your calculation utilizes the geometrical counterpoise correction gCP
Please cite in your paper:
H.Kruse, S. Grimme J.Chem.Phys., 136, (2012), 154101 
   

Your calculation utilizes the atom-pairwise dispersion correction
based on tight binding partial charges (D4)
Cite in your paper:
E.Caldeweyher, C.Bannwarth, S.Grimme, J.Chem.Phys., (2017), 147, 034112.
E.Caldeweyher, S.Ehlert, A.Hansen, H.Neugebauer, S.Grimme, J.Chem.Phys., (2018), in progress.
   

----- Orbital basis set information -----
Your calculation utilizes the basis: 6-311G(3df,3pd)
   H, Li - Ne  : R. Krishnan, J. S. Binkley, R. Seeger and J. A. Pople, J. Chem. Phys. 72, 650 (1980).
   Na - Ar     : A. D. McLean and G. S. Chandler J. Chem. Phys. 72, 5639, (1980).
   K  - Ca     : J.-P. Blaudeau, M. P. McGrath, L. A. Curtiss and L. Radom, J. Chem. Phys. 107, 5016 (1997).
   Ga - Kr     : L. A. Curtiss, M. P. McGrath, J.-P. Blandeau, N. E. Davis, R. C. Binning and L. Radom, J. Chem. Phys. 103, 6104 (1995).
   Pol./Diff.
   H, Li - Cl  : T. Clark, J. Chandrasekhar and P. v. R. Schleyer, J. Comp. Chem. 4, 294 (1983).
   H - Ne      : M. J. Frisch, J. A. Pople and J. S. Binkley, J. Chem. Phys. 80, 3265 (1984).

----- AuxJ basis set information -----
Your calculation utilizes the auxiliary basis: def2/J
   F. Weigend, Phys. Chem. Chem. Phys. 8, 1057 (2006).

================================================================================
                                        WARNINGS
                       Please study these warnings very carefully!
================================================================================


WARNING: Geometry Optimization
  ===> : Switching off AutoStart
         For restart on a previous wavefunction, please use MOREAD

INFO   : the flag for use of LIBINT has been found!

================================================================================
                                       INPUT FILE
================================================================================
NAME = NH3.inp
|  1> ! BP86 D4 gCP(DFT/TZ) 6-311G(3df,3pd) Opt Freq TightOpt TightSCF Grid4 FinalGrid5 PrintBasis PrintMOs NBO
|  2> 
|  3> %pal
|  4>  nprocs 12
|  5> end
|  6> 
|  7> *xyzfile 0 1 init.xyz
|  8> 
|  9>                          ****END OF INPUT****
================================================================================

                       *****************************
                       * Geometry Optimization Run *
                       *****************************

Geometry optimization settings:
Update method            Update   .... BFGS
Choice of coordinates    CoordSys .... Z-matrix Internals
Initial Hessian          InHess   .... Almoef's Model

Convergence Tolerances:
Energy Change            TolE     ....  1.0000e-06 Eh
Max. Gradient            TolMAXG  ....  1.0000e-04 Eh/bohr
RMS Gradient             TolRMSG  ....  3.0000e-05 Eh/bohr
Max. Displacement        TolMAXD  ....  1.0000e-03 bohr
RMS Displacement         TolRMSD  ....  6.0000e-04 bohr
Strict Convergence                ....  False
------------------------------------------------------------------------------
                        ORCA OPTIMIZATION COORDINATE SETUP
------------------------------------------------------------------------------

The optimization will be done in new redundant internal coordinates
Making redundant internal coordinates   ...  (new redundants) done
Evaluating the initial hessian          ...  (Almloef) done
Evaluating the coordinates              ...  done
Calculating the B-matrix                .... done
Calculating the G-matrix                .... done
Diagonalizing the G-matrix              .... done
The first mode is                       ....    1
The number of degrees of freedom        ....    6

    -----------------------------------------------------------------
                    Redundant Internal Coordinates


    -----------------------------------------------------------------
         Definition                    Initial Value    Approx d2E/dq
    -----------------------------------------------------------------
      1. B(H   1,N   0)                  1.0231         0.412327   
      2. B(H   2,N   0)                  1.0231         0.412331   
      3. B(H   3,N   0)                  1.0231         0.412328   
      4. A(H   1,N   0,H   3)          106.6059         0.298629   
      5. A(H   2,N   0,H   3)          106.6091         0.298629   
      6. A(H   1,N   0,H   2)          106.6057         0.298629   
      7. I(H   1,H   3,H   2,N   0)    -61.4286         0.003695   
    -----------------------------------------------------------------

Number of atoms                         .... 4
Number of degrees of freedom            .... 7

         *************************************************************
         *                GEOMETRY OPTIMIZATION CYCLE   1            *
         *************************************************************
---------------------------------
CARTESIAN COORDINATES (ANGSTROEM)
---------------------------------
  N     -2.446414   -2.768264    0.015150
  H     -1.424443   -2.811571   -0.007254
  H     -2.764064   -3.609170    0.503792
  H     -2.764069   -2.855325   -0.953517

----------------------------
CARTESIAN COORDINATES (A.U.)
----------------------------
  NO LB      ZA    FRAG     MASS         X           Y           Z
   0 N     7.0000    0    14.007   -4.623052   -5.231260    0.028629
   1 H     1.0000    0     1.008   -2.691808   -5.313100   -0.013708
   2 H     1.0000    0     1.008   -5.223323   -6.820343    0.952029
   3 H     1.0000    0     1.008   -5.223334   -5.395782   -1.801887

--------------------------------
INTERNAL COORDINATES (ANGSTROEM)
--------------------------------
 N      0   0   0     0.000000000000     0.00000000     0.00000000
 H      1   0   0     1.023133070030     0.00000000     0.00000000
 H      1   2   0     1.023130595969   106.60571120     0.00000000
 H      1   2   3     1.023132664861   106.60590465   246.40930292

---------------------------
INTERNAL COORDINATES (A.U.)
---------------------------
 N      0   0   0     0.000000000000     0.00000000     0.00000000
 H      1   0   0     1.933441300914     0.00000000     0.00000000
 H      1   2   0     1.933436625617   106.60571120     0.00000000
 H      1   2   3     1.933440535256   106.60590465   246.40930292

---------------------
BASIS SET INFORMATION
---------------------
There are 2 groups of distinct atoms

 Group   1 Type N   : 11s5p3d1f contracted to 4s3p3d1f pattern {6311/311/111/1}
 Group   2 Type H   : 5s3p1d contracted to 3s3p1d pattern {311/111/1}

Atom   0N    basis set group =>   1
Atom   1H    basis set group =>   2
Atom   2H    basis set group =>   2
Atom   3H    basis set group =>   2

-------------------------
BASIS SET IN INPUT FORMAT
-------------------------

 # Basis set for element : H 
 NewGTO H 
 S 3 
   1      33.8650000000      0.0254938145
   2       5.0947900000      0.1903731086
   3       1.1587900000      0.8521614860
 S 1 
   1       0.3258400000      1.0000000000
 S 1 
   1       0.1027410000      1.0000000000
 P 1 
   1       3.0000000000      1.0000000000
 P 1 
   1       0.7500000000      1.0000000000
 P 1 
   1       0.1875000000      1.0000000000
 D 1 
   1       1.0000000000      1.0000000000
  end;

 # Basis set for element : N 
 NewGTO N 
 S 6 
   1    6293.4800000000      0.0019697881
   2     949.0440000000      0.0149612859
   3     218.7760000000      0.0735005308
   4      63.6916000000      0.2489367658
   5      18.8282000000      0.6024594331
   6       2.7202300000      0.2562017589
 S 3 
   1      30.6331000000      0.1119060795
   2       7.0261400000      0.9216666549
   3       2.1120500000     -0.0025691918
 P 3 
   1      30.6331000000      0.0383119186
   2       7.0261400000      0.2374031155
   3       2.1120500000      0.8175923978
 S 1 
   1       0.6840090000      1.0000000000
 P 1 
   1       0.6840090000      1.0000000000
 S 1 
   1       0.2008780000      1.0000000000
 P 1 
   1       0.2008780000      1.0000000000
 D 1 
   1       3.6520000000      1.0000000000
 D 1 
   1       0.9130000000      1.0000000000
 D 1 
   1       0.2282500000      1.0000000000
 F 1 
   1       1.0000000000      1.0000000000
  end;

---------------------------------
AUXILIARY/J BASIS SET INFORMATION
---------------------------------
There are 2 groups of distinct atoms

 Group   1 Type N   : 12s5p4d2f1g contracted to 6s4p3d1f1g pattern {711111/2111/211/2/1}
 Group   2 Type H   : 5s2p1d contracted to 3s1p1d pattern {311/2/1}

Atom   0N    basis set group =>   1
Atom   1H    basis set group =>   2
Atom   2H    basis set group =>   2
Atom   3H    basis set group =>   2

-------------------------------------
AUXILIARY/J BASIS SET IN INPUT FORMAT
-------------------------------------

 # Auxiliary/J basis set for element : H 
 NewAuxJGTO H 
 S 3 
   1      15.6752927000      0.1007184237
   2       3.6063578000      0.3404257499
   3       1.2080016000      0.6491996172
 S 1 
   1       0.4726794000      1.0000000000
 S 1 
   1       0.2018100000      1.0000000000
 P 2 
   1       2.0281365000      0.5596620919
   2       0.5358730000      0.5596620919
 D 1 
   1       2.2165124000      1.0000000000
  end;

 # Auxiliary/J basis set for element : N 
 NewAuxJGTO N 
 S 7 
   1    2542.9401785000      0.0128431329
   2    1029.5472946000      0.0206655120
   3     424.9053546000      0.0652200677
   4     178.4573708000      0.1617388940
   5      76.1362742000      0.3094256941
   6      32.9338653000      0.3918849307
   7      14.4155436000      0.1822470660
 S 1 
   1       6.3718891000     -1.0000000000
 S 1 
   1       2.8381742000      1.0000000000
 S 1 
   1       1.2711793000      1.0000000000
 S 1 
   1       0.5712407000      1.0000000000
 S 1 
   1       0.2569887000      1.0000000000
 P 2 
   1      17.8975990000     -1.0974070137
   2       6.5346319000      0.1380055963
 P 1 
   1       2.3523645000      1.0000000000
 P 1 
   1       0.8397377000      1.0000000000
 P 1 
   1       0.2989335000      1.0000000000
 D 2 
   1       7.6909870000      0.1770780943
   2       2.3044972000      0.8918319220
 D 1 
   1       0.8403987000      1.0000000000
 D 1 
   1       0.3303797000      1.0000000000
 F 2 
   1       2.3331076000      0.6223178877
   2       0.8446137000      0.5036714203
 G 1 
   1       1.4037700000     -1.0000000000
  end;



           ************************************************************
           *        Program running with 12 parallel MPI-processes    *
           *              working on a common directory               *
           ************************************************************
------------------------------------------------------------------------------
                           ORCA GTO INTEGRAL CALCULATION
                           -- RI-GTO INTEGRALS CHOSEN --
------------------------------------------------------------------------------

                         BASIS SET STATISTICS AND STARTUP INFO

Gaussian basis set:
 # of primitive gaussian shells          ...   47
 # of primitive gaussian functions       ...  105
 # of contracted shells                  ...   32
 # of contracted basis functions         ...   86
 Highest angular momentum                ...    3
 Maximum contraction depth               ...    6
Auxiliary gaussian basis set:
 # of primitive gaussian shells          ...   48
 # of primitive gaussian functions       ...  118
 # of contracted shells                  ...   30
 # of contracted aux-basis functions     ...   82
 Highest angular momentum                ...    4
 Maximum contraction depth               ...    7
Ratio of auxiliary to basis functions    ...  0.95
Integral package used                  ... LIBINT
 One Electron integrals                  ... done
 Ordering auxiliary basis shells         ... done
 Integral threshhold             Thresh  ...  2.500e-11
 Primitive cut-off               TCut    ...  2.500e-12
 Pre-screening matrix                    ... done
 Shell pair data                         ... 
 Ordering of the shell pairs             ... done (   0.000 sec) 528 of 528 pairs
 Determination of significant pairs      ... done (   0.000 sec)
 Creation of shell pair data             ... done (   0.000 sec)
 Storage of shell pair data              ... done (   0.025 sec)
 Shell pair data done in (   0.025 sec)
 Computing two index integrals           ... done
 Cholesky decomposition of the V-matrix  ... done


Timings:
 Total evaluation time                   ...   0.214 sec (  0.004 min)
 One electron matrix time                ...   0.025 sec (  0.000 min) = 11.8%
 Schwartz matrix evaluation time         ...   0.136 sec (  0.002 min) = 63.7%
 Two index repulsion integral time       ...   0.005 sec (  0.000 min) =  2.5%
 Cholesky decomposition of V             ...   0.004 sec (  0.000 min) =  1.7%
 Three index repulsion integral time     ...   0.000 sec (  0.000 min) =  0.0%



           ************************************************************
           *        Program running with 12 parallel MPI-processes    *
           *              working on a common directory               *
           ************************************************************
-------------------------------------------------------------------------------
                                 ORCA SCF
-------------------------------------------------------------------------------

------------
SCF SETTINGS
------------
Hamiltonian:
 Density Functional     Method          .... DFT(GTOs)
 Exchange Functional    Exchange        .... B88
   X-Alpha parameter    XAlpha          ....  0.666667
   Becke's b parameter  XBeta           ....  0.004200
 Correlation Functional Correlation     .... P86
 LDA part of GGA corr.  LDAOpt          .... PW91-LDA
 Gradients option       PostSCFGGA      .... off
   Density functional embedding theory  .... OFF
 RI-approximation to the Coulomb term is turned on
   Number of auxiliary basis functions  .... 82


General Settings:
 Integral files         IntName         .... NH3
 Hartree-Fock type      HFTyp           .... RHF
 Total Charge           Charge          ....    0
 Multiplicity           Mult            ....    1
 Number of Electrons    NEL             ....   10
 Basis Dimension        Dim             ....   86
 Nuclear Repulsion      ENuc            ....     11.8290556944 Eh

Convergence Acceleration:
 DIIS                   CNVDIIS         .... on
   Start iteration      DIISMaxIt       ....    12
   Startup error        DIISStart       ....  0.200000
   # of expansion vecs  DIISMaxEq       ....     5
   Bias factor          DIISBfac        ....   1.050
   Max. coefficient     DIISMaxC        ....  10.000
 Newton-Raphson         CNVNR           .... off
 SOSCF                  CNVSOSCF        .... on
   Start iteration      SOSCFMaxIt      ....   150
   Startup grad/error   SOSCFStart      ....  0.003300
 Level Shifting         CNVShift        .... on
   Level shift para.    LevelShift      ....    0.2500
   Turn off err/grad.   ShiftErr        ....    0.0010
 Zerner damping         CNVZerner       .... off
 Static damping         CNVDamp         .... on
   Fraction old density DampFac         ....    0.7000
   Max. Damping (<1)    DampMax         ....    0.9800
   Min. Damping (>=0)   DampMin         ....    0.0000
   Turn off err/grad.   DampErr         ....    0.1000
 Fernandez-Rico         CNVRico         .... off

SCF Procedure:
 Maximum # iterations   MaxIter         ....   125
 SCF integral mode      SCFMode         .... Direct
   Integral package                     .... LIBINT
 Reset frequency        DirectResetFreq ....    20
 Integral Threshold     Thresh          ....  2.500e-11 Eh
 Primitive CutOff       TCut            ....  2.500e-12 Eh

Convergence Tolerance:
 Convergence Check Mode ConvCheckMode   .... Total+1el-Energy
 Convergence forced     ConvForced      .... 0
 Energy Change          TolE            ....  1.000e-08 Eh
 1-El. energy change                    ....  1.000e-05 Eh
 Orbital Gradient       TolG            ....  1.000e-05
 Orbital Rotation angle TolX            ....  1.000e-05
 DIIS Error             TolErr          ....  5.000e-07


Diagonalization of the overlap matrix:
Smallest eigenvalue                        ... 1.243e-03
Time for diagonalization                   ...    0.002 sec
Threshold for overlap eigenvalues          ... 1.000e-08
Number of eigenvalues below threshold      ... 0
Time for construction of square roots      ...    0.010 sec
Total time needed                          ...    0.013 sec

-------------------
DFT GRID GENERATION
-------------------

General Integration Accuracy     IntAcc      ...  4.670
Radial Grid Type                 RadialGrid  ... Gauss-Chebyshev
Angular Grid (max. acc.)         AngularGrid ... Lebedev-302
Angular grid pruning method      GridPruning ... 3 (G Style)
Weight generation scheme         WeightScheme... Becke
Basis function cutoff            BFCut       ...    1.0000e-11
Integration weight cutoff        WCut        ...    1.0000e-14
Grids for H and He will be reduced by one unit

# of grid points (after initial pruning)     ...  16394 (   0.0 sec)
# of grid points (after weights+screening)   ...  16134 (   0.0 sec)
nearest neighbour list constructed           ...    0.0 sec
Grid point re-assignment to atoms done       ...    0.0 sec
Grid point division into batches done        ...    0.1 sec
Reduced shell lists constructed in    0.1 sec

Total number of grid points                  ...    16134
Total number of batches                      ...      255
Average number of points per batch           ...       63
Average number of grid points per atom       ...     4034
Average number of shells per batch           ...    26.48 (82.74%)
Average number of basis functions per batch  ...    70.30 (81.75%)
Average number of large shells per batch     ...    24.35 (91.95%)
Average number of large basis fcns per batch ...    65.39 (93.01%)
Maximum spatial batch extension              ...  12.33, 11.10, 13.13 au
Average spatial batch extension              ...   0.29,  0.28,  0.27 au

Time for grid setup =    0.217 sec

------------------------------
INITIAL GUESS: MODEL POTENTIAL
------------------------------
Loading Hartree-Fock densities                     ... done
Calculating cut-offs                               ... done
Setting up the integral package                    ... done
Initializing the effective Hamiltonian             ... done
Starting the Coulomb interaction                   ... done (   0.0 sec)
Reading the grid                                   ... done
Mapping shells                                     ... done
Starting the XC term evaluation                    ... done (   0.0 sec)
  promolecular density results
     # of electrons  =      9.998530264
     EX              =     -7.443859400
     EC              =     -0.337065937
     EX+EC           =     -7.780925337
Transforming the Hamiltonian                       ... done (   0.0 sec)
Diagonalizing the Hamiltonian                      ... done (   0.0 sec)
Back transforming the eigenvectors                 ... done (   0.0 sec)
Now organizing SCF variables                       ... done
                      ------------------
                      INITIAL GUESS DONE (   0.4 sec)
                      ------------------
--------------
SCF ITERATIONS
--------------
ITER       Energy         Delta-E        Max-DP      RMS-DP      [F,P]     Damp
               ***  Starting incremental Fock matrix formation  ***
  0    -56.4667113473   0.000000000000 0.08862275  0.00248004  0.3413978 0.7000
  1    -56.5283195343  -0.061608186997 0.03873836  0.00152703  0.1221487 0.7000
                               ***Turning on DIIS***
  2    -56.5447968231  -0.016477288819 0.04374400  0.00168209  0.0123895 0.0000
  3    -56.5756311068  -0.030834283649 0.02507441  0.00089676  0.0812814 0.0000
  4    -56.5824227396  -0.006791632840 0.00753930  0.00032883  0.0211390 0.0000
  5    -56.5829670686  -0.000544328973 0.00201102  0.00010307  0.0048567 0.0000
                      *** Initiating the SOSCF procedure ***
                           *** Shutting down DIIS ***
                      *** Re-Reading the Fockian *** 
                      *** Removing any level shift *** 
ITER      Energy       Delta-E        Grad      Rot      Max-DP    RMS-DP
  6    -56.58300415  -0.0000370849  0.000429  0.000429  0.000809  0.000031
               *** Restarting incremental Fock matrix formation ***
  7    -56.58300739  -0.0000032344  0.000229  0.000940  0.000536  0.000024
  8    -56.58300752  -0.0000001316  0.000192  0.000142  0.000361  0.000012
  9    -56.58300788  -0.0000003585  0.000044  0.000239  0.000171  0.000007
 10    -56.58300791  -0.0000000362  0.000014  0.000054  0.000034  0.000001
                  ***Gradient check signals convergence***
              ***Rediagonalizing the Fockian in SOSCF/NRSCF***

               *****************************************************
               *                     SUCCESS                       *
               *           SCF CONVERGED AFTER  11 CYCLES          *
               *****************************************************

Setting up the final grid:

General Integration Accuracy     IntAcc      ...  5.010
Radial Grid Type                 RadialGrid  ... Gauss-Chebyshev
Angular Grid (max. acc.)         AngularGrid ... Lebedev-434
Angular grid pruning method      GridPruning ... 3 (G Style)
Weight generation scheme         WeightScheme... Becke
Basis function cutoff            BFCut       ...    1.0000e-11
Integration weight cutoff        WCut        ...    1.0000e-14
Grids for H and He will be reduced by one unit

# of grid points (after initial pruning)     ...  30666 (   0.0 sec)
# of grid points (after weights+screening)   ...  30116 (   0.0 sec)
nearest neighbour list constructed           ...    0.0 sec
Grid point re-assignment to atoms done       ...    0.0 sec
Grid point division into batches done        ...    0.3 sec
Reduced shell lists constructed in    0.3 sec

Total number of grid points                  ...    30116
Total number of batches                      ...      472
Average number of points per batch           ...       63
Average number of grid points per atom       ...     7529
Average number of shells per batch           ...    25.73 (80.41%)
Average number of basis functions per batch  ...    68.66 (79.84%)
Average number of large shells per batch     ...    23.78 (92.42%)
Average number of large basis fcns per batch ...    63.34 (92.26%)
Maximum spatial batch extension              ...  13.82, 12.80, 13.82 au
Average spatial batch extension              ...   0.22,  0.24,  0.24 au

Final grid set up in    0.5 sec
Final integration                            ... done (   0.1 sec)
Change in XC energy                          ...    -0.000013318
Integrated number of electrons               ...     9.999999094
Previous integrated no of electrons          ...     9.999974063

----------------
TOTAL SCF ENERGY
----------------

Total Energy       :          -56.58302123 Eh           -1539.70228 eV

Components:
Nuclear Repulsion  :           11.82905569 Eh             321.88497 eV
Electronic Energy  :          -68.41207693 Eh           -1861.58725 eV
One Electron Energy:          -99.50169514 Eh           -2707.57878 eV
Two Electron Energy:           31.08961821 Eh             845.99152 eV

Virial components:
Potential Energy   :         -112.94365083 Eh           -3073.35299 eV
Kinetic Energy     :           56.36062960 Eh            1533.65070 eV
Virial Ratio       :            2.00394587


DFT components:
N(Alpha)           :        4.999999547064 electrons
N(Beta)            :        4.999999547064 electrons
N(Total)           :        9.999999094129 electrons
E(X)               :       -7.682249831660 Eh       
E(C)               :       -0.344696679500 Eh       
E(XC)              :       -8.026946511161 Eh       
DFET-embed. en.    :        0.000000000000 Eh       

---------------
SCF CONVERGENCE
---------------

  Last Energy change         ...   -1.9097e-09  Tolerance :   1.0000e-08
  Last MAX-Density change    ...    1.2986e-06  Tolerance :   1.0000e-07
  Last RMS-Density change    ...    4.8144e-08  Tolerance :   5.0000e-09
  Last Orbital Gradient      ...    1.3402e-06  Tolerance :   1.0000e-05
  Last Orbital Rotation      ...    1.5895e-06  Tolerance :   1.0000e-05

             **** THE GBW FILE WAS UPDATED (NH3.gbw) ****
             **** DENSITY FILE WAS UPDATED (NH3.scfp) ****
             **** ENERGY FILE WAS UPDATED (NH3.en.tmp) ****
             **** THE GBW FILE WAS UPDATED (NH3.gbw) ****
             **** DENSITY FILE WAS UPDATED (NH3.scfp) ****
----------------
ORBITAL ENERGIES
----------------

  NO   OCC          E(Eh)            E(eV) 
   0   2.0000     -13.969574      -380.1314 
   1   2.0000      -0.771968       -21.0063 
   2   2.0000      -0.410204       -11.1622 
   3   2.0000      -0.410195       -11.1620 
   4   2.0000      -0.221653        -6.0315 
   5   0.0000       0.021824         0.5939 
   6   0.0000       0.095193         2.5903 
   7   0.0000       0.095202         2.5906 
   8   0.0000       0.201710         5.4888 
   9   0.0000       0.201725         5.4892 
  10   0.0000       0.260628         7.0920 
  11   0.0000       0.289042         7.8652 
  12   0.0000       0.289058         7.8657 
  13   0.0000       0.325084         8.8460 
  14   0.0000       0.477329        12.9888 
  15   0.0000       0.477350        12.9893 
  16   0.0000       0.510554        13.8929 
  17   0.0000       0.598380        16.2827 
  18   0.0000       0.632965        17.2238 
  19   0.0000       0.647389        17.6163 
  20   0.0000       0.647403        17.6167 
  21   0.0000       0.722383        19.6570 
  22   0.0000       0.722398        19.6574 
  23   0.0000       0.850437        23.1416 
  24   0.0000       0.850456        23.1421 
  25   0.0000       0.867173        23.5970 
  26   0.0000       0.886462        24.1219 
  27   0.0000       0.886551        24.1243 
  28   0.0000       1.106049        30.0971 
  29   0.0000       1.717813        46.7441 
  30   0.0000       1.717863        46.7454 
  31   0.0000       1.761441        47.9312 
  32   0.0000       1.761833        47.9419 
  33   0.0000       1.868456        50.8433 
  34   0.0000       1.868501        50.8445 
  35   0.0000       2.026021        55.1308 
  36   0.0000       2.026027        55.1310 
  37   0.0000       2.182040        59.3763 
  38   0.0000       2.397758        65.2463 
  39   0.0000       2.475676        67.3666 
  40   0.0000       2.475679        67.3667 
  41   0.0000       2.754242        74.9467 
  42   0.0000       2.793325        76.0102 
  43   0.0000       2.793362        76.0112 
  44   0.0000       2.869647        78.0871 
  45   0.0000       2.869781        78.0907 
  46   0.0000       2.909578        79.1736 
  47   0.0000       3.033718        82.5517 
  48   0.0000       3.149420        85.7001 
  49   0.0000       3.149448        85.7009 
  50   0.0000       3.197394        87.0055 
  51   0.0000       3.197447        87.0069 
  52   0.0000       3.580622        97.4337 
  53   0.0000       3.580633        97.4340 
  54   0.0000       3.670222        99.8718 
  55   0.0000       3.720952       101.2523 
  56   0.0000       3.964751       107.8864 
  57   0.0000       3.964763       107.8867 
  58   0.0000       4.271966       116.2461 
  59   0.0000       4.371473       118.9538 
  60   0.0000       4.461809       121.4120 
  61   0.0000       4.461853       121.4132 
  62   0.0000       4.814081       130.9978 
  63   0.0000       5.054166       137.5309 
  64   0.0000       5.054186       137.5314 
  65   0.0000       5.103647       138.8773 
  66   0.0000       5.212999       141.8529 
  67   0.0000       5.213033       141.8538 
  68   0.0000       5.379560       146.3853 
  69   0.0000       5.917232       161.0161 
  70   0.0000       5.917397       161.0205 
  71   0.0000       8.183601       222.6871 
  72   0.0000       8.183640       222.6882 
  73   0.0000       8.258210       224.7173 
  74   0.0000       8.269605       225.0274 
  75   0.0000       8.357230       227.4118 
  76   0.0000       8.357274       227.4130 
  77   0.0000       9.081836       247.1293 
  78   0.0000       9.081857       247.1299 
  79   0.0000       9.120433       248.1796 
  80   0.0000      10.680986       290.6444 
  81   0.0000      10.764438       292.9152 
  82   0.0000      10.764483       292.9165 
  83   0.0000      11.568380       314.7916 
  84   0.0000      11.568435       314.7931 
  85   0.0000      36.793323      1001.1972 
------------------
MOLECULAR ORBITALS
------------------
                      0         1         2         3         4         5   
                 -13.96957  -0.77197  -0.41020  -0.41020  -0.22165   0.02182
                   2.00000   2.00000   2.00000   2.00000   2.00000   0.00000
                  --------  --------  --------  --------  --------  --------
  0N   1s         0.558753 -0.112261  0.000000 -0.000001 -0.039825  0.055954
  0N   2s         0.462656 -0.175116  0.000000 -0.000003 -0.063541  0.090575
  0N   1pz       -0.000297 -0.021149  0.197903 -0.033633  0.111695  0.033214
  0N   1px        0.000229  0.016278  0.000506 -0.209986 -0.085952 -0.025569
  0N   1py       -0.000574 -0.040885 -0.102172 -0.066187  0.215925  0.064218
  0N   3s         0.024364  0.482956  0.000001  0.000008  0.192792 -0.228901
  0N   2pz       -0.003162 -0.033034  0.276979 -0.047075  0.158654  0.064526
  0N   2px        0.002434  0.025403  0.000711 -0.293868 -0.122054 -0.049639
  0N   2py       -0.006113 -0.063853 -0.142992 -0.092630  0.306684  0.124753
  0N   4s         0.026301  0.360131 -0.000032  0.000061  0.095087 -1.475076
  0N   3pz       -0.002887 -0.017915  0.162904 -0.027689  0.162023  0.126621
  0N   3px        0.002222  0.013722  0.000432 -0.172789 -0.124533 -0.097570
  0N   3py       -0.005581 -0.034602 -0.084089 -0.054477  0.313193  0.244910
  0N   1dz2      -0.000056  0.000087 -0.002502  0.001775  0.000264  0.000432
  0N   1dxz      -0.000064  0.000100 -0.000937  0.000750  0.000301  0.000494
  0N   1dyz       0.000160 -0.000251 -0.002041 -0.000225 -0.000756 -0.001241
  0N   1dx2y2    -0.000131  0.000204 -0.001435 -0.002778  0.000614  0.001009
  0N   1dxy      -0.000123  0.000193  0.000480  0.001455  0.000582  0.000955
  0N   2dz2       0.000735  0.001594 -0.014208  0.009291  0.002778 -0.001726
  0N   2dxz       0.000841  0.001818 -0.004130  0.004601  0.003187 -0.001968
  0N   2dyz      -0.002114 -0.004562 -0.011592 -0.000586 -0.008019  0.004949
  0N   2dx2y2     0.001719  0.003704 -0.008151 -0.015376  0.006532 -0.004013
  0N   2dxy       0.001626  0.003511  0.002108  0.008918  0.006167 -0.003807
  0N   3dz2       0.000224  0.000442 -0.004456 -0.003354 -0.002009 -0.002501
  0N   3dxz       0.000256  0.000495  0.008182  0.004199 -0.002276 -0.002883
  0N   3dyz      -0.000643 -0.001235 -0.003655  0.005302  0.005707  0.007240
  0N   3dx2y2     0.000523  0.000991 -0.002568 -0.001725 -0.004603 -0.005913
  0N   3dxy       0.000495  0.000954 -0.004260  0.008057 -0.004398 -0.005575
  0N   1f0       -0.001346 -0.002241  0.000446 -0.001093  0.002547  0.007656
  0N   1f+1      -0.001611 -0.002173  0.001391  0.000390  0.001555  0.008603
  0N   1f-1      -0.000278 -0.000407 -0.000850 -0.000106  0.000362  0.001520
  0N   1f+2      -0.000882 -0.001654 -0.000385 -0.001127  0.002221  0.005224
  0N   1f-2       0.000504  0.000251  0.001243  0.000843  0.000778 -0.002220
  0N   1f+3      -0.001497 -0.002514 -0.001080  0.001469  0.002904  0.008541
  0N   1f-3      -0.000182 -0.000022 -0.000091  0.000467 -0.000483  0.000723
  1H   1s        -0.000353  0.092237  0.000417 -0.173074 -0.042766  0.030604
  1H   2s        -0.014257  0.072429  0.000592 -0.248860 -0.030039  0.176100
  1H   3s        -0.000590  0.004978  0.000335 -0.139868 -0.000855  0.646583
  1H   1pz        0.000007 -0.000058  0.001460 -0.000308  0.001303  0.000281
  1H   1px       -0.000530 -0.003330 -0.000009  0.003683  0.000685  0.005423
  1H   1py        0.000014 -0.000113 -0.000754 -0.000605  0.002520  0.000543
  1H   2pz       -0.000169 -0.000739  0.013487 -0.002498  0.007621  0.001498
  1H   2px        0.007399 -0.012145 -0.000038  0.016317 -0.001812 -0.014389
  1H   2py       -0.000326 -0.001427 -0.006961 -0.004907  0.014732  0.002901
  1H   3pz        0.000137 -0.000164  0.004659 -0.000303  0.025880  0.002394
  1H   3px        0.002533  0.001143 -0.000053  0.022296 -0.036402 -0.032141
  1H   3py        0.000265 -0.000321 -0.002412 -0.000612  0.050043  0.004636
  1H   1dz2       0.001512 -0.000015 -0.000322  0.001184  0.000215 -0.002480
  1H   1dxz       0.000178  0.000326 -0.003538  0.000544 -0.002448 -0.001039
  1H   1dyz      -0.000044 -0.000224 -0.000263  0.000280 -0.000303 -0.000389
  1H   1dx2y2    -0.002557  0.000342 -0.000179 -0.002450  0.000055  0.004847
  1H   1dxy       0.000345  0.000629  0.001827  0.001074 -0.004733 -0.002012
  2H   1s        -0.000353  0.092240  0.149681  0.086898 -0.042773  0.030606
  2H   2s        -0.014257  0.072353  0.215160  0.124923 -0.029864  0.176112
  2H   3s        -0.000590  0.004963  0.120933  0.070220 -0.000798  0.646431
  2H   1pz       -0.000260 -0.001776 -0.000769 -0.001543  0.002164  0.003150
  2H   1px        0.000170  0.001170  0.001459 -0.000705 -0.001567 -0.002096
  2H   1py        0.000430  0.002567  0.002908  0.001637  0.001179 -0.003935
  2H   2pz        0.003529 -0.007194  0.000267 -0.009966  0.009662 -0.005242
  2H   2px       -0.002293  0.004800  0.008676 -0.009293 -0.007204  0.003263
  2H   2py       -0.006097  0.008651  0.014288  0.007829  0.011535  0.013429
  2H   3pz        0.001479  0.000356 -0.007899 -0.008086  0.017492 -0.012999
  2H   3px       -0.000985 -0.000211  0.008293 -0.000140 -0.014430  0.008232
  2H   3py       -0.001829 -0.001143  0.015723  0.008969  0.063178  0.028649
  2H   1dz2       0.000548  0.000347 -0.002029  0.001496 -0.003019 -0.001917
  2H   1dxz       0.000738 -0.000197 -0.000490  0.000873  0.002715 -0.000203
  2H   1dyz       0.001980 -0.000451 -0.000737 -0.002282  0.000956 -0.003540
  2H   1dx2y2     0.001605  0.000430 -0.001005 -0.001950 -0.003234 -0.003704
  2H   1dxy      -0.001278  0.000342  0.002189 -0.001501 -0.000824  0.002257
  3H   1s        -0.000353  0.092239 -0.150098  0.086176 -0.042774  0.030608
  3H   2s        -0.014257  0.072329 -0.215722  0.123865 -0.029839  0.176091
  3H   3s        -0.000590  0.004953 -0.121262  0.069643 -0.000803  0.646171
  3H   1pz        0.000502  0.003121 -0.002829  0.002214 -0.000289 -0.005032
  3H   1px        0.000170  0.001171 -0.001456 -0.000711 -0.001567 -0.002096
  3H   1py        0.000036  0.000034 -0.001051 -0.000318  0.002448  0.000298
  3H   2pz       -0.007015  0.011212 -0.011557  0.012087  0.003843  0.013991
  3H   2px       -0.002293  0.004797 -0.008628 -0.009338 -0.007201  0.003264
  3H   2py       -0.000643 -0.000874 -0.008454 -0.003653  0.014551  0.003476
  3H   3pz       -0.002347 -0.001146 -0.017445  0.011910  0.041461  0.030808
  3H   3px       -0.000985 -0.000211 -0.008295 -0.000172 -0.014432  0.008198
  3H   3py        0.000151 -0.000369 -0.002631 -0.001430  0.050788  0.005960
  3H   1dz2      -0.002543  0.000118 -0.001192  0.002982  0.001088  0.005025
  3H   1dxz      -0.001469  0.000392 -0.002061 -0.001740 -0.002240  0.001958
  3H   1dyz      -0.000546 -0.000636 -0.001881 -0.001070  0.004309  0.002137
  3H   1dx2y2    -0.000179  0.000299 -0.000842 -0.001093 -0.000865  0.000305
  3H   1dxy      -0.000137  0.000037 -0.000864 -0.000157  0.001739  0.001138
                      6         7         8         9        10        11   
                   0.09519   0.09520   0.20171   0.20172   0.26063   0.28904
                   0.00000   0.00000   0.00000   0.00000   0.00000   0.00000
                  --------  --------  --------  --------  --------  --------
  0N   1s         0.000004  0.000001 -0.000003  0.000003  0.021437  0.000005
  0N   2s         0.000005  0.000001 -0.000006  0.000005  0.034773  0.000006
  0N   1pz        0.077372  0.133706  0.004364 -0.052386 -0.041932  0.055662
  0N   1px        0.151568 -0.055993  0.054778 -0.004824  0.032228  0.019894
  0N   1py        0.020322 -0.091449  0.019559  0.025176 -0.081053 -0.020933
  0N   3s        -0.000044 -0.000006  0.000016 -0.000026 -0.185459 -0.000005
  0N   2pz        0.118047  0.204036 -0.000833  0.010476 -0.063045  0.034133
  0N   2px        0.231325 -0.085411 -0.010839  0.000972  0.048476  0.012223
  0N   2py        0.031007 -0.139549 -0.003884 -0.005034 -0.121897 -0.012870
  0N   4s         0.000569  0.000161  0.000116  0.000190  1.141572 -0.000419
  0N   3pz        0.601138  1.039035 -0.146743  1.767028 -0.522611 -0.542051
  0N   3px        1.178242 -0.434960 -1.847517  0.162758  0.402695 -0.193287
  0N   3py        0.157858 -0.710652 -0.659430 -0.849345 -1.010171  0.203018
  0N   1dz2       0.002083  0.000922  0.000550  0.000534  0.000244  0.001103
  0N   1dxz       0.000712  0.001182 -0.000672 -0.001111  0.000279 -0.001192
  0N   1dyz      -0.000094  0.001417 -0.000703  0.000538 -0.000702  0.001401
  0N   1dx2y2    -0.001570  0.001555  0.000219  0.000317  0.000571  0.000460
  0N   1dxy       0.000226 -0.000831 -0.001048  0.000698  0.000538  0.001450
  0N   2dz2      -0.013705 -0.012079  0.064253 -0.068613  0.010298  0.036021
  0N   2dxz      -0.006292  0.000416  0.002387 -0.062277  0.011772 -0.007230
  0N   2dyz      -0.005516 -0.011967 -0.032052 -0.048632 -0.029610  0.031800
  0N   2dx2y2     0.012261 -0.014397 -0.084989 -0.028850  0.024079  0.009131
  0N   2dxy      -0.010653  0.004921  0.017914  0.030529  0.022754  0.019161
  0N   3dz2      -0.180088 -0.080931  0.241613 -0.440718 -0.031590  0.281785
  0N   3dxz      -0.061923 -0.100503  0.122134 -0.139435 -0.035896  0.384212
  0N   3dyz       0.006932 -0.123054 -0.050356 -0.338479  0.090248  0.055634
  0N   3dx2y2     0.136072 -0.135316 -0.474280 -0.200412 -0.073046 -0.010928
  0N   3dxy      -0.021418  0.071702  0.263600  0.043338 -0.069321 -0.242615
  0N   1f0        0.004855  0.000131 -0.014414  0.006695 -0.011412 -0.006194
  0N   1f+1       0.000375  0.005779  0.007865  0.011932 -0.010315 -0.005923
  0N   1f-1      -0.000584 -0.003033 -0.003731  0.005307 -0.001986 -0.003529
  0N   1f+2       0.003526 -0.003104 -0.006858 -0.007876 -0.008725  0.003532
  0N   1f-2      -0.001314  0.005788  0.004230  0.010932  0.000383 -0.005851
  0N   1f+3      -0.007002 -0.002008  0.011622 -0.010804 -0.012876  0.008271
  0N   1f-3      -0.001621  0.000048 -0.008056 -0.005933  0.000326  0.002265
  1H   1s        -0.012883  0.004774 -0.159236  0.014035  0.059973 -0.019622
  1H   2s        -0.575592  0.212323  0.911410 -0.080247 -0.076337  0.147145
  1H   3s        -2.215936  0.818302  2.022536 -0.178150 -0.232423  0.552532
  1H   1pz        0.002365  0.002984  0.000085 -0.002876  0.003137 -0.002831
  1H   1px       -0.006267  0.002312  0.003536 -0.000312 -0.001444 -0.000355
  1H   1py        0.001500 -0.002549  0.000781  0.001416  0.006063  0.004746
  1H   2pz       -0.007616 -0.006738 -0.002435 -0.034570 -0.005757 -0.002336
  1H   2px        0.011708 -0.004273 -0.121970  0.010752  0.046645 -0.013574
  1H   2py       -0.007122  0.007569  0.002737  0.017749 -0.011142  0.001921
  1H   3pz        0.048342  0.066537 -0.031946 -0.494515  0.334637 -0.502075
  1H   3px        0.420347 -0.155080 -1.133742  0.099899  0.273062 -0.262470
  1H   3py        0.026141 -0.053294  0.044969  0.253353  0.646685  0.563997
  1H   1dz2       0.006280  0.000774 -0.015888  0.006015  0.007785 -0.003993
  1H   1dxz      -0.000553 -0.001558  0.000946  0.013043 -0.003766  0.007788
  1H   1dyz       0.000177  0.002454 -0.001626  0.003913 -0.006064  0.002110
  1H   1dx2y2    -0.007656  0.004593  0.031220 -0.000091 -0.004900  0.004058
  1H   1dxy       0.000342  0.000786 -0.000984 -0.006703 -0.007272 -0.007673
  2H   1s         0.002325 -0.013557  0.091764  0.130891  0.059942 -0.037820
  2H   2s         0.103652 -0.604400 -0.525336 -0.749398 -0.075623  0.283342
  2H   3s         0.399164 -2.327848 -1.165544 -1.662384 -0.231176  1.064227
  2H   1pz        0.002612 -0.001326  0.000210 -0.002932  0.003638  0.001052
  2H   1px        0.003109  0.001558  0.003030 -0.000254 -0.002738 -0.005522
  2H   1py       -0.001053  0.006788  0.001432  0.001896  0.005300  0.003852
  2H   2pz       -0.005670 -0.001357  0.053708  0.037424  0.015675 -0.013910
  2H   2px       -0.008257 -0.000606  0.002996 -0.051215 -0.009614  0.006195
  2H   2py        0.002477 -0.016037 -0.055422 -0.080893 -0.044642  0.021433
  2H   3pz        0.006988  0.263668  0.586253  0.275982  0.604692 -0.253455
  2H   3px        0.100797 -0.157315  0.161997 -0.562285 -0.433994 -0.542691
  2H   3py        0.057455 -0.320965 -0.515355 -0.760967  0.226473  0.702214
  2H   1dz2       0.001450  0.001405 -0.007030  0.010232 -0.004191 -0.000057
  2H   1dxz      -0.000021  0.003725  0.000716  0.009581  0.011828 -0.002192
  2H   1dyz       0.001122  0.007241  0.017968  0.018405  0.004553 -0.008097
  2H   1dx2y2    -0.002012  0.004776  0.013826  0.008750  0.001436 -0.012891
  2H   1dxy       0.003916 -0.003892 -0.004281 -0.017483 -0.002847 -0.003249
  3H   1s         0.010584  0.008789  0.067463 -0.144910  0.059953  0.057459
  3H   2s         0.471546  0.391970 -0.386277  0.829675 -0.075582 -0.430470
  3H   3s         1.816637  1.509509 -0.857020  1.840403 -0.231170 -1.616440
  3H   1pz       -0.005898 -0.003253  0.000464 -0.003376  0.002224 -0.002329
  3H   1px        0.001351 -0.003204  0.003028 -0.000282 -0.002739  0.004407
  3H   1py       -0.000689 -0.003148  0.001212  0.001103  0.006032 -0.007053
  3H   2pz        0.012005  0.005914 -0.059768  0.099638 -0.045482 -0.037858
  3H   2px       -0.005898  0.005823  0.011910  0.049911 -0.009617 -0.011922
  3H   2py        0.004315  0.009958  0.014455  0.013882 -0.013001 -0.003063
  3H   3pz        0.301901  0.286956 -0.611257  0.901192 -0.164491 -0.864806
  3H   3px        0.178854  0.054002  0.257791  0.525145 -0.434093  0.226322
  3H   3py        0.010209 -0.047878  0.215434  0.179509  0.624409 -0.657376
  3H   1dz2       0.005817  0.006431 -0.018797  0.023730 -0.004544 -0.015842
  3H   1dxz       0.005898  0.001965 -0.000382  0.020183 -0.009153 -0.005103
  3H   1dyz       0.000749  0.000666  0.006227  0.005363  0.004259 -0.010038
  3H   1dx2y2    -0.001384  0.002548  0.006258  0.007776  0.001228  0.004448
  3H   1dxy       0.001192 -0.002059 -0.001461  0.002575  0.008009  0.003463
                     12        13        14        15        16        17   
                   0.28906   0.32508   0.47733   0.47735   0.51055   0.59838
                   0.00000   0.00000   0.00000   0.00000   0.00000   0.00000
                  --------  --------  --------  --------  --------  --------
  0N   1s         0.000009  0.003323 -0.000005 -0.000000  0.000004  0.076879
  0N   2s         0.000012  0.002233 -0.000010 -0.000001  0.000009  0.137804
  0N   1pz       -0.009692  0.080576 -0.153853 -0.054714  0.000022  0.007695
  0N   1px        0.055704 -0.062011 -0.083747  0.148866 -0.000012 -0.005933
  0N   1py        0.027127  0.155762  0.046234  0.087567 -0.000012  0.014897
  0N   3s        -0.000092 -0.268681 -0.000010  0.000046 -0.000002 -0.563971
  0N   2pz       -0.005997  0.063546 -0.272419 -0.096890  0.000012  0.002139
  0N   2px        0.034295 -0.049041 -0.148159  0.263508 -0.000134 -0.001680
  0N   2py        0.016634  0.122938  0.081883  0.155021 -0.000016  0.004161
  0N   4s         0.001019  6.190004  0.001123 -0.000522 -0.000735 -2.866142
  0N   3pz        0.093657 -0.231283  0.462533  0.164919  0.000481  0.541158
  0N   3px       -0.540920  0.177548  0.252786 -0.447941 -0.000555 -0.416060
  0N   3py       -0.264834 -0.446601 -0.139330 -0.263222 -0.000147  1.045258
  0N   1dz2      -0.000874  0.000179  0.000208  0.001029 -0.000001 -0.001104
  0N   1dxz       0.001500  0.000206 -0.001098 -0.001495  0.000001 -0.001263
  0N   1dyz       0.000679 -0.000520  0.001011 -0.000654  0.000001  0.003178
  0N   1dx2y2    -0.001005  0.000425  0.000276  0.000307  0.000004 -0.002583
  0N   1dxy       0.001561  0.000401  0.001487 -0.000861 -0.000001 -0.002444
  0N   2dz2      -0.005275  0.014846 -0.011252  0.005330  0.000029 -0.000865
  0N   2dxz       0.022464  0.016950 -0.008947 -0.005056  0.000006 -0.000990
  0N   2dyz       0.002311 -0.042542 -0.002655 -0.007253  0.000000  0.002470
  0N   2dx2y2    -0.035678  0.034582  0.001566 -0.011171 -0.000042 -0.002023
  0N   2dxy       0.031567  0.032748  0.004646  0.002576  0.000005 -0.001903
  0N   3dz2       0.283037  0.121736 -0.383576  0.171641  0.000033 -0.172537
  0N   3dxz      -0.193631  0.139214 -0.294788 -0.158897  0.000153 -0.197325
  0N   3dyz      -0.258302 -0.349550 -0.098914 -0.240990 -0.000016  0.495858
  0N   3dx2y2    -0.322687  0.284287  0.048963 -0.381432 -0.000079 -0.403204
  0N   3dxy      -0.022677  0.268922  0.145108  0.094953 -0.000076 -0.381399
  0N   1f0       -0.007503 -0.036317  0.002438 -0.001762  0.005952  0.012032
  0N   1f+1       0.006490 -0.041340  0.004083  0.003008 -0.002922  0.011306
  0N   1f-1      -0.001425 -0.007272 -0.005591 -0.002666 -0.004939  0.002142
  0N   1f+2      -0.005367 -0.024574  0.002309 -0.004518 -0.006795  0.009028
  0N   1f-2       0.004296  0.011145  0.001913  0.005799 -0.002627 -0.000914
  0N   1f+3       0.005262 -0.040474 -0.006136  0.002921  0.002288  0.013534
  0N   1f-3      -0.005507 -0.003728 -0.001273  0.004508 -0.003546 -0.000095
  1H   1s        -0.054959  0.076748  0.033015 -0.058692  0.000006  0.056759
  1H   2s         0.411310 -0.785200 -0.115548  0.203789  0.000795  1.625772
  1H   3s         1.547465 -1.125708 -1.492930  2.653022  0.000098 -0.171961
  1H   1pz        0.005238 -0.000997  0.010424 -0.001071 -0.011344 -0.000764
  1H   1px       -0.000999 -0.003780  0.001564 -0.002790  0.000006  0.004093
  1H   1py        0.006482 -0.001928  0.001870 -0.012356  0.005869 -0.001476
  1H   2pz        0.001772  0.009889 -0.061553 -0.000688  0.041016  0.000104
  1H   2px       -0.037908  0.165103  0.023185 -0.041039 -0.000107 -0.013743
  1H   2py        0.001098  0.019128 -0.003700  0.063538 -0.021219  0.000181
  1H   3pz        0.571269 -0.194228  1.080246  0.056663 -1.112904 -0.006606
  1H   3px       -0.734786  1.168308  0.641731 -1.139875 -0.000262 -0.404603
  1H   3py        0.556577 -0.375514  0.018191 -1.054667  0.575754 -0.012955
  1H   1dz2      -0.011292  0.017686  0.004208 -0.002433  0.000973 -0.003609
  1H   1dxz      -0.007479  0.002504 -0.002111 -0.000226  0.004357 -0.000894
  1H   1dyz       0.005817  0.003439  0.001029  0.002278  0.000813 -0.002608
  1H   1dx2y2     0.011272 -0.035509 -0.001312  0.005177  0.000607  0.009945
  1H   1dxy      -0.006338  0.004839  0.000088  0.001894 -0.002256 -0.001729
  2H   1s         0.044520  0.076752  0.034319  0.057955 -0.000007  0.056768
  2H   2s        -0.333225 -0.785519 -0.118881 -0.200902 -0.000176  1.625748
  2H   3s        -1.252195 -1.125618 -1.551144 -2.619051  0.000016 -0.172188
  2H   1pz       -0.005675 -0.003313  0.009901  0.005810  0.007366  0.001017
  2H   1px        0.000212  0.002285  0.003068 -0.010266  0.010431 -0.000582
  2H   1py       -0.004735  0.001684  0.002998  0.004560  0.000339 -0.004259
  2H   2pz        0.013566  0.097778 -0.038963  0.003005 -0.026632 -0.006836
  2H   2px       -0.011254 -0.065212 -0.035213  0.037925 -0.037719  0.004485
  2H   2py       -0.025352 -0.118035 -0.040340 -0.064969 -0.001220  0.011026
  2H   3pz       -0.368079  0.323834  1.221039  0.826233  0.722402 -0.214982
  2H   3px       -0.305853 -0.190064  0.293513 -1.252833  1.022854  0.141619
  2H   3py       -0.856658 -1.184409 -0.180427 -0.361931  0.033221  0.312233
  2H   1dz2       0.008812  0.007783  0.000742 -0.000912 -0.003383 -0.002475
  2H   1dxz       0.006434  0.005910  0.002433  0.003360 -0.001444  0.000288
  2H   1dyz       0.001944  0.028200  0.004093  0.002503  0.001662 -0.008080
  2H   1dx2y2     0.010830  0.019586  0.000541  0.002593  0.001793 -0.004627
  2H   1dxy      -0.007383 -0.018524  0.001295 -0.003952  0.002534  0.005416
  3H   1s         0.010536  0.076779 -0.067357  0.000758  0.000012  0.056770
  3H   2s        -0.078852 -0.785875  0.233255 -0.002386  0.000255  1.626139
  3H   3s        -0.295585 -1.125851  3.043969 -0.033912 -0.000065 -0.171481
  3H   1pz        0.001156  0.003292  0.001390  0.002987  0.003979 -0.004064
  3H   1px       -0.003331  0.002289  0.007187 -0.007952 -0.010431 -0.000581
  3H   1py       -0.003750 -0.001733 -0.011400 -0.004557 -0.006208 -0.001631
  3H   2pz       -0.005974 -0.152896  0.052195 -0.019510 -0.014394  0.012980
  3H   2px       -0.004817 -0.065239 -0.014158  0.049795  0.037713  0.004494
  3H   2py       -0.002119  0.011600  0.058603  0.028887  0.022439  0.000797
  3H   3pz        0.078918 -1.153932  1.103324  0.327705  0.390207  0.379463
  3H   3px       -0.580461 -0.189872  0.918307 -0.901419 -1.022655  0.141874
  3H   3py       -0.489833 -0.420273 -0.860729 -0.521152 -0.608884  0.005096
  3H   1dz2       0.002822 -0.034345  0.004927  0.001288  0.002382  0.009275
  3H   1dxz      -0.008430 -0.018542  0.004591 -0.002385 -0.002910  0.004261
  3H   1dyz      -0.006855 -0.006229 -0.000559 -0.000243 -0.002473  0.001524
  3H   1dx2y2    -0.002067 -0.004728  0.000112  0.002266 -0.002363  0.002150
  3H   1dxy      -0.001558 -0.005878 -0.001810 -0.002093 -0.000284  0.003368
                     18        19        20        21        22        23   
                   0.63296   0.64739   0.64740   0.72238   0.72240   0.85044
                   0.00000   0.00000   0.00000   0.00000   0.00000   0.00000
                  --------  --------  --------  --------  --------  --------
  0N   1s        -0.042441  0.000007 -0.000015  0.000007 -0.000000  0.000023
  0N   2s        -0.075319  0.000012 -0.000025  0.000011 -0.000002  0.000035
  0N   1pz       -0.035219  0.003700 -0.020087  0.096691  0.050428 -0.105787
  0N   1px        0.027155 -0.020053 -0.007389  0.069158 -0.090692 -0.022976
  0N   1py       -0.068147 -0.009879  0.007409 -0.022462 -0.062189  0.045808
  0N   3s         0.284300 -0.000044  0.000090 -0.000121  0.000002 -0.000599
  0N   2pz       -0.106921  0.025956 -0.140219  0.383047  0.199729 -0.571565
  0N   2px        0.082291 -0.139823 -0.051675  0.274087 -0.359278 -0.123979
  0N   2py       -0.206879 -0.069021  0.051846 -0.089017 -0.246365  0.246818
  0N   4s         4.807010 -0.000888  0.002117  0.000635  0.000260  0.004358
  0N   3pz       -0.481994  0.529923 -2.858843 -0.039489 -0.021112 -3.095571
  0N   3px        0.370904 -2.851603 -1.053693 -0.027628  0.036841 -0.670180
  0N   3py       -0.934926 -1.409044  1.058832  0.008924  0.025587  1.330065
  0N   1dz2      -0.002885 -0.006651 -0.013873 -0.002908 -0.006293 -0.007863
  0N   1dxz      -0.003301  0.001554 -0.009211  0.004208  0.009692  0.001615
  0N   1dyz       0.008307  0.006715 -0.006845 -0.007690  0.001822 -0.006588
  0N   1dx2y2    -0.006747  0.014876 -0.001095 -0.000966 -0.004571 -0.002917
  0N   1dxy      -0.006393 -0.004790  0.003285 -0.009838  0.005030 -0.002784
  0N   2dz2      -0.000821  0.009871  0.038105 -0.019207 -0.006840  0.076188
  0N   2dxz      -0.000964  0.005417  0.014031 -0.002122  0.009937  0.074423
  0N   2dyz       0.002420 -0.011371  0.023949 -0.015647 -0.005653  0.041574
  0N   2dx2y2    -0.002032 -0.039827  0.005141  0.001905 -0.020931  0.016996
  0N   2dxy      -0.001865  0.020063  0.001196 -0.012541  0.012748 -0.036730
  0N   3dz2      -0.209509 -0.279436 -0.260586 -0.613253 -0.706076  1.393399
  0N   3dxz      -0.239798  0.207781 -0.380745  0.352443  1.076875  2.067252
  0N   3dyz       0.603380  0.256440 -0.033762 -0.993258  0.067921  0.587259
  0N   3dx2y2    -0.490952  0.298142  0.018851 -0.055812 -0.798536  0.221897
  0N   3dxy      -0.464335  0.037322  0.249830 -1.137083  0.694522 -1.172148
  0N   1f0        0.001345 -0.002311 -0.002292  0.003143 -0.002777 -0.023385
  0N   1f+1       0.000898  0.002484 -0.004632 -0.004615  0.000752 -0.033463
  0N   1f-1       0.000194 -0.001762  0.005752  0.017166  0.008043 -0.006759
  0N   1f+2       0.001156 -0.004918 -0.001442 -0.009212  0.002889  0.016491
  0N   1f-2       0.000341  0.005475 -0.002949  0.002346 -0.007798 -0.030462
  0N   1f+3       0.001555  0.003936  0.005769  0.004639 -0.002018  0.036647
  0N   1f-3      -0.000225  0.004427  0.000612  0.004084 -0.017552  0.012213
  1H   1s        -0.035920  0.076464  0.028234 -0.011991  0.015738  0.014106
  1H   2s        -0.768626  1.604679  0.592968 -0.543200  0.711397  0.907591
  1H   3s        -0.634248  3.213420  1.187150  0.092184 -0.121229  0.569896
  1H   1pz       -0.001452  0.002359 -0.005619  0.002616  0.003940  0.005162
  1H   1px        0.002414 -0.002337 -0.000859 -0.002247  0.002936  0.002594
  1H   1py       -0.002812 -0.000611  0.003127 -0.003654  0.000976 -0.003438
  1H   2pz       -0.000461 -0.007065  0.012460  0.019458  0.001509 -0.047776
  1H   2px       -0.019254 -0.081860 -0.030311  0.013540 -0.017586 -0.050961
  1H   2py       -0.000881 -0.001656 -0.008390  0.005705 -0.021438  0.017608
  1H   3pz        0.163371 -0.045488  0.284385  0.102383 -0.674425 -0.984777
  1H   3px        1.272147 -2.585680 -0.954795  0.223146 -0.292323 -0.402172
  1H   3py        0.316469  0.151646 -0.099340  0.836293 -0.816786  0.601329
  1H   1dz2       0.009669 -0.026263 -0.014020  0.013791 -0.009574 -0.015561
  1H   1dxz      -0.002637  0.002865 -0.012535  0.000177  0.013074  0.021815
  1H   1dyz       0.000204 -0.000157 -0.003575  0.004119  0.001534 -0.004005
  1H   1dx2y2    -0.017032  0.050571  0.016206 -0.015532  0.025223  0.010599
  1H   1dxy      -0.005115 -0.005292  0.005062 -0.015384  0.013277 -0.014928
  2H   1s        -0.035933 -0.062674  0.052069 -0.007631 -0.018257  0.050698
  2H   2s        -0.770463 -1.315946  1.093631 -0.344668 -0.825104  3.261691
  2H   3s        -0.636475 -2.635008  2.189119  0.058627  0.140957  2.047887
  2H   1pz       -0.000801 -0.001835 -0.003610  0.001123 -0.004837  0.005630
  2H   1px        0.000689 -0.004003 -0.003945  0.004879  0.001018  0.001468
  2H   1py       -0.003834 -0.001904  0.001340  0.000465  0.000765 -0.008783
  2H   2pz       -0.010316  0.042506 -0.023423  0.019854  0.019879 -0.127863
  2H   2px        0.006831 -0.015932  0.030118  0.006854 -0.022645  0.043747
  2H   2py        0.014550 -0.050709  0.042721 -0.000925 -0.003442  0.130980
  2H   3pz        0.875517  1.135742 -0.704878  0.196642  1.022593 -1.003246
  2H   3px       -0.592602 -0.496671  0.750032 -0.561802 -0.563462 -0.297009
  2H   3py       -0.794779 -1.734131  1.451746  0.183201  0.464620  1.303017
  2H   1dz2      -0.001028 -0.000110 -0.014125  0.005175 -0.011650 -0.007820
  2H   1dxz       0.008180  0.008487 -0.013066  0.010786  0.015835 -0.014260
  2H   1dyz       0.014976  0.035317 -0.023789  0.009715  0.026775 -0.048669
  2H   1dx2y2     0.005056  0.025995 -0.013946 -0.004758  0.002103 -0.038979
  2H   1dxy      -0.010072 -0.017058  0.022839 -0.009848 -0.017212  0.009634
  3H   1s        -0.035847 -0.013780 -0.080334  0.019637  0.002517 -0.064827
  3H   2s        -0.769256 -0.288378 -1.687282  0.887199  0.113563 -4.173955
  3H   3s        -0.633981 -0.578022 -3.377283 -0.150912 -0.019834 -2.618426
  3H   1pz       -0.002661  0.001692 -0.002739 -0.003225  0.001167  0.012298
  3H   1px        0.000687 -0.005608  0.000399 -0.002270 -0.004433  0.000945
  3H   1py       -0.002869 -0.003386 -0.000039  0.003067 -0.002069  0.002267
  3H   2pz        0.017854 -0.018609 -0.079664  0.017005  0.007933 -0.223113
  3H   2px        0.006850  0.007501 -0.033260  0.020020 -0.012638 -0.079166
  3H   2py       -0.000010  0.007724 -0.000745 -0.017875 -0.011362  0.023011
  3H   3pz       -1.152489 -0.538318 -2.557742  0.195045 -0.091055 -1.901178
  3H   3px       -0.591802  0.110791 -0.893480  0.692003  0.392693 -0.144325
  3H   3py        0.255737  0.114270 -0.249040 -1.134088  0.034735 -0.225245
  3H   1dz2      -0.015117 -0.015448 -0.049394  0.023652 -0.001126 -0.071900
  3H   1dxz      -0.012922  0.002737 -0.032162  0.026149  0.007613 -0.031635
  3H   1dyz       0.003440  0.006311 -0.008045 -0.017125  0.003401 -0.016370
  3H   1dx2y2    -0.003088  0.007113 -0.007168  0.007180  0.009160 -0.001511
  3H   1dxy       0.000862 -0.000578 -0.003831 -0.003696 -0.002211  0.002447
                     24        25        26        27        28        29   
                   0.85046   0.86717   0.88646   0.88655   1.10605   1.71781
                   0.00000   0.00000   0.00000   0.00000   0.00000   0.00000
                  --------  --------  --------  --------  --------  --------
  0N   1s         0.000054 -0.016630  0.000009  0.000029 -0.071494 -0.000003
  0N   2s         0.000086 -0.027128  0.000017  0.000051 -0.123811 -0.000004
  0N   1pz        0.004293 -0.093651 -0.138052  0.023939  0.038635 -0.081333
  0N   1px       -0.108786  0.071141 -0.049142 -0.138281 -0.029719 -0.005421
  0N   1py       -0.044904 -0.180769  0.052257 -0.066721  0.074662  0.039941
  0N   3s        -0.001423  0.474234 -0.000395 -0.000974  1.698210  0.000055
  0N   2pz        0.022282 -0.259315 -0.294564  0.051295  0.349702 -0.112625
  0N   2px       -0.586264  0.196627 -0.105106 -0.295191 -0.268980 -0.007475
  0N   2py       -0.243342 -0.500464  0.111851 -0.141905  0.675963  0.055350
  0N   4s         0.009697 -3.062505  0.001896  0.005552-13.146395 -0.000777
  0N   3pz        0.110278  1.654727  5.504538 -0.949256  0.690456  0.043464
  0N   3px       -3.157532 -1.261284  1.953661  5.515757 -0.533752  0.002918
  0N   3py       -1.325554  3.194659 -2.076157  2.675000  1.336631 -0.020982
  0N   1dz2      -0.000304  0.002302  0.009147  0.006575  0.003485  0.002952
  0N   1dxz      -0.004264  0.002601  0.008907 -0.003267  0.003988 -0.005480
  0N   1dyz      -0.001051 -0.006563  0.003401 -0.006126 -0.010020  0.002764
  0N   1dx2y2     0.007469  0.005306  0.000335 -0.010160  0.008149  0.001710
  0N   1dxy      -0.006978  0.005011 -0.004700  0.001448  0.007710  0.003284
  0N   2dz2       0.063929 -0.007445 -0.099632 -0.027326 -0.029253  0.119355
  0N   2dxz      -0.012249 -0.008522 -0.036595 -0.014743 -0.033446 -0.104098
  0N   2dyz      -0.045248  0.021159 -0.063271  0.029004  0.084055  0.103437
  0N   2dx2y2    -0.090353 -0.017164 -0.014946  0.104466 -0.068339  0.064199
  0N   2dxy       0.014432 -0.016499 -0.002480 -0.052720 -0.064671  0.066308
  0N   3dz2       1.647003  0.208313 -1.833290 -0.296665 -0.207504 -0.182804
  0N   3dxz      -0.645201  0.234817 -0.389790 -0.507589 -0.237877  0.852220
  0N   3dyz      -1.260799 -0.597736 -1.286765  0.358971  0.598369 -0.207984
  0N   3dx2y2    -1.797142  0.483639 -0.328385  1.894548 -0.487069 -0.127650
  0N   3dxy      -0.153957  0.452000 -0.298082 -1.145045 -0.460253 -0.493306
  0N   1f0       -0.037060  0.034709  0.019599  0.023677  0.095055 -0.000804
  0N   1f+1       0.025163  0.033658  0.019832 -0.020735  0.113765  0.000527
  0N   1f-1      -0.008816  0.006304  0.008417  0.005001  0.019645 -0.007418
  0N   1f+2      -0.025801  0.025648 -0.010237  0.018165  0.062280  0.002813
  0N   1f-2       0.020040 -0.003839  0.018956 -0.015166 -0.035616  0.000198
  0N   1f+3       0.031374  0.039016 -0.027318 -0.017745  0.105693 -0.000371
  0N   1f-3      -0.016046  0.000317 -0.007121  0.014979  0.012835  0.002799
  1H   1s         0.066687  0.018992 -0.007315 -0.020792  0.098106  0.000853
  1H   2s         4.283345  1.193712 -1.501472 -4.243395  3.246597  0.023790
  1H   3s         2.693246  0.107312 -0.149158 -0.425780  1.264364  0.082181
  1H   1pz       -0.002641  0.003113  0.005171 -0.001788 -0.001799  0.005525
  1H   1px        0.012243  0.013820 -0.008274 -0.023347  0.025683  0.000037
  1H   1py       -0.002248  0.006008 -0.002654  0.001009 -0.003472 -0.006854
  1H   2pz       -0.004208 -0.011258  0.006889 -0.019809  0.036324 -0.037944
  1H   2px       -0.240672 -0.235941  0.131021  0.369803 -0.529075  0.002735
  1H   2py       -0.031501 -0.021771 -0.016897 -0.027411  0.070169  0.093141
  1H   3pz        0.393341 -0.497402 -1.076591  0.363109  0.135623 -0.680730
  1H   3px       -1.901659 -0.082194 -0.020713 -0.054788 -1.394703 -0.049971
  1H   3py        0.228269 -0.959157  0.544036 -0.227215  0.261960  0.321773
  1H   1dz2      -0.042199 -0.010772  0.014756  0.012332 -0.067180  0.028399
  1H   1dxz      -0.011964  0.014096  0.032968 -0.010711 -0.012147  0.044641
  1H   1dyz       0.006697 -0.008376  0.007611 -0.002524 -0.000052  0.020950
  1H   1dx2y2     0.068239  0.030524 -0.004292 -0.029138  0.116440  0.016008
  1H   1dxy      -0.010978  0.027182 -0.016349  0.007634 -0.023471 -0.024255
  2H   1s        -0.045625  0.018778 -0.014192  0.016656  0.098049  0.011523
  2H   2s        -2.931068  1.197029 -2.919401  3.419627  3.245251  0.312047
  2H   3s        -1.840960  0.099601 -0.290780  0.343441  1.263969  1.082538
  2H   1pz       -0.000197  0.011422 -0.005442  0.011805  0.010564 -0.027122
  2H   1px        0.005623 -0.007796  0.009167 -0.002962 -0.006716  0.025578
  2H   1py        0.008126 -0.006902  0.012915 -0.014861 -0.022763 -0.028721
  2H   2pz        0.075183 -0.136086  0.121215 -0.128499 -0.218631  0.544574
  2H   2px       -0.096249  0.090311 -0.064851  0.094314  0.139084 -0.452898
  2H   2py       -0.119891  0.173241 -0.215773  0.252903  0.468008  0.493920
  2H   3pz       -0.008571 -0.733691 -0.596817 -0.434653 -0.520663 -0.802335
  2H   3px       -1.027226  0.529690 -0.770375 -0.707935  0.325930  0.045799
  2H   3py       -1.211900 -0.597752 -0.009164 -0.036981  1.286182  0.294987
  2H   1dz2       0.017434  0.013159  0.024965  0.014852 -0.029938  0.019386
  2H   1dxz       0.017825 -0.015211  0.014927  0.001299 -0.027463  0.036671
  2H   1dyz       0.023272 -0.032178  0.005579 -0.025302 -0.088808 -0.007253
  2H   1dx2y2     0.030900  0.009474 -0.001221 -0.022333 -0.077315 -0.013131
  2H   1dxy      -0.038406  0.022868 -0.024123 -0.000961  0.057108 -0.005514
  3H   1s        -0.021144  0.018747  0.021411  0.003955  0.098015 -0.012457
  3H   2s        -1.363081  1.198322  4.417676  0.816339  3.244078 -0.335098
  3H   3s        -0.853533  0.098258  0.440195  0.082228  1.263757 -1.164551
  3H   1pz        0.001970 -0.012246 -0.022559 -0.006101 -0.024678  0.007972
  3H   1px        0.005750 -0.007810 -0.008976  0.003461 -0.006718 -0.026529
  3H   1py        0.003955  0.005333 -0.001687  0.002714 -0.004530  0.042284
  3H   2pz       -0.056339  0.220234  0.367833  0.062978  0.508241 -0.091498
  3H   2px       -0.070413  0.090398  0.109658  0.032491  0.139104  0.477936
  3H   2py       -0.018891 -0.010920  0.045998  0.015885  0.091984 -0.791210
  3H   3pz       -0.233521 -0.065578 -0.123671  0.382819  1.350520 -0.722016
  3H   3px       -1.060049  0.530431  0.150951 -1.034364  0.325929 -0.142502
  3H   3py       -0.673954 -0.944102  0.145730 -0.602310  0.318056  0.465605
  3H   1dz2      -0.008474  0.020799  0.024114  0.023632  0.117115 -0.010984
  3H   1dxz      -0.031596  0.027473  0.020989 -0.019005  0.062474  0.024012
  3H   1dyz      -0.015812 -0.025904  0.007659 -0.019089  0.031401  0.008298
  3H   1dx2y2     0.000181  0.013919  0.006590 -0.020173  0.007587  0.011090
  3H   1dxy      -0.009452  0.000793  0.001681 -0.000715  0.010576 -0.027433
                     30        31        32        33        34        35   
                   1.71786   1.76144   1.76183   1.86846   1.86850   2.02602
                   0.00000   0.00000   0.00000   0.00000   0.00000   0.00000
                  --------  --------  --------  --------  --------  --------
  0N   1s        -0.000021 -0.019527 -0.000048  0.000003  0.000001 -0.000001
  0N   2s        -0.000031 -0.031911 -0.000076  0.000007  0.000006  0.000002
  0N   1pz       -0.008721  0.042750  0.000134 -0.030723  0.001642 -0.070281
  0N   1px       -0.085436 -0.032795 -0.000069 -0.003719  0.031929  0.190987
  0N   1py       -0.029344  0.082656  0.000208  0.014392  0.011842  0.112371
  0N   3s         0.000397  0.375499  0.000918 -0.000058 -0.000072 -0.000001
  0N   2pz       -0.012031  0.057410  0.000041  0.083853 -0.004450  0.061731
  0N   2px       -0.118517 -0.043816 -0.000213  0.010079 -0.087223 -0.167653
  0N   2py       -0.040696  0.110760  0.000327 -0.039336 -0.032390 -0.098621
  0N   4s        -0.003925 -3.056893 -0.007899 -0.000026 -0.000094 -0.000602
  0N   3pz        0.005384  0.603471  0.001697 -2.691857  0.145749  0.441399
  0N   3px        0.044445 -0.464490 -0.001625 -0.328564  2.800661 -1.198507
  0N   3py        0.016913  1.167249  0.002766  1.261581  1.039418 -0.705218
  0N   1dz2      -0.002497 -0.000610 -0.000006  0.002975 -0.006900 -0.000305
  0N   1dxz       0.003250 -0.000705 -0.000005  0.009109  0.002899  0.000336
  0N   1dyz       0.003511  0.001767  0.000002  0.001149  0.005314  0.000349
  0N   1dx2y2    -0.001323 -0.001441 -0.000003  0.000634  0.005300  0.000421
  0N   1dxy       0.005403 -0.001370 -0.000003 -0.005231  0.002924 -0.000026
  0N   2dz2      -0.023675 -0.059088 -0.000089  0.083745 -0.192331  0.101285
  0N   2dxz       0.087397 -0.067608 -0.000186  0.253401  0.080236 -0.016892
  0N   2dyz       0.072481  0.169495  0.000431  0.032622  0.147798 -0.255594
  0N   2dx2y2    -0.088081 -0.137798 -0.000432  0.017841  0.148320 -0.595576
  0N   2dxy       0.152037 -0.130752 -0.000309 -0.145356  0.080638  0.260289
  0N   3dz2       0.491492  0.149056  0.000362  0.665263  0.287973  0.228566
  0N   3dxz      -0.393192  0.171179  0.000590 -0.740091 -0.605381 -0.355818
  0N   3dyz      -0.521376 -0.428934 -0.001106  0.628281 -0.484437 -0.109492
  0N   3dx2y2    -0.066310  0.349550  0.000816  0.348719  0.467279  0.182589
  0N   3dxy      -0.624517  0.331472  0.000869  0.529756 -0.940474 -0.254503
  0N   1f0       -0.002454  0.009033 -0.015365  0.000581  0.000225 -0.005321
  0N   1f+1       0.001735  0.024741  0.007634  0.006698 -0.000814  0.008560
  0N   1f-1      -0.001320  0.003382  0.012762 -0.017445  0.000882 -0.006616
  0N   1f+2       0.002425  0.000635  0.017571  0.004415 -0.009061 -0.011964
  0N   1f-2      -0.002708 -0.019669  0.006717  0.004836  0.009131  0.014966
  0N   1f+3      -0.000827  0.009236 -0.005815 -0.005911  0.007120  0.007723
  0N   1f-3      -0.006895  0.008998  0.009180  0.003925  0.015000  0.009990
  1H   1s         0.013637 -0.063923 -0.000259 -0.005860  0.048839 -0.431952
  1H   2s         0.375479  0.873078  0.002803  0.235939 -2.008136  1.612641
  1H   3s         1.297837  0.245468  0.000830  0.179815 -1.532975  1.262334
  1H   1pz       -0.026226  0.019296 -0.031850 -0.048488 -0.006763 -0.010305
  1H   1px        0.000589  0.007622  0.000024  0.000053 -0.000393 -0.004544
  1H   1py       -0.049591  0.037121  0.016596  0.025382  0.000889  0.008705
  1H   2pz        0.478462 -0.337502  0.662437  0.908786  0.096315  0.169301
  1H   2px        0.042780 -0.053992 -0.000218  0.026100 -0.223834  0.249704
  1H   2py        0.914478 -0.648600 -0.344770 -0.467074 -0.074584 -0.156200
  1H   3pz       -0.153353 -0.038372 -0.670694  0.187310  0.241650  0.161683
  1H   3px       -0.788583 -0.383409 -0.001188 -0.131616  1.121488 -1.404677
  1H   3py       -0.400254 -0.078726  0.346652 -0.159164  0.406210  0.252492
  1H   1dz2       0.014550  0.000841  0.018354 -0.010261  0.047157 -0.120787
  1H   1dxz      -0.010339 -0.003269  0.028580 -0.026665 -0.024792 -0.005827
  1H   1dyz      -0.023651 -0.048890  0.014873 -0.003422 -0.003758 -0.028228
  1H   1dx2y2     0.002292  0.067576  0.010815  0.006481 -0.078229  0.186598
  1H   1dxy      -0.012991 -0.006112 -0.014806  0.019935 -0.039545 -0.071085
  2H   1s        -0.007744 -0.064028 -0.000158 -0.039421 -0.029403  0.426532
  2H   2s        -0.206579  0.874209  0.002025  1.621213  1.207829 -1.592481
  2H   3s        -0.719671  0.248001  0.000323  1.237521  0.922126 -1.246790
  2H   1pz        0.023668  0.030511  0.020799 -0.017627  0.026487  0.008270
  2H   1px       -0.009124 -0.022308  0.029271 -0.027856  0.035340  0.011053
  2H   1py        0.019387  0.019305  0.001007  0.000002  0.001836 -0.004997
  2H   2pz       -0.415903 -0.492582 -0.432155  0.457730 -0.398733 -0.220105
  2H   2px        0.226477  0.363493 -0.608888  0.432997 -0.724710 -0.134587
  2H   2py       -0.331513 -0.400234 -0.020923 -0.116170 -0.120851  0.226197
  2H   3pz        0.011128 -0.253033  0.434981 -0.620837 -0.636149  0.500601
  2H   3px       -0.769529  0.169124  0.616776  0.599165  0.200758 -0.346793
  2H   3py       -0.220003  0.251931  0.020672  0.491019  0.357943 -1.281125
  2H   1dz2       0.047887 -0.014338 -0.032972  0.000542  0.026630  0.064649
  2H   1dxz       0.000929  0.032323 -0.013591 -0.046605 -0.023484  0.022626
  2H   1dyz      -0.005268 -0.061609  0.004585 -0.050430 -0.052886  0.168910
  2H   1dx2y2    -0.025290 -0.006264  0.018480 -0.003884 -0.016588  0.130014
  2H   1dxy      -0.013923  0.043890  0.008688  0.050273  0.014361 -0.062754
  3H   1s        -0.006238 -0.064065 -0.000156  0.045176 -0.019502  0.005306
  3H   2s        -0.165414  0.874136  0.002105 -1.856901  0.800373 -0.019567
  3H   3s        -0.577236  0.248087  0.000713 -1.417405  0.610901 -0.015406
  3H   1pz        0.001146 -0.001940  0.011189 -0.006715 -0.015790 -0.008412
  3H   1px       -0.005823 -0.022144 -0.029391  0.018934  0.040818  0.021894
  3H   1py        0.025385  0.036141 -0.017375  0.008743  0.025386  0.013001
  3H   2pz       -0.018775 -0.040652 -0.232888  0.319058  0.211358  0.144144
  3H   2px        0.167520  0.360149  0.610849 -0.253765 -0.805085 -0.369234
  3H   2py       -0.434618 -0.635041  0.361572 -0.206593 -0.455312 -0.219438
  3H   3pz       -0.095580  0.350719  0.236070 -0.891638  0.466207  0.000801
  3H   3px       -0.757538  0.172233 -0.615951 -0.629407  0.056679 -0.049739
  3H   3py       -0.178218 -0.059109 -0.367229  0.289224 -0.252390 -0.031297
  3H   1dz2       0.020504  0.053880  0.014671 -0.054505  0.041343 -0.034455
  3H   1dxz      -0.015033  0.017235 -0.014872 -0.071981  0.008898  0.049176
  3H   1dyz      -0.030223 -0.005700 -0.019780  0.022243 -0.027080  0.013138
  3H   1dx2y2    -0.043745  0.033287 -0.029011 -0.019962 -0.006267 -0.028252
  3H   1dxy      -0.003858  0.051720  0.006350  0.011229 -0.008521  0.035769
                     36        37        38        39        40        41   
                   2.02603   2.18204   2.39776   2.47568   2.47568   2.75424
                   0.00000   0.00000   0.00000   0.00000   0.00000   0.00000
                  --------  --------  --------  --------  --------  --------
  0N   1s         0.000001 -0.046086  0.006781  0.000004  0.000000 -0.046998
  0N   2s        -0.000001 -0.067409  0.046987  0.000009  0.000000 -0.102353
  0N   1pz       -0.197392 -0.083809  0.002166  0.057653 -0.007852 -0.104246
  0N   1px       -0.107530  0.064491 -0.001658  0.018364  0.058032  0.080460
  0N   1py        0.059303 -0.162033  0.004149 -0.022510  0.027158 -0.201488
  0N   3s         0.000006  0.492336 -0.089482 -0.000041  0.000023  0.232986
  0N   2pz        0.173248  0.066551  0.223547 -0.325176  0.044380 -0.229792
  0N   2px        0.094353 -0.051151 -0.172107 -0.103604 -0.327334  0.175320
  0N   2py       -0.052071  0.128702  0.432221  0.127041 -0.153235 -0.443871
  0N   4s         0.000167 -4.743024 -7.003242 -0.000569 -0.000245  7.092600
  0N   3pz        1.238779  0.441844  0.506900 -0.671234  0.091654 -1.051986
  0N   3px        0.674825 -0.339923 -0.390168 -0.213898 -0.675830  0.804913
  0N   3py       -0.372283  0.854086  0.979842  0.262264 -0.316288 -2.031953
  0N   1dz2       0.000431 -0.000817  0.004490 -0.010180  0.008078  0.000677
  0N   1dxz       0.000456 -0.000937  0.005137  0.012005 -0.013698  0.000806
  0N   1dyz       0.000016  0.002352 -0.012910 -0.012649 -0.007067 -0.002032
  0N   1dx2y2    -0.000086 -0.001915  0.010501 -0.004595  0.008715  0.001691
  0N   1dxy      -0.000319 -0.001809  0.009932 -0.013186 -0.014964  0.001563
  0N   2dz2      -0.584645 -0.111944  0.084483 -0.156813  0.320391  0.155910
  0N   2dxz      -0.270097 -0.128089  0.096629  0.458877 -0.420876  0.178261
  0N   2dyz      -0.287434  0.321785 -0.242785 -0.299723 -0.280189 -0.447557
  0N   2dx2y2     0.030693 -0.261704  0.197510 -0.117654  0.099290  0.363841
  0N   2dxy      -0.001916 -0.247630  0.186858 -0.431673 -0.396309  0.344462
  0N   3dz2       0.157138  0.048183 -0.202007  0.433614 -0.239629  0.006523
  0N   3dxz      -0.213401  0.055264 -0.231050 -0.365251  0.471640  0.006188
  0N   3dyz       0.295295 -0.138663  0.580671  0.482814  0.209684 -0.015291
  0N   3dx2y2     0.062186  0.112851 -0.472376  0.170752 -0.389843  0.010981
  0N   3dxy       0.357249  0.106777 -0.446843  0.439842  0.549027  0.011807
  0N   1f0        0.007151  0.076470  0.175193 -0.016038 -0.025317 -0.055118
  0N   1f+1       0.010740  0.046679  0.279424  0.009457  0.017554 -0.114089
  0N   1f-1      -0.012973  0.010837  0.043936 -0.084258  0.005484 -0.016777
  0N   1f+2       0.005190  0.066695  0.088980  0.037253  0.018077 -0.018078
  0N   1f-2       0.005502  0.023441 -0.146688 -0.005779 -0.029230  0.077022
  0N   1f+3      -0.016395  0.087354  0.191158 -0.005421 -0.007644 -0.058148
  0N   1f-3      -0.003334 -0.014575  0.062393  0.012011 -0.082608 -0.034441
  1H   1s         0.243153 -0.496126 -0.620752 -0.050013 -0.157976  0.186342
  1H   2s        -0.907827  1.550137  3.037759  0.305164  0.963700 -2.851084
  1H   3s        -0.710728  0.321479  0.236394 -0.066303 -0.209722 -0.296722
  1H   1pz       -0.021530 -0.006017  0.002945  0.012029 -0.012007  0.003005
  1H   1px        0.002561 -0.012115  0.017896  0.003875  0.012233 -0.052073
  1H   1py        0.009235 -0.011634  0.005695 -0.012003 -0.012056  0.005806
  1H   2pz        0.366390  0.099862 -0.007587 -0.212646  0.210766 -0.059177
  1H   2px       -0.140640  0.244392 -0.569923 -0.072015 -0.227389  0.999151
  1H   2py       -0.150829  0.193139 -0.014555  0.211155  0.210610 -0.114505
  1H   3pz       -0.033780 -0.084463  0.098837  0.363505 -0.365523  0.157722
  1H   3px        0.790853 -0.851435 -0.625936 -0.005081 -0.015853  0.451594
  1H   3py       -0.171778 -0.163328  0.191070 -0.364596 -0.368851  0.304871
[...]
   61. RY ( 7) H  3             0.00000     1.50509
   62. RY ( 8) H  3             0.00000     5.56289
   63. RY ( 9) H  3             0.00000     1.99575
   64. RY (10) H  3             0.00000     2.95212
   65. RY (11) H  3             0.00000     6.26097
   66. RY (12) H  3             0.00000     3.55014
   67. RY (13) H  3             0.00000     3.06808
   68. RY (14) H  3             0.00000     3.51721
   69. RY (15) H  3             0.00000     3.28569
   70. RY (16) H  3             0.00000     3.38707
   71. RY ( 1) H  4             0.00341     0.55560
   72. RY ( 2) H  4             0.00051     0.96079
   73. RY ( 3) H  4             0.00013     2.04045
   74. RY ( 4) H  4             0.00001     3.89519
   75. RY ( 5) H  4             0.00000     1.71968
   76. RY ( 6) H  4             0.00000     6.40543
   77. RY ( 7) H  4             0.00000     2.59086
   78. RY ( 8) H  4             0.00000     1.88379
   79. RY ( 9) H  4             0.00000     6.70446
   80. RY (10) H  4             0.00000     1.20937
   81. RY (11) H  4             0.00000     6.76687
   82. RY (12) H  4             0.00000     2.95945
   83. RY (13) H  4             0.00000     3.46456
   84. RY (14) H  4             0.00000     3.69878
   85. RY (15) H  4             0.00000     2.97361
   86. RY (16) H  4             0.00000     3.09867
          -------------------------------
                 Total Lewis    9.98781  ( 99.8781%)
           Valence non-Lewis    0.00003  (  0.0003%)
           Rydberg non-Lewis    0.01217  (  0.1217%)
          -------------------------------
               Total unit  1   10.00000  (100.0000%)
              Charge unit  1    0.00000

 $CHOOSE
   LONE 1 1 END
   BOND S 1 2 S 1 3 S 1 4 END
 $END

 NBO analysis completed in 0.13 CPU seconds (1 wall second)
 Maximum scratch memory used by NBO was 510233 words (3.89 MB)
Stopping NBO...Storing NBOs: NH3.nbo

                                *** returned from  NBO  program ***

-------
TIMINGS
-------

Total SCF time: 0 days 0 hours 0 min 2 sec 

Total time                  ....       2.297 sec
Sum of individual times     ....       2.066 sec  ( 90.0%)

Fock matrix formation       ....       1.118 sec  ( 48.7%)
  Split-RI-J                ....       0.697 sec  ( 62.3% of F)
  XC integration            ....       0.374 sec  ( 33.5% of F)
    Basis function eval.    ....       0.021 sec  (  5.7% of XC)
    Density eval.           ....       0.029 sec  (  7.6% of XC)
    XC-Functional eval.     ....       0.009 sec  (  2.4% of XC)
    XC-Potential eval.      ....       0.031 sec  (  8.2% of XC)
Diagonalization             ....       0.003 sec  (  0.1%)
Density matrix formation    ....       0.008 sec  (  0.4%)
Population analysis         ....       0.328 sec  ( 14.3%)
Initial guess               ....       0.010 sec  (  0.4%)
Orbital Transformation      ....       0.000 sec  (  0.0%)
Orbital Orthonormalization  ....       0.003 sec  (  0.1%)
DIIS solution               ....       0.001 sec  (  0.0%)
SOSCF solution              ....       0.010 sec  (  0.4%)
Grid generation             ....       0.589 sec  ( 25.6%)


-------------------------------------------------------------------------------
                          DFT DISPERSION CORRECTION                            
                                                                               
                                 DFTD4 V2.0                                    
-------------------------------------------------------------------------------
The BP86 functional is recognized
Active option DFTDOPT                   ...         5   

-------------------------   ----------------
Dispersion correction           -0.000501410
-------------------------   ----------------

NOTIFICATION: Different basis set in ORCA and otool_gcp:
ORCA: 86  gCP: 49 
If you are NOT using ECPs, check your basis set inputs!
------------------   -----------------
gCP correction             0.002525183
------------------   -----------------

-------------------------   --------------------
FINAL SINGLE POINT ENERGY       -56.581063163086
-------------------------   --------------------

                                *** OPTIMIZATION RUN DONE ***

                            ***************************************
                            *     ORCA property calculations      *
                            ***************************************

                                    ---------------------
                                    Active property flags
                                    ---------------------
   (+) Dipole Moment


------------------------------------------------------------------------------
                       ORCA ELECTRIC PROPERTIES CALCULATION
------------------------------------------------------------------------------

Dipole Moment Calculation                       ... on
Quadrupole Moment Calculation                   ... off
Polarizability Calculation                      ... off
GBWName                                         ... NH3.gbw
Electron density file                           ... NH3.scfp
The origin for moment calculation is the CENTER OF MASS  = (-4.585421, -5.325736 -0.020243)

-------------
DIPOLE MOMENT
-------------
                                X             Y             Z
Electronic contribution:     -0.12034       0.30239       0.15642
Nuclear contribution   :      0.31023      -0.77940      -0.40317
                        -----------------------------------------
Total Dipole Moment    :      0.18989      -0.47701      -0.24675
                        -----------------------------------------
Magnitude (a.u.)       :      0.56963
Magnitude (Debye)      :      1.44789



--------------------
Rotational spectrum 
--------------------
 
Rotational constants in cm-1:     9.670954     9.670867     6.286825 
Rotational constants in MHz : 289927.895221 289925.307560 188474.270681 

 Dipole components along the rotational axes: 
x,y,z [a.u.] :     0.000012    -0.000000    -0.569634 
x,y,z [Debye]:     0.000030    -0.000000    -1.447895 

 


           ************************************************************
           *        Program running with 12 parallel MPI-processes    *
           *              working on a common directory               *
           ************************************************************

-------------------------------------------------------------------------------
                               ORCA SCF HESSIAN
-------------------------------------------------------------------------------

Hessian of the Kohn-Sham DFT energy:
Kohn-Sham wavefunction type                      ... RKS
Hartree-Fock exchange scaling                    ...    0.000
Number of operators                              ...    1
Number of atoms                                  ...    4
Basis set dimensions                             ...   86
Integral neglect threshold                       ... 2.5e-11
Integral primitive cutoff                        ... 2.5e-12

Setting up DFT Hessian calculations              ... 
Electron density on the grid                     ... found on disk
Electron density on the final grid               ... found on disk
Building xc-kernel on the grid                   ... done   (      0.0 sec)
Building xc-kernel on the final grid             ... done   (      0.0 sec)
                                                     done   (      0.2 sec)

Nuclear repulsion Hessian                        ... done   (      0.0 sec)

----------------------------------------------
Forming right-hand sides of CP-SCF equations     ...
----------------------------------------------
One electron integral derivatives                ... done   (      0.2 sec)
Transforming the overlap derivative matrices     ... done   (      0.0 sec)
Making the Q(x) pseudodensities                  ... done   (      0.0 sec)
Adding the E*S(x)*S(y) terms to the Hessian      ... done   (      0.0 sec)
Calculating energy weighted overlap derivatives  ... done   (      0.0 sec)
Two electron integral derivatives (RI)           ... done   (      0.3 sec)
Exchange-correlation integral derivatives        ... done   (      0.9 sec)
tr(F(y)Q(x)) contribution to the Hessian         ... done   (      0.0 sec)
Response fock operator R(S(x)) (RI)              ... done   (      0.3 sec)
XC Response fock operator R(S(x))                ... done   (      0.3 sec)
tr(F(y)S(x)) contribution to the Hessian         ... done   (      0.0 sec)
Transforming and finalizing RHSs                 ... done   (      0.0 sec)

----------------------------------------------
Solving the CP-SCF equations (RI)                ...
----------------------------------------------
     CP-SCF ITERATION   0: 
     CP-SCF ITERATION   1:      0.001148439056
     CP-SCF ITERATION   2:      0.000024226720
     CP-SCF ITERATION   3:      0.000000238375
     CP-SCF ITERATION   4:      0.000000009728

                                                 ... done   (      2.3 sec)
Forming perturbed density Hessian contributions  ... done   (      0.0 sec)
Making the perturbed densities                   ... done   (      0.0 sec)
2nd integral derivative contribs (RI)            ... done   (      0.6 sec)
Exchange-correlation Hessian                     ... done   (      1.4 sec)
Dispersion correction in the Hessian             ... 

------------------- 
Dispersion Gradient 
------------------- 
   1  :    0.000028914   -0.000072711   -0.000037612
   2  :   -0.000050768    0.000011629    0.000006015
   3  :    0.000010850    0.000047983   -0.000017318
   4  :    0.000010850    0.000013590    0.000049168

  |G| =    0.000357407



------------------- 
Dispersion Gradient 
------------------- 
   1  :    0.000029017   -0.000072826   -0.000037672
   2  :   -0.000050318    0.000011567    0.000005983
   3  :    0.000010535    0.000048129   -0.000017402
   4  :    0.000010535    0.000013606    0.000049337

  |G| =    0.000356927

done   (      0.1 sec)
gCP correction in the Hessian                    ... done   (      0.1 sec)
Dipol derivatives                                ... done   (      0.2 sec)

Total SCF Hessian time: 0 days 0 hours 0 min 7 sec 

Writing the Hessian file to the disk             ... done


Maximum memory used throughout the entire calculation: 181.8 MB

-----------------------
VIBRATIONAL FREQUENCIES
-----------------------

Scaling factor for frequencies =  1.000000000  (already applied!)

   0:         0.00 cm**-1
   1:         0.00 cm**-1
   2:         0.00 cm**-1
   3:         0.00 cm**-1
   4:         0.00 cm**-1
   5:         0.00 cm**-1
   6:      1054.43 cm**-1
   7:      1623.29 cm**-1
   8:      1623.31 cm**-1
   9:      3359.58 cm**-1
  10:      3473.99 cm**-1
  11:      3474.02 cm**-1


------------
NORMAL MODES
------------

These modes are the Cartesian displacements weighted by the diagonal matrix
M(i,i)=1/sqrt(m[i]) where m[i] is the mass of the displaced atom
Thus, these vectors are normalized but *not* orthogonal

                  0          1          2          3          4          5    
      0       0.000000   0.000000   0.000000   0.000000   0.000000   0.000000
      1       0.000000   0.000000   0.000000   0.000000   0.000000   0.000000
      2       0.000000   0.000000   0.000000   0.000000   0.000000   0.000000
      3       0.000000   0.000000   0.000000   0.000000   0.000000   0.000000
      4       0.000000   0.000000   0.000000   0.000000   0.000000   0.000000
      5       0.000000   0.000000   0.000000   0.000000   0.000000   0.000000
      6       0.000000   0.000000   0.000000   0.000000   0.000000   0.000000
      7       0.000000   0.000000   0.000000   0.000000   0.000000   0.000000
      8       0.000000   0.000000   0.000000   0.000000   0.000000   0.000000
      9       0.000000   0.000000   0.000000   0.000000   0.000000   0.000000
     10       0.000000   0.000000   0.000000   0.000000   0.000000   0.000000
     11       0.000000   0.000000   0.000000   0.000000   0.000000   0.000000
                  6          7          8          9         10         11    
      0      -0.038339  -0.060796  -0.013571   0.012930   0.043758  -0.059575
      1       0.096319  -0.025703   0.025366  -0.032482  -0.015295  -0.040034
      2       0.049825   0.002910  -0.059478  -0.016812   0.063231   0.031543
      3      -0.022591  -0.048990  -0.010934  -0.576759  -0.481020   0.654812
      4      -0.509002  -0.179946  -0.396883  -0.011839   0.012434  -0.036949
      5      -0.263301  -0.278937   0.627329  -0.006128   0.029836  -0.001926
      6       0.277667   0.350109   0.533379   0.198512   0.120255   0.221485
      7      -0.330228   0.109210  -0.088977   0.449697   0.270188   0.613598
      8      -0.377854   0.466682   0.138022  -0.301837  -0.141800  -0.359914
      9       0.277670   0.543686  -0.333870   0.198568  -0.247285  -0.048454
     10      -0.499203   0.427894   0.133374   0.013500  -0.070081  -0.020344
     11      -0.051202  -0.228179   0.061150   0.541586  -0.766679  -0.076473


-----------
IR SPECTRUM
-----------

 Mode    freq (cm**-1)   T**2         TX         TY         TZ
-------------------------------------------------------------------
   6:      1054.43  105.651356  (  3.426042  -8.607439  -4.452593)
   7:      1623.29   12.673543  (  3.275474   1.385798  -0.156128)
   8:      1623.31   12.672573  (  0.731212  -1.366366   3.204832)
   9:      3359.58    7.514725  (  0.913744  -2.295700  -1.187248)
  10:      3473.99    0.402327  ( -0.354627   0.124085  -0.511047)
  11:      3474.02    0.402768  (  0.482366   0.323943  -0.255249)

The first frequency considered to be a vibration is 6
The total number of vibrations considered is 6


--------------------------
THERMOCHEMISTRY AT 298.15K
--------------------------

Temperature         ... 298.15 K
Pressure            ... 1.00 atm
Total Mass          ... 17.03 AMU

Throughout the following assumptions are being made:
  (1) The electronic state is orbitally nondegenerate
  (2) There are no thermally accessible electronically excited states
  (3) Hindered rotations indicated by low frequency modes are not
      treated as such but are treated as vibrations and this may
      cause some error
  (4) All equations used are the standard statistical mechanics
      equations for an ideal gas
  (5) All vibrations are strictly harmonic

freq.    1054.43  E(vib)   ...       0.02 
freq.    1623.29  E(vib)   ...       0.00 
freq.    1623.31  E(vib)   ...       0.00 
freq.    3359.58  E(vib)   ...       0.00 
freq.    3473.99  E(vib)   ...       0.00 
freq.    3474.02  E(vib)   ...       0.00 

------------
INNER ENERGY
------------

The inner energy is: U= E(el) + E(ZPE) + E(vib) + E(rot) + E(trans)
    E(el)   - is the total energy from the electronic structure calculation
              = E(kin-el) + E(nuc-el) + E(el-el) + E(nuc-nuc)
    E(ZPE)  - the the zero temperature vibrational energy from the frequency calculation
    E(vib)  - the the finite temperature correction to E(ZPE) due to population
              of excited vibrational states
    E(rot)  - is the rotational thermal energy
    E(trans)- is the translational thermal energy

Summary of contributions to the inner energy U:
Electronic energy                ...    -56.58106316 Eh
Zero point energy                ...      0.03328089 Eh      20.88 kcal/mol
Thermal vibrational correction   ...      0.00003569 Eh       0.02 kcal/mol
Thermal rotational correction    ...      0.00141627 Eh       0.89 kcal/mol
Thermal translational correction ...      0.00141627 Eh       0.89 kcal/mol
-----------------------------------------------------------------------
Total thermal energy                    -56.54491404 Eh


Summary of corrections to the electronic energy:
(perhaps to be used in another calculation)
Total thermal correction                  0.00286823 Eh       1.80 kcal/mol
Non-thermal (ZPE) correction              0.03328089 Eh      20.88 kcal/mol
-----------------------------------------------------------------------
Total correction                          0.03614912 Eh      22.68 kcal/mol


--------
ENTHALPY
--------

The enthalpy is H = U + kB*T
                kB is Boltzmann's constant
Total free energy                 ...    -56.54491404 Eh 
Thermal Enthalpy correction       ...      0.00094421 Eh       0.59 kcal/mol
-----------------------------------------------------------------------
Total Enthalpy                    ...    -56.54396983 Eh


Note: Only C1 symmetry has been detected, increase convergence thresholds 
      if your molecule has a higher symmetry. Symmetry factor of 1.0 is   
      used for the rotational entropy correction. 
 

Note: Rotational entropy computed according to Herzberg 
Infrared and Raman Spectra, Chapter V,1, Van Nostrand Reinhold, 1945 
Point Group:  C1, Symmetry Number:   1  
Rotational constants in cm-1:     9.670954     9.670867     6.286825 

Vibrational entropy computed according to the QRRHO of S. Grimme
Chem.Eur.J. 2012 18 9955


-------
ENTROPY
-------

The entropy contributions are T*S = T*(S(el)+S(vib)+S(rot)+S(trans))
     S(el)   - electronic entropy
     S(vib)  - vibrational entropy
     S(rot)  - rotational entropy
     S(trans)- translational entropy
The entropies will be listed as mutliplied by the temperature to get
units of energy

Electronic entropy                ...      0.00000000 Eh      0.00 kcal/mol
Vibrational entropy               ...      0.00004230 Eh      0.03 kcal/mol
Rotational entropy                ...      0.00650043 Eh      4.08 kcal/mol
Translational entropy             ...      0.01636425 Eh     10.27 kcal/mol
-----------------------------------------------------------------------
Final entropy term                ...      0.02290698 Eh     14.37 kcal/mol

In case the symmetry of your molecule has not been determined correctly
or in case you have a reason to use a different symmetry number we print 
out the resulting rotational entropy values for sn=1,12 :
 --------------------------------------------------------
|  sn= 1 | S(rot)=       0.00650043 Eh      4.08 kcal/mol|
|  sn= 2 | S(rot)=       0.00584597 Eh      3.67 kcal/mol|
|  sn= 3 | S(rot)=       0.00546314 Eh      3.43 kcal/mol|
|  sn= 4 | S(rot)=       0.00519152 Eh      3.26 kcal/mol|
|  sn= 5 | S(rot)=       0.00498083 Eh      3.13 kcal/mol|
|  sn= 6 | S(rot)=       0.00480869 Eh      3.02 kcal/mol|
|  sn= 7 | S(rot)=       0.00466314 Eh      2.93 kcal/mol|
|  sn= 8 | S(rot)=       0.00453706 Eh      2.85 kcal/mol|
|  sn= 9 | S(rot)=       0.00442585 Eh      2.78 kcal/mol|
|  sn=10 | S(rot)=       0.00432637 Eh      2.71 kcal/mol|
|  sn=11 | S(rot)=       0.00423638 Eh      2.66 kcal/mol|
|  sn=12 | S(rot)=       0.00415423 Eh      2.61 kcal/mol|
 --------------------------------------------------------


-------------------
GIBBS FREE ENERGY
-------------------

The Gibbs free energy is G = H - T*S

Total enthalpy                    ...    -56.54396983 Eh 
Total entropy correction          ...     -0.02290698 Eh    -14.37 kcal/mol
-----------------------------------------------------------------------
Final Gibbs free energy         ...    -56.56687681 Eh

For completeness - the Gibbs free energy minus the electronic energy
G-E(el)                           ...      0.01418635 Eh      8.90 kcal/mol


Timings for individual modules:

Sum of individual times         ...       29.170 sec (=   0.486 min)
GTO integral calculation        ...        2.630 sec (=   0.044 min)   9.0 %
SCF iterations                  ...       15.104 sec (=   0.252 min)  51.8 %
SCF Gradient evaluation         ...        3.558 sec (=   0.059 min)  12.2 %
Geometry relaxation             ...        0.090 sec (=   0.002 min)   0.3 %
Analytical frequency calculation...        7.788 sec (=   0.130 min)  26.7 %
                             ****ORCA TERMINATED NORMALLY****
TOTAL RUN TIME: 0 days 0 hours 0 minutes 29 seconds 889 msec
