
                                 *****************
                                 * O   R   C   A *
                                 *****************

           --- An Ab Initio, DFT and Semiempirical electronic structure package ---

                  #######################################################
                  #                        -***-                        #
                  #          Department of theory and spectroscopy      #
                  #               Directorship: Frank Neese             #
                  #        Max Planck Institute fuer Kohlenforschung    #
                  #                Kaiser Wilhelm Platz 1               #
                  #                 D-45470 Muelheim/Ruhr               #
                  #                      Germany                        #
                  #                                                     #
                  #                  All rights reserved                #
                  #                        -***-                        #
                  #######################################################


                         Program Version 4.2.1 -  RELEASE  -


 With contributions from (in alphabetic order):
   Daniel Aravena         : Magnetic Suceptibility
   Michael Atanasov       : Ab Initio Ligand Field Theory (pilot matlab implementation)
   Alexander A. Auer      : GIAO ZORA, VPT2
   Ute Becker             : Parallelization
   Giovanni Bistoni       : ED, misc. LED, open-shell LED, HFLD
   Martin Brehm           : Molecular dynamics
   Dmytro Bykov           : SCF Hessian
   Vijay G. Chilkuri      : MRCI spin determinant printing, contributions to CSF-ICE
   Dipayan Datta          : RHF DLPNO-CCSD density
   Achintya Kumar Dutta   : EOM-CC, STEOM-CC
   Dmitry Ganyushin       : Spin-Orbit,Spin-Spin,Magnetic field MRCI
   Miquel Garcia          : C-PCM Hessian, Gaussian charge scheme
   Yang Guo               : DLPNO-NEVPT2, CIM, IAO-localization
   Andreas Hansen         : Spin unrestricted coupled pair/coupled cluster methods
   Benjamin Helmich-Paris : CASSCF linear response (MC-RPA)
   Lee Huntington         : MR-EOM, pCC
   Robert Izsak           : Overlap fitted RIJCOSX, COSX-SCS-MP3, EOM
   Christian Kollmar      : KDIIS, OOCD, Brueckner-CCSD(T), CCSD density
   Simone Kossmann        : Meta GGA functionals, TD-DFT gradient, OOMP2, MP2 Hessian
   Martin Krupicka        : AUTO-CI
   Lucas Lang             : DCDCAS
   Dagmar Lenk            : GEPOL surface, SMD
   Dimitrios Liakos       : Extrapolation schemes; Compound Job, initial MDCI parallelization
   Dimitrios Manganas     : Further ROCIS development; embedding schemes
   Dimitrios Pantazis     : SARC Basis sets
   Taras Petrenko         : DFT Hessian,TD-DFT gradient, ASA, ECA, R-Raman, ABS, FL, XAS/XES, NRVS
   Peter Pinski           : DLPNO-MP2, DLPNO-MP2 Gradient
   Christoph Reimann      : Effective Core Potentials
   Marius Retegan         : Local ZFS, SOC
   Christoph Riplinger    : Optimizer, TS searches, QM/MM, DLPNO-CCSD(T), (RO)-DLPNO pert. Triples
   Tobias Risthaus        : Range-separated hybrids, TD-DFT gradient, RPA, STAB
   Michael Roemelt        : Original ROCIS implementation
   Masaaki Saitow         : Open-shell DLPNO-CCSD energy and density
   Barbara Sandhoefer     : DKH picture change effects
   Avijit Sen             : IP-ROCIS
   Kantharuban Sivalingam : CASSCF convergence, NEVPT2, FIC-MRCI
   Bernardo de Souza      : ESD, SOC TD-DFT
   Georgi Stoychev        : AutoAux, RI-MP2 NMR
   Willem Van den Heuvel  : Paramagnetic NMR
   Boris Wezisla          : Elementary symmetry handling
   Frank Wennmohs         : Technical directorship


 We gratefully acknowledge several colleagues who have allowed us to
 interface, adapt or use parts of their codes:
   Stefan Grimme, W. Hujo, H. Kruse,             : VdW corrections, initial TS optimization,
                  C. Bannwarth                     DFT functionals, gCP, sTDA/sTD-DF
   Ed Valeev, F. Pavosevic, A. Kumar             : LibInt (2-el integral package), F12 methods
   Garnet Chan, S. Sharma, J. Yang, R. Olivares  : DMRG
   Ulf Ekstrom                                   : XCFun DFT Library
   Mihaly Kallay                                 : mrcc  (arbitrary order and MRCC methods)
   Andreas Klamt, Michael Diedenhofen            : otool_cosmo (COSMO solvation model)
   Jiri Pittner, Ondrej Demel                    : Mk-CCSD
   Frank Weinhold                                : gennbo (NPA and NBO analysis)
   Christopher J. Cramer and Donald G. Truhlar   : smd solvation model
   Lars Goerigk                                  : TD-DFT with DH, B97 family of functionals
   V. Asgeirsson, H. Jonsson                     : NEB implementation
   FAccTs GmbH                                   : IRC, NEB, NEB-TS, Multilevel, MM, QM/MM, CI optimization
   S Lehtola, MJT Oliveira, MAL Marques          : LibXC Library


 Your calculation uses the libint2 library for the computation of 2-el integrals
 For citations please refer to: http://libint.valeyev.net

 Your ORCA version has been built with support for libXC version: 4.2.3
 For citations please refer to: https://tddft.org/programs/libxc/

 This ORCA versions uses:
   CBLAS   interface :  Fast vector & matrix operations
   LAPACKE interface :  Fast linear algebra routines
   SCALAPACK package :  Parallel linear algebra routines




***************************************
The coordinates will be read from file: init.xyz
***************************************


Your calculation utilizes the geometrical counterpoise correction gCP
Please cite in your paper:
H.Kruse, S. Grimme J.Chem.Phys., 136, (2012), 154101 
   

Your calculation utilizes the atom-pairwise dispersion correction
based on tight binding partial charges (D4)
Cite in your paper:
E.Caldeweyher, C.Bannwarth, S.Grimme, J.Chem.Phys., (2017), 147, 034112.
E.Caldeweyher, S.Ehlert, A.Hansen, H.Neugebauer, S.Grimme, J.Chem.Phys., (2018), in progress.
   

----- Orbital basis set information -----
Your calculation utilizes the basis: 6-311G(3df,3pd)
   H, Li - Ne  : R. Krishnan, J. S. Binkley, R. Seeger and J. A. Pople, J. Chem. Phys. 72, 650 (1980).
   Na - Ar     : A. D. McLean and G. S. Chandler J. Chem. Phys. 72, 5639, (1980).
   K  - Ca     : J.-P. Blaudeau, M. P. McGrath, L. A. Curtiss and L. Radom, J. Chem. Phys. 107, 5016 (1997).
   Ga - Kr     : L. A. Curtiss, M. P. McGrath, J.-P. Blandeau, N. E. Davis, R. C. Binning and L. Radom, J. Chem. Phys. 103, 6104 (1995).
   Pol./Diff.
   H, Li - Cl  : T. Clark, J. Chandrasekhar and P. v. R. Schleyer, J. Comp. Chem. 4, 294 (1983).
   H - Ne      : M. J. Frisch, J. A. Pople and J. S. Binkley, J. Chem. Phys. 80, 3265 (1984).

----- AuxJ basis set information -----
Your calculation utilizes the auxiliary basis: def2/J
   F. Weigend, Phys. Chem. Chem. Phys. 8, 1057 (2006).

================================================================================
                                        WARNINGS
                       Please study these warnings very carefully!
================================================================================


WARNING: The environment variable RSH_COMMAND is not set!
  ===> : All Displacements for the Numerical Hessian calculation
         will be started on localhost

WARNING: Geometry Optimization
  ===> : Switching off AutoStart
         For restart on a previous wavefunction, please use MOREAD

INFO   : the flag for use of LIBINT has been found!

================================================================================
                                       INPUT FILE
================================================================================
NAME = NH3‡.inp
|  1> ! BP86 D4 gCP(DFT/TZ) 6-311G(3df,3pd) OptTS Freq IRC TightOpt TightSCF Grid4 FinalGrid5 PrintBasis PrintMOs NBO
|  2> 
|  3> %geom
|  4>  ts_mode
|  5>   {D 1 2 3 0}
|  6>  end
|  7>  ts_active_atoms
|  8>   {0 1 2 3}
|  9>  end
| 10>  calc_hess true
| 11>  numhess true
| 12> end
| 13> 
| 14> %irc
| 15>  maxiter 1000
| 16>  de_init_displ 0.25
| 17>  TolMAXG 1e-3
| 18>  TolRMSG 2e-4
| 19> end
| 20> 
| 21> %pal
| 22>  nprocs 12
| 23> end
| 24> 
| 25> *xyzfile 0 1 init.xyz
| 26> 
| 27>                          ****END OF INPUT****
================================================================================

                       *****************************
                       * Geometry Optimization Run *
                       *****************************

Geometry optimization settings:
Update method            Update   .... Bofill
Choice of coordinates    CoordSys .... Z-matrix Internals
Initial Hessian          InHess   .... Almoef's Model

Convergence Tolerances:
Energy Change            TolE     ....  1.0000e-06 Eh
Max. Gradient            TolMAXG  ....  1.0000e-04 Eh/bohr
RMS Gradient             TolRMSG  ....  3.0000e-05 Eh/bohr
Max. Displacement        TolMAXD  ....  1.0000e-03 bohr
RMS Displacement         TolRMSD  ....  6.0000e-04 bohr
Strict Convergence                ....  False
------------------------------------------------------------------------------
                        ORCA OPTIMIZATION COORDINATE SETUP
------------------------------------------------------------------------------

The optimization will be done in new redundant internal coordinates
Making redundant internal coordinates   ...  (new redundants) done
Following TS mode number                ...    internal coordinate number:  7
TS-active-atoms for coordinate setup... 0 1 2 3 
Evaluating the initial hessian          ...  (Is done on the fly) done
Evaluating the coordinates              ...  done
Calculating the B-matrix                .... done
Calculating the G-matrix                .... done
Diagonalizing the G-matrix              .... done
The first mode is                       ....    2
The number of degrees of freedom        ....    6

    -----------------------------------------------------------------
                    Redundant Internal Coordinates


    -----------------------------------------------------------------
         Definition                    Initial Value    d2E/dq (diagonal element)
    -----------------------------------------------------------------
      1. B(H   1,N   0)                  1.0050         0.000000   
      2. B(H   2,N   0)                  1.0051         0.000000   
      3. B(H   3,N   0)                  1.0051         0.000000   
      4. A(H   1,N   0,H   3)          120.0001         0.000000   
      5. A(H   2,N   0,H   3)          119.9999         0.000000   
      6. A(H   1,N   0,H   2)          120.0001         0.000000   
      7. D(N   0,H   3,H   2,H   1)      0.0000         0.000000   
      8. I(H   1,H   3,H   2,N   0)      0.0000         0.000000   
    -----------------------------------------------------------------

Number of atoms                         .... 4
Number of degrees of freedom            .... 8

         *************************************************************
         *                GEOMETRY OPTIMIZATION CYCLE   1            *
         *************************************************************
---------------------------------
CARTESIAN COORDINATES (ANGSTROEM)
---------------------------------
  N      0.000001   -0.000000    0.000000
  H      1.005050    0.000000   -0.000000
  H     -0.502525    0.870399   -0.000000
  H     -0.502525   -0.870399   -0.000000

----------------------------
CARTESIAN COORDINATES (A.U.)
----------------------------
  NO LB      ZA    FRAG     MASS         X           Y           Z
   0 N     7.0000    0    14.007    0.000002   -0.000000    0.000000
   1 H     1.0000    0     1.008    1.899269    0.000000   -0.000000
   2 H     1.0000    0     1.008   -0.949635    1.644816   -0.000000
   3 H     1.0000    0     1.008   -0.949635   -1.644816   -0.000000

--------------------------------
INTERNAL COORDINATES (ANGSTROEM)
--------------------------------
 N      0   0   0     0.000000000000     0.00000000     0.00000000
 H      1   0   0     1.005048894079     0.00000000     0.00000000
 H      1   2   0     1.005051099207   120.00005501     0.00000000
 H      1   2   3     1.005051099264   120.00005524   179.99999915

---------------------------
INTERNAL COORDINATES (A.U.)
---------------------------
 N      0   0   0     0.000000000000     0.00000000     0.00000000
 H      1   0   0     1.899267161010     0.00000000     0.00000000
 H      1   2   0     1.899271328099   120.00005501     0.00000000
 H      1   2   3     1.899271328206   120.00005524   179.99999915

---------------------
BASIS SET INFORMATION
---------------------
There are 2 groups of distinct atoms

 Group   1 Type N   : 11s5p3d1f contracted to 4s3p3d1f pattern {6311/311/111/1}
 Group   2 Type H   : 5s3p1d contracted to 3s3p1d pattern {311/111/1}

Atom   0N    basis set group =>   1
Atom   1H    basis set group =>   2
Atom   2H    basis set group =>   2
Atom   3H    basis set group =>   2

-------------------------
BASIS SET IN INPUT FORMAT
-------------------------

 # Basis set for element : H 
 NewGTO H 
 S 3 
   1      33.8650000000      0.0254938145
   2       5.0947900000      0.1903731086
   3       1.1587900000      0.8521614860
 S 1 
   1       0.3258400000      1.0000000000
 S 1 
   1       0.1027410000      1.0000000000
 P 1 
   1       3.0000000000      1.0000000000
 P 1 
   1       0.7500000000      1.0000000000
 P 1 
   1       0.1875000000      1.0000000000
 D 1 
   1       1.0000000000      1.0000000000
  end;

 # Basis set for element : N 
 NewGTO N 
 S 6 
   1    6293.4800000000      0.0019697881
   2     949.0440000000      0.0149612859
   3     218.7760000000      0.0735005308
   4      63.6916000000      0.2489367658
   5      18.8282000000      0.6024594331
   6       2.7202300000      0.2562017589
 S 3 
   1      30.6331000000      0.1119060795
   2       7.0261400000      0.9216666549
   3       2.1120500000     -0.0025691918
 P 3 
   1      30.6331000000      0.0383119186
   2       7.0261400000      0.2374031155
   3       2.1120500000      0.8175923978
 S 1 
   1       0.6840090000      1.0000000000
 P 1 
   1       0.6840090000      1.0000000000
 S 1 
   1       0.2008780000      1.0000000000
 P 1 
   1       0.2008780000      1.0000000000
 D 1 
   1       3.6520000000      1.0000000000
 D 1 
   1       0.9130000000      1.0000000000
 D 1 
   1       0.2282500000      1.0000000000
 F 1 
   1       1.0000000000      1.0000000000
  end;

---------------------------------
AUXILIARY/J BASIS SET INFORMATION
---------------------------------
There are 2 groups of distinct atoms

 Group   1 Type N   : 12s5p4d2f1g contracted to 6s4p3d1f1g pattern {711111/2111/211/2/1}
 Group   2 Type H   : 5s2p1d contracted to 3s1p1d pattern {311/2/1}

Atom   0N    basis set group =>   1
Atom   1H    basis set group =>   2
Atom   2H    basis set group =>   2
Atom   3H    basis set group =>   2

-------------------------------------
AUXILIARY/J BASIS SET IN INPUT FORMAT
-------------------------------------

 # Auxiliary/J basis set for element : H 
 NewAuxJGTO H 
 S 3 
   1      15.6752927000      0.1007184237
   2       3.6063578000      0.3404257499
   3       1.2080016000      0.6491996172
 S 1 
   1       0.4726794000      1.0000000000
 S 1 
   1       0.2018100000      1.0000000000
 P 2 
   1       2.0281365000      0.5596620919
   2       0.5358730000      0.5596620919
 D 1 
   1       2.2165124000      1.0000000000
  end;

 # Auxiliary/J basis set for element : N 
 NewAuxJGTO N 
 S 7 
   1    2542.9401785000      0.0128431329
   2    1029.5472946000      0.0206655120
   3     424.9053546000      0.0652200677
   4     178.4573708000      0.1617388940
   5      76.1362742000      0.3094256941
   6      32.9338653000      0.3918849307
   7      14.4155436000      0.1822470660
 S 1 
   1       6.3718891000     -1.0000000000
 S 1 
   1       2.8381742000      1.0000000000
 S 1 
   1       1.2711793000      1.0000000000
 S 1 
   1       0.5712407000      1.0000000000
 S 1 
   1       0.2569887000      1.0000000000
 P 2 
   1      17.8975990000     -1.0974070137
   2       6.5346319000      0.1380055963
 P 1 
   1       2.3523645000      1.0000000000
 P 1 
   1       0.8397377000      1.0000000000
 P 1 
   1       0.2989335000      1.0000000000
 D 2 
   1       7.6909870000      0.1770780943
   2       2.3044972000      0.8918319220
 D 1 
   1       0.8403987000      1.0000000000
 D 1 
   1       0.3303797000      1.0000000000
 F 2 
   1       2.3331076000      0.6223178877
   2       0.8446137000      0.5036714203
 G 1 
   1       1.4037700000     -1.0000000000
  end;



           ************************************************************
           *        Program running with 12 parallel MPI-processes    *
           *              working on a common directory               *
           ************************************************************
------------------------------------------------------------------------------
                           ORCA GTO INTEGRAL CALCULATION
                           -- RI-GTO INTEGRALS CHOSEN --
------------------------------------------------------------------------------

                         BASIS SET STATISTICS AND STARTUP INFO

Gaussian basis set:
 # of primitive gaussian shells          ...   47
 # of primitive gaussian functions       ...  105
 # of contracted shells                  ...   32
 # of contracted basis functions         ...   86
 Highest angular momentum                ...    3
 Maximum contraction depth               ...    6
Auxiliary gaussian basis set:
 # of primitive gaussian shells          ...   48
 # of primitive gaussian functions       ...  118
 # of contracted shells                  ...   30
 # of contracted aux-basis functions     ...   82
 Highest angular momentum                ...    4
 Maximum contraction depth               ...    7
Ratio of auxiliary to basis functions    ...  0.95
Integral package used                  ... LIBINT
 One Electron integrals                  ... done
 Ordering auxiliary basis shells         ... done
 Integral threshhold             Thresh  ...  2.500e-11
 Primitive cut-off               TCut    ...  2.500e-12
 Pre-screening matrix                    ... done
 Shell pair data                         ... 
 Ordering of the shell pairs             ... done (   0.000 sec) 528 of 528 pairs
 Determination of significant pairs      ... done (   0.000 sec)
 Creation of shell pair data             ... done (   0.000 sec)
 Storage of shell pair data              ... done (   0.017 sec)
 Shell pair data done in (   0.017 sec)
 Computing two index integrals           ... done
 Cholesky decomposition of the V-matrix  ... done


Timings:
 Total evaluation time                   ...   0.206 sec (  0.003 min)
 One electron matrix time                ...   0.023 sec (  0.000 min) = 11.1%
 Schwartz matrix evaluation time         ...   0.142 sec (  0.002 min) = 68.9%
 Two index repulsion integral time       ...   0.002 sec (  0.000 min) =  0.8%
 Cholesky decomposition of V             ...   0.003 sec (  0.000 min) =  1.5%
 Three index repulsion integral time     ...   0.000 sec (  0.000 min) =  0.0%



           ************************************************************
           *        Program running with 12 parallel MPI-processes    *
           *              working on a common directory               *
           ************************************************************
-------------------------------------------------------------------------------
                                 ORCA SCF
-------------------------------------------------------------------------------

------------
SCF SETTINGS
------------
Hamiltonian:
 Density Functional     Method          .... DFT(GTOs)
 Exchange Functional    Exchange        .... B88
   X-Alpha parameter    XAlpha          ....  0.666667
   Becke's b parameter  XBeta           ....  0.004200
 Correlation Functional Correlation     .... P86
 LDA part of GGA corr.  LDAOpt          .... PW91-LDA
 Gradients option       PostSCFGGA      .... off
   Density functional embedding theory  .... OFF
 RI-approximation to the Coulomb term is turned on
   Number of auxiliary basis functions  .... 82


General Settings:
 Integral files         IntName         .... NH3‡
 Hartree-Fock type      HFTyp           .... RHF
 Total Charge           Charge          ....    0
 Multiplicity           Mult            ....    1
 Number of Electrons    NEL             ....   10
 Basis Dimension        Dim             ....   86
 Nuclear Repulsion      ENuc            ....     11.9688362036 Eh

Convergence Acceleration:
 DIIS                   CNVDIIS         .... on
   Start iteration      DIISMaxIt       ....    12
   Startup error        DIISStart       ....  0.200000
   # of expansion vecs  DIISMaxEq       ....     5
   Bias factor          DIISBfac        ....   1.050
   Max. coefficient     DIISMaxC        ....  10.000
 Newton-Raphson         CNVNR           .... off
 SOSCF                  CNVSOSCF        .... on
   Start iteration      SOSCFMaxIt      ....   150
   Startup grad/error   SOSCFStart      ....  0.003300
 Level Shifting         CNVShift        .... on
   Level shift para.    LevelShift      ....    0.2500
   Turn off err/grad.   ShiftErr        ....    0.0010
 Zerner damping         CNVZerner       .... off
 Static damping         CNVDamp         .... on
   Fraction old density DampFac         ....    0.7000
   Max. Damping (<1)    DampMax         ....    0.9800
   Min. Damping (>=0)   DampMin         ....    0.0000
   Turn off err/grad.   DampErr         ....    0.1000
 Fernandez-Rico         CNVRico         .... off

SCF Procedure:
 Maximum # iterations   MaxIter         ....   125
 SCF integral mode      SCFMode         .... Direct
   Integral package                     .... LIBINT
 Reset frequency        DirectResetFreq ....    20
 Integral Threshold     Thresh          ....  2.500e-11 Eh
 Primitive CutOff       TCut            ....  2.500e-12 Eh

Convergence Tolerance:
 Convergence Check Mode ConvCheckMode   .... Total+1el-Energy
 Convergence forced     ConvForced      .... 0
 Energy Change          TolE            ....  1.000e-08 Eh
 1-El. energy change                    ....  1.000e-05 Eh
 Orbital Gradient       TolG            ....  1.000e-05
 Orbital Rotation angle TolX            ....  1.000e-05
 DIIS Error             TolErr          ....  5.000e-07


Diagonalization of the overlap matrix:
Smallest eigenvalue                        ... 1.158e-03
Time for diagonalization                   ...    0.004 sec
Threshold for overlap eigenvalues          ... 1.000e-08
Number of eigenvalues below threshold      ... 0
Time for construction of square roots      ...    0.009 sec
Total time needed                          ...    0.013 sec

-------------------
DFT GRID GENERATION
-------------------

General Integration Accuracy     IntAcc      ...  4.670
Radial Grid Type                 RadialGrid  ... Gauss-Chebyshev
Angular Grid (max. acc.)         AngularGrid ... Lebedev-302
Angular grid pruning method      GridPruning ... 3 (G Style)
Weight generation scheme         WeightScheme... Becke
Basis function cutoff            BFCut       ...    1.0000e-11
Integration weight cutoff        WCut        ...    1.0000e-14
Grids for H and He will be reduced by one unit

# of grid points (after initial pruning)     ...  16394 (   0.0 sec)
# of grid points (after weights+screening)   ...  16135 (   0.0 sec)
nearest neighbour list constructed           ...    0.0 sec
Grid point re-assignment to atoms done       ...    0.0 sec
Grid point division into batches done        ...    0.1 sec
Reduced shell lists constructed in    0.1 sec

Total number of grid points                  ...    16135
Total number of batches                      ...      254
Average number of points per batch           ...       63
Average number of grid points per atom       ...     4034
Average number of shells per batch           ...    30.09 (94.02%)
Average number of basis functions per batch  ...    80.87 (94.03%)
Average number of large shells per batch     ...    29.13 (96.82%)
Average number of large basis fcns per batch ...    78.52 (97.10%)
Maximum spatial batch extension              ...   2.60,  2.57, 15.66 au
Average spatial batch extension              ...   0.11,  0.12,  0.22 au

Time for grid setup =    0.122 sec

------------------------------
INITIAL GUESS: MODEL POTENTIAL
------------------------------
Loading Hartree-Fock densities                     ... done
Calculating cut-offs                               ... done
Setting up the integral package                    ... done
Initializing the effective Hamiltonian             ... done
Starting the Coulomb interaction                   ... done (   0.0 sec)
Reading the grid                                   ... done
Mapping shells                                     ... done
Starting the XC term evaluation                    ... done (   0.0 sec)
  promolecular density results
     # of electrons  =      9.998560843
     EX              =     -7.451104717
     EC              =     -0.337134871
     EX+EC           =     -7.788239588
Transforming the Hamiltonian                       ... done (   0.0 sec)
Diagonalizing the Hamiltonian                      ... done (   0.0 sec)
Back transforming the eigenvectors                 ... done (   0.0 sec)
Now organizing SCF variables                       ... done
                      ------------------
                      INITIAL GUESS DONE (   0.3 sec)
                      ------------------
--------------
SCF ITERATIONS
--------------
ITER       Energy         Delta-E        Max-DP      RMS-DP      [F,P]     Damp
               ***  Starting incremental Fock matrix formation  ***
  0    -56.4483072177   0.000000000000 0.09552248  0.00217339  0.3724420 0.7000
  1    -56.5140374674  -0.065730249685 0.04536010  0.00124834  0.1358572 0.7000
                               ***Turning on DIIS***
  2    -56.5322950281  -0.018257560736 0.03759205  0.00130427  0.0152400 0.0000
  3    -56.5659987536  -0.033703725431 0.02115271  0.00070193  0.0927161 0.0000
  4    -56.5732528884  -0.007254134819 0.00542146  0.00024928  0.0231682 0.0000
  5    -56.5737611166  -0.000508228213 0.00284343  0.00008639  0.0050759 0.0000
                      *** Initiating the SOSCF procedure ***
                           *** Shutting down DIIS ***
                      *** Re-Reading the Fockian *** 
                      *** Removing any level shift *** 
ITER      Energy       Delta-E        Grad      Rot      Max-DP    RMS-DP
  6    -56.57378977  -0.0000286575  0.000416  0.000416  0.001154  0.000029
               *** Restarting incremental Fock matrix formation ***
  7    -56.57379148  -0.0000017050  0.000168  0.000325  0.000542  0.000016
  8    -56.57379145   0.0000000286  0.000155  0.000090  0.000195  0.000004
  9    -56.57379161  -0.0000001565  0.000013  0.000023  0.000085  0.000002
 10    -56.57379161  -0.0000000026  0.000003  0.000005  0.000015  0.000000
                 **** Energy Check signals convergence ****
              ***Rediagonalizing the Fockian in SOSCF/NRSCF***

               *****************************************************
               *                     SUCCESS                       *
               *           SCF CONVERGED AFTER  11 CYCLES          *
               *****************************************************

Setting up the final grid:

General Integration Accuracy     IntAcc      ...  5.010
Radial Grid Type                 RadialGrid  ... Gauss-Chebyshev
Angular Grid (max. acc.)         AngularGrid ... Lebedev-434
Angular grid pruning method      GridPruning ... 3 (G Style)
Weight generation scheme         WeightScheme... Becke
Basis function cutoff            BFCut       ...    1.0000e-11
Integration weight cutoff        WCut        ...    1.0000e-14
Grids for H and He will be reduced by one unit

# of grid points (after initial pruning)     ...  30666 (   0.0 sec)
# of grid points (after weights+screening)   ...  30107 (   0.0 sec)
nearest neighbour list constructed           ...    0.0 sec
Grid point re-assignment to atoms done       ...    0.0 sec
Grid point division into batches done        ...    0.3 sec
Reduced shell lists constructed in    0.3 sec

Total number of grid points                  ...    30107
Total number of batches                      ...      473
Average number of points per batch           ...       63
Average number of grid points per atom       ...     7527
Average number of shells per batch           ...    30.44 (95.12%)
Average number of basis functions per batch  ...    82.05 (95.41%)
Average number of large shells per batch     ...    29.41 (96.63%)
Average number of large basis fcns per batch ...    78.49 (95.66%)
Maximum spatial batch extension              ...   2.66,  2.74, 15.10 au
Average spatial batch extension              ...   0.09,  0.10,  0.15 au

Final grid set up in    0.4 sec
Final integration                            ... done (   0.1 sec)
Change in XC energy                          ...    -0.000003837
Integrated number of electrons               ...     9.999999941
Previous integrated no of electrons          ...    10.000045849

----------------
TOTAL SCF ENERGY
----------------

Total Energy       :          -56.57379545 Eh           -1539.45124 eV

Components:
Nuclear Repulsion  :           11.96883620 Eh             325.68859 eV
Electronic Energy  :          -68.54263165 Eh           -1865.13983 eV
One Electron Energy:          -99.82404236 Eh           -2716.35029 eV
Two Electron Energy:           31.28141071 Eh             851.21046 eV

Virial components:
Potential Energy   :         -112.93106641 Eh           -3073.01055 eV
Kinetic Energy     :           56.35727097 Eh            1533.55931 eV
Virial Ratio       :            2.00384200


DFT components:
N(Alpha)           :        4.999999970612 electrons
N(Beta)            :        4.999999970612 electrons
N(Total)           :        9.999999941224 electrons
E(X)               :       -7.696215444293 Eh       
E(C)               :       -0.345734407433 Eh       
E(XC)              :       -8.041949851727 Eh       
DFET-embed. en.    :        0.000000000000 Eh       

---------------
SCF CONVERGENCE
---------------

  Last Energy change         ...   -5.0792e-10  Tolerance :   1.0000e-08
  Last MAX-Density change    ...    3.3805e-07  Tolerance :   1.0000e-07
  Last RMS-Density change    ...    6.5210e-09  Tolerance :   5.0000e-09
  Last Orbital Gradient      ...    1.2629e-07  Tolerance :   1.0000e-05
  Last Orbital Rotation      ...    6.0813e-08  Tolerance :   1.0000e-05

             **** THE GBW FILE WAS UPDATED (NH3‡.gbw) ****
             **** DENSITY FILE WAS UPDATED (NH3‡.scfp) ****
             **** ENERGY FILE WAS UPDATED (NH3‡.en.tmp) ****
             **** THE GBW FILE WAS UPDATED (NH3‡.gbw) ****
             **** DENSITY FILE WAS UPDATED (NH3‡.scfp) ****
----------------
ORBITAL ENERGIES
----------------

  NO   OCC          E(Eh)            E(eV) 
   0   2.0000     -13.952352      -379.6628 
   1   2.0000      -0.753692       -20.5090 
   2   2.0000      -0.426700       -11.6111 
   3   2.0000      -0.426700       -11.6111 
   4   2.0000      -0.188802        -5.1376 
   5   0.0000       0.029701         0.8082 
   6   0.0000       0.099806         2.7159 
   7   0.0000       0.099811         2.7160 
   8   0.0000       0.201826         5.4920 
   9   0.0000       0.201843         5.4924 
  10   0.0000       0.261185         7.1072 
  11   0.0000       0.322530         8.7765 
  12   0.0000       0.322533         8.7766 
  13   0.0000       0.329349         8.9620 
  14   0.0000       0.432608        11.7719 
  15   0.0000       0.432642        11.7728 
  16   0.0000       0.499440        13.5904 
  17   0.0000       0.612637        16.6707 
  18   0.0000       0.634720        17.2716 
  19   0.0000       0.671901        18.2834 
  20   0.0000       0.671921        18.2839 
  21   0.0000       0.729874        19.8609 
  22   0.0000       0.729959        19.8632 
  23   0.0000       0.825465        22.4621 
  24   0.0000       0.825604        22.4658 
  25   0.0000       0.848925        23.1004 
  26   0.0000       1.028280        27.9809 
  27   0.0000       1.035546        28.1786 
  28   0.0000       1.035603        28.1802 
  29   0.0000       1.618229        44.0342 
  30   0.0000       1.618283        44.0357 
  31   0.0000       1.713349        46.6226 
  32   0.0000       1.727670        47.0123 
  33   0.0000       1.902540        51.7708 
  34   0.0000       1.902632        51.7733 
  35   0.0000       2.051105        55.8134 
  36   0.0000       2.143610        58.3306 
  37   0.0000       2.143625        58.3310 
  38   0.0000       2.485845        67.6433 
  39   0.0000       2.485898        67.6447 
  40   0.0000       2.508288        68.2540 
  41   0.0000       2.669554        72.6423 
  42   0.0000       2.669601        72.6435 
  43   0.0000       2.878145        78.3183 
  44   0.0000       2.933464        79.8236 
  45   0.0000       2.933478        79.8240 
  46   0.0000       3.016321        82.0783 
  47   0.0000       3.044202        82.8370 
  48   0.0000       3.044213        82.8372 
  49   0.0000       3.168437        86.2176 
  50   0.0000       3.168514        86.2196 
  51   0.0000       3.448458        93.8373 
  52   0.0000       3.498602        95.2018 
  53   0.0000       3.617951        98.4495 
  54   0.0000       3.761826       102.3645 
  55   0.0000       4.043558       110.0308 
  56   0.0000       4.043563       110.0309 
  57   0.0000       4.058111       110.4268 
  58   0.0000       4.058176       110.4286 
  59   0.0000       4.302740       117.0835 
  60   0.0000       4.354182       118.4833 
  61   0.0000       4.354206       118.4840 
  62   0.0000       4.988308       135.7388 
  63   0.0000       4.995010       135.9211 
  64   0.0000       4.995018       135.9213 
  65   0.0000       5.073699       138.0624 
  66   0.0000       5.073708       138.0626 
  67   0.0000       5.296472       144.1243 
  68   0.0000       5.804754       157.9554 
  69   0.0000       6.021848       163.8628 
  70   0.0000       6.021878       163.8636 
  71   0.0000       8.140854       221.5239 
  72   0.0000       8.140860       221.5241 
  73   0.0000       8.149901       221.7701 
  74   0.0000       8.283885       225.4160 
  75   0.0000       8.500976       231.3233 
  76   0.0000       8.501006       231.3241 
  77   0.0000       8.841875       240.5996 
  78   0.0000       8.841879       240.5998 
  79   0.0000       9.635990       262.2086 
  80   0.0000      10.565714       287.5077 
  81   0.0000      10.565750       287.5087 
  82   0.0000      10.846447       295.1468 
  83   0.0000      11.437746       311.2369 
  84   0.0000      11.437758       311.2372 
  85   0.0000      36.964997      1005.8687 
------------------
MOLECULAR ORBITALS
------------------
                      0         1         2         3         4         5   
                 -13.95235  -0.75369  -0.42670  -0.42670  -0.18880   0.02970
                   2.00000   2.00000   2.00000   2.00000   2.00000   0.00000
                  --------  --------  --------  --------  --------  --------
  0N   1s        -0.558803  0.115189 -0.000000 -0.000000  0.000000 -0.063453
  0N   2s        -0.462381  0.179754 -0.000001 -0.000000  0.000000 -0.102882
  0N   1pz        0.000000  0.000000 -0.000000  0.000000 -0.277601 -0.000000
  0N   1px        0.000000  0.000001  0.222908  0.000111 -0.000000  0.000001
  0N   1py        0.000000 -0.000000  0.000111 -0.222906  0.000000  0.000000
  0N   3s        -0.026403 -0.494244  0.000007  0.000000 -0.000000  0.271423
  0N   2pz        0.000000  0.000000 -0.000000  0.000000 -0.395167 -0.000000
  0N   2px       -0.000000 -0.000004  0.304906  0.000152 -0.000000 -0.000122
  0N   2py       -0.000000  0.000000  0.000152 -0.304926 -0.000000  0.000000
  0N   4s        -0.033578 -0.377424 -0.000052 -0.000000  0.000000  1.480089
  0N   3pz        0.000000  0.000000 -0.000000 -0.000000 -0.383340  0.000000
  0N   3px       -0.000000  0.000029  0.151956  0.000076 -0.000000 -0.000600
  0N   3py       -0.000000  0.000000  0.000076 -0.152079 -0.000000  0.000000
  0N   1dz2      -0.000391  0.001225 -0.000000 -0.000000  0.000000  0.002901
  0N   1dxz       0.000000 -0.000000 -0.000000  0.000000 -0.000000  0.000000
  0N   1dyz       0.000000  0.000000 -0.000000  0.000000 -0.000000 -0.000000
  0N   1dx2y2     0.000000  0.000000  0.002815  0.000001 -0.000000  0.000003
  0N   1dxy      -0.000000 -0.000000 -0.000001  0.002814 -0.000000 -0.000000
  0N   2dz2       0.006107  0.015781  0.000002  0.000000  0.000000 -0.019282
  0N   2dxz      -0.000000  0.000000 -0.000000 -0.000000 -0.000000 -0.000000
  0N   2dyz      -0.000000 -0.000000 -0.000000  0.000000 -0.000000  0.000000
  0N   2dx2y2    -0.000000 -0.000001  0.011356  0.000006  0.000000 -0.000051
  0N   2dxy       0.000000 -0.000000 -0.000006  0.011367  0.000000  0.000000
  0N   3dz2       0.003096  0.008426  0.000007  0.000000 -0.000000 -0.008669
  0N   3dxz       0.000000 -0.000000 -0.000000  0.000000 -0.000002 -0.000000
  0N   3dyz       0.000000  0.000000  0.000000  0.000000  0.000000 -0.000000
  0N   3dx2y2    -0.000000  0.000011 -0.021943 -0.000011 -0.000000 -0.000214
  0N   3dxy       0.000000 -0.000000  0.000011 -0.021880  0.000000 -0.000000
  0N   1f0       -0.000000 -0.000000  0.000000  0.000000  0.005384 -0.000000
  0N   1f+1       0.000000 -0.000000 -0.003724 -0.000002  0.000000  0.000015
  0N   1f-1       0.000000 -0.000000 -0.000002  0.003728  0.000000  0.000000
  0N   1f+2       0.000000 -0.000000 -0.000000 -0.000000 -0.000001 -0.000000
  0N   1f-2       0.000000 -0.000000 -0.000000 -0.000000 -0.000000  0.000000
  0N   1f+3       0.003059  0.004300  0.000002  0.000000 -0.000000 -0.014404
  0N   1f-3       0.000000 -0.000000 -0.000000  0.000001 -0.000000 -0.000000
  1H   1s         0.000495 -0.091331  0.177075  0.000088  0.000000 -0.043376
  1H   2s         0.016921 -0.068868  0.272368  0.000136 -0.000000 -0.176125
  1H   3s         0.001092 -0.005800  0.134534  0.000067  0.000000 -0.647997
  1H   1pz       -0.000000 -0.000000  0.000000 -0.000000 -0.003748 -0.000000
  1H   1px        0.000450  0.003153 -0.004151 -0.000002 -0.000000 -0.004555
  1H   1py        0.000000  0.000000  0.000001 -0.001720 -0.000000  0.000000
  1H   2pz        0.000000 -0.000000  0.000000 -0.000000 -0.016642  0.000000
  1H   2px       -0.008295  0.010512 -0.019660 -0.000010  0.000000  0.013262
  1H   2py       -0.000000  0.000000  0.000006 -0.012690 -0.000000 -0.000000
  1H   3pz        0.000000  0.000000  0.000000  0.000000 -0.067286 -0.000000
  1H   3px       -0.003291 -0.001498 -0.026347 -0.000013  0.000000  0.015209
  1H   3py       -0.000000  0.000000 -0.000000  0.000321 -0.000000  0.000000
  1H   1dz2      -0.001632  0.000211 -0.002114 -0.000001  0.000000  0.003178
  1H   1dxz      -0.000000 -0.000000 -0.000000 -0.000000  0.005345  0.000000
  1H   1dyz      -0.000000 -0.000000 -0.000000 -0.000000  0.000000  0.000000
  1H   1dx2y2     0.002755  0.000352  0.003385  0.000002 -0.000000 -0.004960
  1H   1dxy       0.000000  0.000000 -0.000002  0.003460  0.000000 -0.000000
  2H   1s         0.000495 -0.091332 -0.088461 -0.153399  0.000000 -0.043352
  2H   2s         0.016920 -0.068839 -0.136041 -0.235817  0.000000 -0.176943
  2H   3s         0.001092 -0.005775 -0.067204 -0.116489  0.000000 -0.648744
  2H   1pz       -0.000000 -0.000000 -0.000000 -0.000000 -0.003749  0.000000
  2H   1px       -0.000225 -0.001576  0.000254 -0.002543  0.000000  0.002281
  2H   1py        0.000389  0.002731  0.002541  0.002686 -0.000000 -0.003951
  2H   2pz        0.000000 -0.000000 -0.000000 -0.000000 -0.016640 -0.000000
  2H   2px        0.004147 -0.005257  0.004609 -0.013997  0.000000 -0.006696
  2H   2py       -0.007184  0.009105  0.013996  0.011563 -0.000000  0.011595
  2H   3pz        0.000000 -0.000000 -0.000000 -0.000000 -0.067294  0.000000
  2H   3px        0.001645  0.000755 -0.006830 -0.011254 -0.000000 -0.007840
  2H   3py       -0.002850 -0.001306  0.011247  0.019817 -0.000000  0.013479
  2H   1dz2      -0.001632  0.000212  0.001056  0.001830 -0.000000  0.003197
  2H   1dxz       0.000000 -0.000000 -0.000000 -0.000000 -0.002673 -0.000000
  2H   1dyz      -0.000000  0.000000  0.000000  0.000000  0.004629  0.000000
  2H   1dx2y2    -0.001377 -0.000175  0.003441 -0.000033 -0.000000  0.002500
  2H   1dxy      -0.002386 -0.000303 -0.000034  0.003400 -0.000000  0.004332
  3H   1s         0.000495 -0.091332 -0.088614  0.153310  0.000000 -0.043352
  3H   2s         0.016920 -0.068839 -0.136276  0.235681 -0.000000 -0.176943
  3H   3s         0.001092 -0.005775 -0.067320  0.116422 -0.000000 -0.648743
  3H   1pz       -0.000000 -0.000000 -0.000000  0.000000 -0.003749 -0.000000
  3H   1px       -0.000225 -0.001576  0.000251  0.002543  0.000000  0.002281
  3H   1py       -0.000389 -0.002731 -0.002544  0.002683  0.000000  0.003951
  3H   2pz        0.000000 -0.000000 -0.000000  0.000000 -0.016640  0.000000
  3H   2px        0.004147 -0.005257  0.004595  0.014001 -0.000000 -0.006696
  3H   2py        0.007184 -0.009105 -0.014008  0.011549 -0.000000 -0.011595
  3H   3pz        0.000000  0.000000 -0.000000  0.000000 -0.067294 -0.000000
  3H   3px        0.001645  0.000755 -0.006842  0.011248 -0.000000 -0.007840
  3H   3py        0.002850  0.001306 -0.011267  0.019806 -0.000000 -0.013479
  3H   1dz2      -0.001632  0.000212  0.001057 -0.001828  0.000000  0.003197
  3H   1dxz       0.000000  0.000000 -0.000000  0.000000 -0.002673 -0.000000
  3H   1dyz       0.000000  0.000000 -0.000000  0.000000 -0.004629 -0.000000
  3H   1dx2y2    -0.001377 -0.000175  0.003441  0.000036  0.000000  0.002500
  3H   1dxy       0.002386  0.000303  0.000030  0.003400 -0.000000 -0.004332
                      6         7         8         9        10        11   
                   0.09981   0.09981   0.20183   0.20184   0.26119   0.32253
                   0.00000   0.00000   0.00000   0.00000   0.00000   0.00000
                  --------  --------  --------  --------  --------  --------
  0N   1s        -0.000000  0.000006 -0.000000 -0.000004  0.021496 -0.000000
  0N   2s        -0.000000  0.000007 -0.000000 -0.000002  0.031358 -0.000000
  0N   1pz        0.000000  0.000000  0.000000 -0.000000  0.000000  0.000000
  0N   1px        0.000056 -0.154987  0.000001 -0.045260  0.000032  0.000000
  0N   1py       -0.154968 -0.000056  0.045275  0.000001 -0.000000 -0.000000
  0N   3s         0.000000 -0.000054  0.000000  0.000066 -0.300449 -0.000000
  0N   2pz        0.000000  0.000000  0.000000 -0.000000  0.000000  0.000000
  0N   2px        0.000105 -0.290038  0.000000 -0.001807 -0.000109 -0.000000
  0N   2py       -0.290186 -0.000105  0.001715  0.000000 -0.000000 -0.000000
  0N   4s        -0.000001  0.000797 -0.000000 -0.001596  4.984664  0.000000
  0N   3pz        0.000000  0.000000  0.000000 -0.000000  0.000000  0.000000
  0N   3px        0.000609 -1.680147 -0.000030  1.451766 -0.000746 -0.000000
  0N   3py       -1.681032 -0.000608 -1.452377 -0.000030 -0.000000  0.000000
  0N   1dz2      -0.000000  0.000002 -0.000000 -0.000003  0.000530 -0.000000
  0N   1dxz       0.000000 -0.000000  0.000000  0.000000 -0.000000 -0.000000
  0N   1dyz      -0.000000 -0.000000  0.000000  0.000000  0.000000 -0.003753
  0N   1dx2y2    -0.000001  0.003347 -0.000000  0.001860  0.000005  0.000000
  0N   1dxy      -0.003351 -0.000001  0.001856  0.000000 -0.000000  0.000000
  0N   2dz2       0.000000 -0.000027  0.000000  0.000053 -0.121014 -0.000000
  0N   2dxz       0.000000  0.000000 -0.000000 -0.000000 -0.000000 -0.000001
  0N   2dyz       0.000000  0.000000  0.000000 -0.000000  0.000000 -0.041965
  0N   2dx2y2     0.000011 -0.031037 -0.000002  0.091350 -0.000060 -0.000000
  0N   2dxy       0.031111  0.000011  0.091398  0.000002  0.000000 -0.000000
  0N   3dz2       0.000000 -0.000063  0.000000  0.000135 -0.533761 -0.000000
  0N   3dxz      -0.000000  0.000000  0.000000 -0.000000 -0.000000  0.000003
  0N   3dyz       0.000000 -0.000000  0.000000  0.000000 -0.000000  0.092529
  0N   3dx2y2     0.000154 -0.425198 -0.000001  0.046142 -0.000288 -0.000000
  0N   3dxy       0.425589  0.000154  0.046362  0.000001 -0.000000 -0.000000
  0N   1f0       -0.000000 -0.000000  0.000000  0.000000  0.000000 -0.000000
  0N   1f+1      -0.000007  0.019171  0.000000 -0.016690  0.000019  0.000000
  0N   1f-1       0.019193  0.000007  0.016705  0.000000  0.000000 -0.000000
  0N   1f+2       0.000000  0.000000  0.000000 -0.000000 -0.000000 -0.000000
  0N   1f-2      -0.000000  0.000000 -0.000000 -0.000000 -0.000000  0.002895
  0N   1f+3       0.000000 -0.000015  0.000000  0.000030 -0.065785 -0.000000
  0N   1f-3      -0.000002 -0.000000 -0.000001 -0.000000 -0.000000 -0.000000
  1H   1s         0.000002 -0.006147 -0.000003  0.132294  0.114585 -0.000000
  1H   2s        -0.000334  0.920588  0.000007 -0.352436 -0.577856  0.000000
  1H   3s        -0.000920  2.539639  0.000031 -1.519346 -0.974456  0.000000
  1H   1pz        0.000000 -0.000000 -0.000000  0.000000 -0.000000 -0.000000
  1H   1px       -0.000003  0.008154 -0.000000  0.000075 -0.002718  0.000000
  1H   1py       -0.002185 -0.000001  0.005712  0.000000  0.000000  0.000000
  1H   2pz        0.000000  0.000000  0.000000 -0.000000  0.000000  0.000001
  1H   2px        0.000017 -0.046104 -0.000001  0.072188  0.146432 -0.000000
  1H   2py       -0.008091 -0.000003  0.028801  0.000001 -0.000000 -0.000000
  1H   3pz        0.000000 -0.000000 -0.000000  0.000000 -0.000000 -0.000034
  1H   3px        0.000205 -0.566241 -0.000019  0.922407  0.940123 -0.000000
  1H   3py       -0.176175 -0.000064  0.699580  0.000014  0.000000  0.000000
  1H   1dz2       0.000002 -0.004703 -0.000000  0.016454  0.019301 -0.000000
  1H   1dxz       0.000000  0.000000  0.000000 -0.000000  0.000000  0.000000
  1H   1dyz      -0.000000  0.000000  0.000000 -0.000000  0.000000 -0.009672
  1H   1dx2y2    -0.000006  0.017621  0.000000 -0.021843 -0.028915  0.000000
  1H   1dxy       0.004376  0.000002 -0.015276 -0.000000 -0.000000 -0.000000
  2H   1s        -0.005356  0.003089 -0.114595 -0.066179  0.114594  0.000000
  2H   2s         0.798340 -0.460280  0.306047  0.176745 -0.579070 -0.000000
  2H   3s         2.200350 -1.269128  1.316111  0.760002 -0.975093 -0.000000
  2H   1pz       -0.000000 -0.000000  0.000000 -0.000000  0.000000 -0.013005
  2H   1px       -0.004481  0.000397  0.002503 -0.004266  0.001361  0.000000
  2H   1py        0.005577 -0.004477  0.001377 -0.002502 -0.002362 -0.000000
  2H   2pz        0.000000  0.000000 -0.000000 -0.000000 -0.000000  0.026303
  2H   2px        0.016542 -0.017607  0.043798 -0.003509 -0.073301 -0.000000
  2H   2py       -0.036733  0.016501 -0.047059 -0.043827  0.126966  0.000000
  2H   3pz       -0.000000 -0.000000  0.000000 -0.000000  0.000000 -0.960446
  2H   3px        0.169213 -0.273670  0.702521 -0.293880 -0.470477 -0.000000
  2H   3py       -0.469121  0.168947 -0.517214 -0.702666  0.814543  0.000000
  2H   1dz2      -0.004091  0.002358 -0.014267 -0.008244  0.019326  0.000000
  2H   1dxz       0.000000 -0.000000  0.000000  0.000000 -0.000000 -0.007432
  2H   1dyz       0.000000  0.000000 -0.000000 -0.000000  0.000000  0.003197
  2H   1dx2y2    -0.009544  0.001129 -0.002860 -0.016930  0.014482  0.000000
  2H   1dxy      -0.012161  0.009530 -0.020231 -0.002865  0.025086  0.000000
  3H   1s         0.005354  0.003093  0.114598 -0.066174  0.114594  0.000000
  3H   2s        -0.798006 -0.460858 -0.306054  0.176732 -0.579071 -0.000000
  3H   3s        -2.199430 -1.270720 -1.316143  0.759947 -0.975092  0.000000
  3H   1pz       -0.000000  0.000000 -0.000000  0.000000 -0.000000  0.013005
  3H   1px        0.004481  0.000401 -0.002503 -0.004266  0.001361  0.000000
  3H   1py        0.005573  0.004481  0.001377  0.002502  0.002362  0.000000
  3H   2pz        0.000000  0.000000  0.000000 -0.000000  0.000000 -0.026304
  3H   2px       -0.016529 -0.017618 -0.043798 -0.003510 -0.073301 -0.000000
  3H   2py       -0.036721 -0.016527 -0.047061  0.043825 -0.126966 -0.000000
  3H   3pz       -0.000000 -0.000000 -0.000000  0.000000 -0.000000  0.960480
  3H   3px       -0.169014 -0.273792 -0.702508 -0.293909 -0.470477 -0.000000
  3H   3py       -0.468998 -0.169286 -0.517243  0.702645 -0.814543  0.000000
  3H   1dz2       0.004089  0.002361  0.014268 -0.008243  0.019326  0.000000
  3H   1dxz      -0.000000 -0.000000 -0.000000  0.000000 -0.000000  0.007432
  3H   1dyz      -0.000000  0.000000 -0.000000  0.000000 -0.000000  0.003197
  3H   1dx2y2     0.009543  0.001135  0.002861 -0.016930  0.014482  0.000000
  3H   1dxy      -0.012154 -0.009539 -0.020231  0.002865 -0.025086 -0.000000
                     12        13        14        15        16        17   
                   0.32253   0.32935   0.43261   0.43264   0.49944   0.61264
                   0.00000   0.00000   0.00000   0.00000   0.00000   0.00000
                  --------  --------  --------  --------  --------  --------
  0N   1s        -0.000000 -0.000000  0.000000 -0.000001 -0.000000 -0.054791
  0N   2s        -0.000000 -0.000000  0.000000  0.000001 -0.000000 -0.098759
  0N   1pz        0.000030  0.204929 -0.000000  0.000000 -0.000000 -0.000000
  0N   1px       -0.000000  0.000000 -0.000069 -0.210058  0.000000 -0.000037
  0N   1py       -0.000000  0.000000  0.210084 -0.000069  0.000060  0.000000
  0N   3s         0.000000  0.000000  0.000000  0.000050 -0.000000  0.336527
  0N   2pz        0.000035  0.314809 -0.000000  0.000000 -0.000000 -0.000000
  0N   2px        0.000000  0.000000 -0.000055 -0.167144  0.000000 -0.000244
  0N   2py        0.000000  0.000000  0.166885 -0.000055  0.000097 -0.000000
  0N   4s         0.000000  0.000000 -0.000001 -0.001208  0.000000  6.522257
  0N   3pz        0.000252  1.188745 -0.000000  0.000000  0.000000 -0.000000
  0N   3px        0.000000 -0.000000  0.000801  2.434376  0.000000 -0.001280
  0N   3py        0.000000 -0.000000 -2.436549  0.000800 -0.000288 -0.000001
  0N   1dz2       0.000000  0.000000 -0.000000 -0.000006  0.000000  0.013842
  0N   1dxz      -0.003751  0.000001 -0.000000  0.000000 -0.000000  0.000000
  0N   1dyz       0.000000  0.000000 -0.000000  0.000000  0.000000  0.000000
  0N   1dx2y2    -0.000000  0.000000 -0.000001 -0.002708 -0.000000  0.000007
  0N   1dxy       0.000000 -0.000000 -0.002718  0.000001 -0.000000 -0.000000
  0N   2dz2      -0.000000 -0.000000  0.000000  0.000033 -0.000000 -0.026552
  0N   2dxz      -0.041978  0.000005 -0.000000 -0.000000 -0.000000  0.000000
  0N   2dyz       0.000001  0.000000 -0.000000 -0.000000 -0.000000 -0.000000
  0N   2dx2y2     0.000000 -0.000000  0.000028  0.084429  0.000000 -0.000054
  0N   2dxy      -0.000000  0.000000  0.084563 -0.000028  0.000009  0.000000
  0N   3dz2      -0.000000  0.000000  0.000000 -0.000123 -0.000000  0.402496
  0N   3dxz       0.092724  0.000016  0.000000 -0.000000 -0.000000 -0.000000
  0N   3dyz      -0.000003 -0.000000  0.000000  0.000000  0.000000  0.000000
  0N   3dx2y2     0.000000 -0.000000  0.000536  1.629577 -0.000000 -0.000228
  0N   3dxy      -0.000000  0.000000  1.630300 -0.000536  0.000066  0.000000
  0N   1f0       -0.000003  0.001068  0.000000  0.000000 -0.000000 -0.000000
  0N   1f+1      -0.000000  0.000000 -0.000012 -0.035060 -0.000000  0.000021
  0N   1f-1      -0.000000  0.000000  0.035109 -0.000012  0.000005  0.000000
  0N   1f+2      -0.002888 -0.000002  0.000000 -0.000000 -0.000000 -0.000000
  0N   1f-2      -0.000000 -0.000000 -0.000000 -0.000000 -0.000000 -0.000000
  0N   1f+3      -0.000000 -0.000000  0.000000  0.000017 -0.000000 -0.018218
  0N   1f-3       0.000000 -0.000000  0.000010 -0.000000 -0.025266 -0.000000
  1H   1s         0.000000 -0.000000  0.000037  0.112895 -0.000000 -0.060500
  1H   2s        -0.000000  0.000000 -0.000625 -1.898555 -0.000000 -1.192214
  1H   3s        -0.000000  0.000000 -0.001332 -4.050897  0.000000 -0.815372
  1H   1pz       -0.015016 -0.010259 -0.000000  0.000000 -0.000000 -0.000000
  1H   1px       -0.000000 -0.000000 -0.000000 -0.001133 -0.000000  0.002228
  1H   1py       -0.000000 -0.000000 -0.004001  0.000001  0.013351  0.000000
  1H   2pz        0.030361  0.059752 -0.000000 -0.000000 -0.000000  0.000000
  1H   2px        0.000000  0.000000  0.000064  0.195921  0.000000  0.018933
  1H   2py        0.000000  0.000000  0.010920 -0.000004 -0.051309 -0.000000
  1H   3pz       -1.109359 -0.867862 -0.000000 -0.000000  0.000000  0.000000
  1H   3px        0.000000 -0.000000  0.000682  2.073736 -0.000000  1.523158
  1H   3py        0.000000 -0.000000 -1.491387  0.000490  1.152016 -0.000000
  1H   1dz2       0.000000  0.000000  0.000002  0.006814  0.000000  0.019356
  1H   1dxz       0.007496  0.002956  0.000000 -0.000000 -0.000000 -0.000000
  1H   1dyz       0.000000  0.000000 -0.000000 -0.000000 -0.000000  0.000000
  1H   1dx2y2    -0.000000 -0.000000 -0.000014 -0.042865 -0.000000 -0.025568
  1H   1dxy      -0.000000  0.000000  0.013180 -0.000004  0.002974 -0.000000
  2H   1s         0.000000 -0.000000 -0.097800 -0.056394 -0.000022 -0.060541
  2H   2s        -0.000000 -0.000000  1.646499  0.949132  0.000001 -1.194040
  2H   3s        -0.000000 -0.000000  3.509679  2.024459  0.000851 -0.815896
  2H   1pz        0.007506 -0.010263 -0.000000 -0.000000  0.000000  0.000000
  2H   1px        0.000000 -0.000000 -0.002222  0.002715 -0.011568 -0.001108
  2H   1py       -0.000000 -0.000000 -0.000136  0.002223 -0.006681  0.001923
  2H   2pz       -0.015172  0.059759  0.000000  0.000000 -0.000000 -0.000000
  2H   2px       -0.000000 -0.000000  0.089676  0.040800  0.044485 -0.009568
  2H   2py        0.000000  0.000000 -0.144478 -0.089565  0.025665  0.016525
  2H   3pz        0.554470 -0.868091  0.000000 -0.000000 -0.000000 -0.000000
  2H   3px        0.000000 -0.000000  0.253496  1.636795 -0.997838 -0.761800
  2H   3py        0.000000 -0.000000 -1.928605 -0.251945 -0.576599  1.319767
  2H   1dz2       0.000000  0.000000 -0.005935 -0.003415 -0.000002  0.019383
  2H   1dxz      -0.005382 -0.001480 -0.000000  0.000000 -0.000000 -0.000000
  2H   1dyz      -0.007432  0.002561 -0.000000 -0.000000  0.000000  0.000000
  2H   1dx2y2     0.000000 -0.000000 -0.024303 -0.000830  0.002577  0.012813
  2H   1dxy       0.000000  0.000000 -0.028918 -0.024276 -0.001495  0.022193
  3H   1s        -0.000000 -0.000000  0.097762 -0.056458  0.000022 -0.060541
  3H   2s         0.000000 -0.000000 -1.645873  0.950213 -0.000001 -1.194040
  3H   3s         0.000000 -0.000000 -3.508348  2.026765 -0.000851 -0.815896
  3H   1pz        0.007506 -0.010263  0.000000 -0.000000  0.000000  0.000000
  3H   1px       -0.000000 -0.000000  0.002224  0.002713  0.011568 -0.001108
  3H   1py       -0.000000  0.000000 -0.000138 -0.002223 -0.006681 -0.001923
  3H   2pz       -0.015171  0.059759 -0.000000  0.000000 -0.000000 -0.000000
  3H   2px        0.000000 -0.000000 -0.089649  0.040859 -0.044485 -0.009568
  3H   2py        0.000000 -0.000000 -0.144419  0.089659  0.025665 -0.016525
  3H   3pz        0.554412 -0.868091  0.000000 -0.000000  0.000000 -0.000000
  3H   3px        0.000000 -0.000000 -0.252420  1.636961  0.997838 -0.761800
  3H   3py        0.000000 -0.000000 -1.928438  0.253212 -0.576599 -1.319767
  3H   1dz2      -0.000000  0.000000  0.005932 -0.003419  0.000002  0.019383
  3H   1dxz      -0.005383 -0.001480 -0.000000  0.000000 -0.000000 -0.000000
  3H   1dyz       0.007432 -0.002561 -0.000000  0.000000 -0.000000 -0.000000
  3H   1dx2y2    -0.000000  0.000000  0.024302 -0.000846 -0.002577  0.012813
  3H   1dxy       0.000000 -0.000000 -0.028902  0.024295 -0.001495 -0.022193
                     18        19        20        21        22        23   
                   0.63472   0.67190   0.67192   0.72987   0.72996   0.82547
                   0.00000   0.00000   0.00000   0.00000   0.00000   0.00000
                  --------  --------  --------  --------  --------  --------
  0N   1s        -0.065277  0.000015  0.000000  0.000000  0.000000  0.000000
  0N   2s        -0.118206  0.000029  0.000000  0.000000  0.000000  0.000000
  0N   1pz        0.000000 -0.000000 -0.000000  0.000000 -0.000027  0.000000
  0N   1px        0.000010 -0.080324  0.000005 -0.000000 -0.000000 -0.000010
  0N   1py        0.000000  0.000005  0.080356 -0.000000 -0.000000  0.169191
  0N   3s         0.469528 -0.000135 -0.000000 -0.000000 -0.000000 -0.000000
  0N   2pz        0.000000 -0.000000 -0.000000  0.000000 -0.000112  0.000000
  0N   2px        0.000193 -0.353398  0.000022 -0.000000  0.000000 -0.000018
  0N   2py        0.000000  0.000023  0.353541 -0.000000  0.000000  0.294061
  0N   4s         2.355476 -0.001382  0.000000  0.000000  0.000000  0.000001
  0N   3pz       -0.000000  0.000000  0.000000 -0.000000  0.000363 -0.000000
  0N   3px        0.000582 -2.784060  0.000176 -0.000000  0.000000  0.000361
  0N   3py        0.000000  0.000177  2.784985 -0.000000  0.000000 -5.837441
  0N   1dz2      -0.006579 -0.000003  0.000000  0.000000  0.000000  0.000000
  0N   1dxz       0.000000 -0.000000 -0.000000 -0.000000  0.016032  0.000000
  0N   1dyz       0.000000 -0.000000  0.000000  0.016034  0.000000 -0.000000
  0N   1dx2y2    -0.000003  0.016803 -0.000001  0.000000 -0.000000 -0.000001
  0N   1dxy       0.000000  0.000001  0.016804 -0.000000  0.000000 -0.015125
  0N   2dz2      -0.008433  0.000021 -0.000000 -0.000000 -0.000000 -0.000000
  0N   2dxz       0.000000  0.000000  0.000000 -0.000000  0.010335  0.000000
  0N   2dyz      -0.000000  0.000000 -0.000000  0.010281  0.000000  0.000000
  0N   2dx2y2     0.000059 -0.022324  0.000001 -0.000000  0.000000  0.000007
  0N   2dxy       0.000000 -0.000001 -0.022334 -0.000000 -0.000000  0.118760
  0N   3dz2      -1.329300 -0.000031  0.000000  0.000000  0.000000 -0.000000
  0N   3dxz       0.000000 -0.000000 -0.000000 -0.000005  1.955364  0.000000
  0N   3dyz       0.000000 -0.000000  0.000000  1.955446  0.000005  0.000000
  0N   3dx2y2     0.000435  0.977217 -0.000062  0.000000  0.000000  0.000072
  0N   3dxy       0.000000  0.000062  0.976394 -0.000000 -0.000000  1.159151
  0N   1f0        0.000000 -0.000000 -0.000000  0.000000 -0.000003  0.000000
  0N   1f+1      -0.000017  0.017273 -0.000001  0.000000 -0.000000 -0.000004
  0N   1f-1       0.000000 -0.000001 -0.017280 -0.000000 -0.000000  0.060063
  0N   1f+2       0.000000 -0.000000 -0.000000 -0.000000  0.019160  0.000000
  0N   1f-2      -0.000000  0.000000 -0.000000 -0.019170 -0.000000 -0.000000
  0N   1f+3      -0.024006  0.000009 -0.000000 -0.000000 -0.000000 -0.000000
  0N   1f-3      -0.000000  0.000000  0.000005 -0.000000 -0.000000  0.000008
  1H   1s        -0.042905  0.102941 -0.000007  0.000000  0.000000 -0.000002
  1H   2s        -1.673190  1.382477 -0.000087  0.000000 -0.000000 -0.000239
  1H   3s         0.306744  2.803575 -0.000178  0.000000 -0.000000 -0.000072
  1H   1pz        0.000000 -0.000000 -0.000000 -0.000000  0.006705  0.000000
  1H   1px       -0.005763 -0.004258  0.000000 -0.000000 -0.000000 -0.000001
  1H   1py        0.000000  0.000001  0.007904 -0.000000 -0.000000  0.000710
  1H   2pz        0.000000  0.000000  0.000000  0.000000 -0.023016 -0.000000
  1H   2px        0.031008 -0.053353  0.000003  0.000000  0.000000  0.000024
  1H   2py       -0.000000  0.000001  0.012106 -0.000000  0.000000 -0.026490
  1H   3pz       -0.000000  0.000000  0.000000  0.000004 -1.675518 -0.000000
  1H   3px        0.165741 -2.600683  0.000165 -0.000000  0.000000  0.000016
  1H   3py       -0.000000 -0.000039 -0.621993  0.000000 -0.000000  0.837809
  1H   1dz2       0.010476 -0.037656  0.000002 -0.000000  0.000000  0.000001
  1H   1dxz       0.000000 -0.000000 -0.000000 -0.000000  0.030533 -0.000000
  1H   1dyz      -0.000000  0.000000 -0.000000  0.001745  0.000000  0.000000
  1H   1dx2y2    -0.005937  0.059840 -0.000004  0.000000 -0.000000 -0.000002
  1H   1dxy       0.000000  0.000001  0.015427 -0.000000  0.000000 -0.022232
  2H   1s        -0.042921 -0.051477 -0.089165  0.000000 -0.000000  0.027308
  2H   2s        -1.671953 -0.690912 -1.198047  0.000000 -0.000000  3.335921
  2H   3s         0.306806 -1.401661 -2.427909 -0.000000 -0.000000  1.013324
  2H   1pz        0.000000 -0.000000  0.000000  0.005810 -0.003352 -0.000000
  2H   1px        0.002875 -0.007000  0.001582 -0.000000  0.000000 -0.008682
  2H   1py       -0.004983 -0.001582  0.005167 -0.000000 -0.000000  0.015749
  2H   2pz       -0.000000 -0.000000 -0.000000 -0.019977  0.011501  0.000000
  2H   2px       -0.015410 -0.022345 -0.017891 -0.000000 -0.000000  0.156779
  2H   2py        0.026720  0.017879  0.043065  0.000000  0.000000 -0.298064
  2H   3pz       -0.000000  0.000000 -0.000000 -1.451040  0.837593  0.000000
  2H   3px       -0.082785 -0.183353 -1.395407  0.000000 -0.000000  0.472588
  2H   3py        0.143490  1.395248  1.794798 -0.000000  0.000000  0.019139
  2H   1dz2       0.010457  0.018823  0.032603  0.000000  0.000000 -0.017492
  2H   1dxz      -0.000000 -0.000000 -0.000000 -0.012469  0.008943  0.000000
  2H   1dyz       0.000000  0.000000  0.000000  0.023337 -0.012460 -0.000000
  2H   1dx2y2     0.002946  0.026536  0.019226  0.000000  0.000000 -0.004437
  2H   1dxy       0.005095  0.019213  0.048737  0.000000  0.000000 -0.029909
  3H   1s        -0.042921 -0.051466  0.089171 -0.000000  0.000000 -0.027306
  3H   2s        -1.671953 -0.690759  1.198134 -0.000000  0.000000 -3.335683
  3H   3s         0.306806 -1.401353  2.428087 -0.000000  0.000000 -1.013252
  3H   1pz       -0.000000  0.000000  0.000000 -0.005810 -0.003352 -0.000000
  3H   1px        0.002875 -0.007000 -0.001581 -0.000000 -0.000000  0.008681
  3H   1py        0.004983  0.001583  0.005167  0.000000 -0.000000  0.015748
  3H   2pz       -0.000000 -0.000000 -0.000000  0.019977  0.011501  0.000000
  3H   2px       -0.015410 -0.022343  0.017894 -0.000000  0.000000 -0.156765
  3H   2py       -0.026720 -0.017873  0.043067 -0.000000  0.000000 -0.298045
  3H   3pz        0.000000 -0.000000  0.000000  1.451036  0.837600  0.000000
  3H   3px       -0.082785 -0.183176  1.395430 -0.000000  0.000000 -0.472657
  3H   3py       -0.143490 -1.395020  1.794975 -0.000000  0.000000  0.019197
  3H   1dz2       0.010457  0.018819 -0.032605  0.000000 -0.000000  0.017491
  3H   1dxz       0.000000 -0.000000  0.000000  0.012469  0.008943  0.000000
  3H   1dyz       0.000000 -0.000000  0.000000  0.023337  0.012460  0.000000
  3H   1dx2y2     0.002946  0.026533 -0.019229  0.000000 -0.000000  0.004434
  3H   1dxy      -0.005095 -0.019207  0.048739 -0.000000  0.000000 -0.029908
                     24        25        26        27        28        29   
                   0.82560   0.84893   1.02828   1.03555   1.03560   1.61823
                   0.00000   0.00000   0.00000   0.00000   0.00000   0.00000
                  --------  --------  --------  --------  --------  --------
  0N   1s         0.000022  0.000000 -0.074579 -0.000000  0.000565  0.000000
  0N   2s         0.000037  0.000000 -0.124724 -0.000001  0.000950  0.000000
  0N   1pz        0.000000 -0.217515  0.000000  0.000000  0.000000 -0.000000
  0N   1px        0.169316  0.000000  0.001302 -0.000123  0.164012 -0.000000
  0N   1py        0.000010  0.000000 -0.000000  0.164118  0.000123  0.000000
  0N   3s        -0.000439 -0.000000  1.619383  0.000009 -0.012312 -0.000000
  0N   2pz        0.000000 -0.837777  0.000000  0.000000  0.000000 -0.000000
  0N   2px        0.294671  0.000000  0.007049 -0.000702  0.933328  0.000000
  0N   2py        0.000018  0.000000 -0.000000  0.933595  0.000702  0.000000
  0N   4s         0.002884  0.000000-12.735103 -0.000074  0.096547 -0.000000
  0N   3pz       -0.000000  3.074062  0.000000 -0.000000 -0.000000  0.000000
  0N   3px       -5.834599 -0.000000  0.038305 -0.003988  5.300741 -0.000000
  0N   3py       -0.000360 -0.000000 -0.000001  5.297156  0.003986  0.000000
  0N   1dz2       0.000008  0.000000 -0.027401 -0.000000  0.000206 -0.000000
  0N   1dxz       0.000000 -0.000002 -0.000000 -0.000000  0.000000  0.000000
  0N   1dyz       0.000000  0.000000 -0.000000  0.000000  0.000000 -0.009526
  0N   1dx2y2     0.015119  0.000000 -0.000038  0.000004 -0.005899 -0.000000
  0N   1dxy      -0.000001 -0.000000 -0.000000  0.005891  0.000004 -0.000000
  0N   2dz2      -0.000085 -0.000000  0.261612  0.000001 -0.001909  0.000000
  0N   2dxz       0.000000  0.000002 -0.000000  0.000000 -0.000000  0.000001
  0N   2dyz       0.000000  0.000000  0.000000 -0.000000 -0.000000 -0.244297
  0N   2dx2y2    -0.118623 -0.000000  0.001384 -0.000146  0.194333  0.000000
  0N   2dxy       0.000007 -0.000000  0.000000 -0.194351 -0.000146 -0.000000
  0N   3dz2      -0.000367 -0.000000  1.163604  0.000007 -0.008656  0.000000
  0N   3dxz       0.000000 -0.000233  0.000000 -0.000000 -0.000000 -0.000002
  0N   3dyz       0.000000  0.000000  0.000000 -0.000000  0.000000  0.653937
  0N   3dx2y2    -1.156554 -0.000000  0.033237 -0.003333  4.430412 -0.000000
  0N   3dxy       0.000071 -0.000000  0.000001 -4.429837 -0.003333 -0.000000
  0N   1f0        0.000000 -0.023575 -0.000000 -0.000000  0.000000  0.000000
  0N   1f+1       0.059989  0.000000 -0.000396  0.000041 -0.054565 -0.000000
  0N   1f-1       0.000004  0.000000  0.000000 -0.054564 -0.000041  0.000000
  0N   1f+2       0.000000  0.000014  0.000000 -0.000000 -0.000000 -0.000000
  0N   1f-2       0.000000  0.000000  0.000000  0.000000 -0.000000 -0.021783
  0N   1f+3      -0.000066 -0.000000  0.211940  0.000001 -0.001582  0.000000
  0N   1f-3       0.000000  0.000000  0.000000 -0.000008 -0.000000  0.000000
  1H   1s         0.031507  0.000000  0.110534  0.000037 -0.048612  0.000000
  1H   2s         3.846937  0.000000  3.226574  0.005098 -6.775395 -0.000000
  1H   3s         1.168765  0.000000  1.157005  0.002521 -3.351401  0.000000
  1H   1pz       -0.000000  0.004647  0.000000 -0.000000  0.000000 -0.000000
  1H   1px        0.020740  0.000000  0.021443  0.000018 -0.023401 -0.000000
  1H   1py        0.000000 -0.000000  0.000000 -0.012518 -0.000009  0.000000
  1H   2pz        0.000000 -0.069966 -0.000000  0.000000  0.000000  0.000003
  1H   2px       -0.388148 -0.000000 -0.575410 -0.000280  0.372130  0.000000
  1H   2py       -0.000002 -0.000000  0.000000  0.064845  0.000049 -0.000000
  1H   3pz        0.000000 -0.962052 -0.000000  0.000000  0.000000 -0.000001
  1H   3px       -0.252650  0.000000 -1.159761 -0.001706  2.267134 -0.000000
  1H   3py        0.000052  0.000000 -0.000000  1.776313  0.001336  0.000000
  1H   1dz2      -0.020164 -0.000000 -0.067829 -0.000038  0.050893  0.000000
  1H   1dxz      -0.000000  0.026290 -0.000000 -0.000000 -0.000000 -0.000000
  1H   1dyz       0.000000  0.000000 -0.000000 -0.000000 -0.000000  0.046866
  1H   1dx2y2     0.032395 -0.000000  0.115102  0.000068 -0.090854 -0.000000
  1H   1dxy      -0.000001 -0.000000  0.000000 -0.038162 -0.000029 -0.000000
  2H   1s        -0.015787 -0.000000  0.111062 -0.041296  0.022985 -0.000000
  2H   2s        -1.924566 -0.000000  3.301435 -5.847118  3.346370 -0.000000
  2H   3s        -0.584615 -0.000000  1.193854 -2.894558  1.659927 -0.000000
  2H   1pz       -0.000000  0.004649 -0.000000  0.000000  0.000000  0.048634
  2H   1px        0.005712  0.000000 -0.010920  0.004647 -0.015122  0.000000
  2H   1py       -0.008686 -0.000000  0.018747 -0.020560  0.004483  0.000000
  2H   2pz        0.000000 -0.069973  0.000000  0.000000 -0.000000 -0.859152
  2H   2px       -0.116955 -0.000000  0.290050 -0.131169  0.138419  0.000000
  2H   2py        0.156832  0.000000 -0.501498  0.292072 -0.127151 -0.000000
  2H   3pz        0.000000 -0.962370  0.000000 -0.000000  0.000000  0.162355
  2H   3px        0.565739  0.000000  0.602685 -0.209758  1.891778 -0.000000
  2H   3py        0.472786  0.000000 -1.020256  2.137405 -0.199405  0.000000
  2H   1dz2       0.010109  0.000000 -0.068360  0.043644 -0.024645 -0.000000
  2H   1dxz       0.000000 -0.013143  0.000000 -0.000000  0.000000  0.005296
  2H   1dyz      -0.000000  0.022766 -0.000000  0.000000 -0.000000  0.037704
  2H   1dx2y2     0.024809  0.000000 -0.057809  0.055489  0.006594 -0.000000
  2H   1dxy       0.004419 -0.000000 -0.100638  0.057990 -0.054705 -0.000000
  3H   1s        -0.015790 -0.000000  0.111062  0.041261  0.023047 -0.000000
  3H   2s        -1.924977 -0.000000  3.301434  5.842077  3.355165  0.000000
  3H   3s        -0.584740 -0.000000  1.193854  2.892058  1.664281  0.000000
  3H   1pz       -0.000000  0.004649 -0.000000  0.000000 -0.000000 -0.048634
  3H   1px        0.005713  0.000000 -0.010920 -0.004624 -0.015129 -0.000000
  3H   1py        0.008688  0.000000 -0.018747 -0.020553 -0.004514  0.000000
  3H   2pz        0.000000 -0.069973  0.000000 -0.000000  0.000000  0.859149
  3H   2px       -0.116974 -0.000000  0.290050  0.130961  0.138616  0.000000
  3H   2py       -0.156868 -0.000000  0.501498  0.291881  0.127590 -0.000000
  3H   3pz        0.000000 -0.962370  0.000000  0.000000  0.000000 -0.162354
  3H   3px        0.565680  0.000000  0.602685  0.206911  1.892092  0.000000
  3H   3py       -0.472784 -0.000000  1.020256  2.137103  0.202621  0.000000
  3H   1dz2       0.010111  0.000000 -0.068360 -0.043607 -0.024710 -0.000000
  3H   1dxz       0.000000 -0.013143  0.000000  0.000000  0.000000 -0.005297
  3H   1dyz       0.000000 -0.022766  0.000000  0.000000  0.000000  0.037704
  3H   1dx2y2     0.024810  0.000000 -0.057809 -0.055499  0.006511 -0.000000
  3H   1dxy      -0.004423  0.000000  0.100637  0.057907  0.054792  0.000000
                     30        31        32        33        34        35   
                   1.61828   1.71335   1.72767   1.90254   1.90263   2.05110
                   0.00000   0.00000   0.00000   0.00000   0.00000   0.00000
                  --------  --------  --------  --------  --------  --------
  0N   1s         0.000000  0.000000 -0.000000 -0.000004 -0.000000 -0.049215
  0N   2s         0.000000  0.000000  0.000000  0.000006 -0.000000 -0.071035
  0N   1pz       -0.000015  0.000000  0.195559  0.000000 -0.000000 -0.000000
  0N   1px        0.000000  0.000000 -0.000000  0.041823  0.000000 -0.000039
  0N   1py        0.000000 -0.000001 -0.000000  0.000000 -0.041875 -0.000000
  0N   3s        -0.000000 -0.000000 -0.000000 -0.000030  0.000000  0.557928
  0N   2pz       -0.000023  0.000000  0.197633  0.000000 -0.000000  0.000000
  0N   2px        0.000000 -0.000000 -0.000000  0.054824  0.000000 -0.000071
  0N   2py       -0.000000  0.000093 -0.000000  0.000000 -0.054931  0.000000
  0N   4s         0.000000 -0.000000 -0.000000 -0.002101  0.000000 -6.174504
  0N   3pz        0.000041 -0.000000 -0.307817 -0.000000  0.000000  0.000000
  0N   3px        0.000000  0.000000 -0.000000 -1.381910 -0.000010  0.000110
  0N   3py        0.000000  0.000585 -0.000000 -0.000010  1.381779  0.000000
  0N   1dz2      -0.000000 -0.000000 -0.000000 -0.000005  0.000000 -0.001460
  0N   1dxz      -0.009527 -0.000000 -0.000000 -0.000000  0.000000  0.000000
  0N   1dyz      -0.000000  0.000000 -0.000000 -0.000000  0.000000 -0.000000
  0N   1dx2y2    -0.000000  0.000000  0.000000 -0.010151 -0.000000  0.000005
  0N   1dxy      -0.000000 -0.000000 -0.000000  0.000000 -0.010153  0.000000
  0N   2dz2       0.000000  0.000000  0.000000  0.000242 -0.000000  0.735821
  0N   2dxz      -0.244244 -0.000000 -0.000014 -0.000000  0.000000  0.000000
  0N   2dyz      -0.000001  0.000000 -0.000000  0.000000  0.000000  0.000000
  0N   2dx2y2     0.000000 -0.000000 -0.000000 -0.430595 -0.000003  0.000087
  0N   2dxy       0.000000 -0.000107 -0.000000  0.000003 -0.430580 -0.000000
  0N   3dz2      -0.000000  0.000000 -0.000000  0.000046 -0.000000 -0.109187
  0N   3dxz       0.654023  0.000000  0.000042  0.000000  0.000000 -0.000000
  0N   3dyz       0.000002 -0.000000  0.000000  0.000000 -0.000000  0.000000
  0N   3dx2y2     0.000000  0.000000 -0.000000  1.827733  0.000014 -0.000519
  0N   3dxy      -0.000000  0.000116  0.000000 -0.000014  1.827969 -0.000000
  0N   1f0        0.000003  0.000000  0.027861  0.000000 -0.000000 -0.000000
  0N   1f+1      -0.000000  0.000000  0.000000  0.003937  0.000000 -0.000005
  0N   1f-1       0.000000 -0.000008 -0.000000  0.000000 -0.003938 -0.000000
  0N   1f+2       0.021769  0.000000  0.000003  0.000000 -0.000000  0.000000
  0N   1f-2      -0.000000  0.000000 -0.000000  0.000000  0.000000  0.000000
  0N   1f+3       0.000000  0.000000  0.000000  0.000069 -0.000000  0.110964
  0N   1f-3      -0.000000  0.047845 -0.000000  0.000000 -0.000006  0.000000
  1H   1s        -0.000000 -0.000000 -0.000000 -0.180557 -0.000001 -0.418552
  1H   2s        -0.000000  0.000000  0.000000  0.069070  0.000001  1.803542
  1H   3s        -0.000000 -0.000000  0.000000  1.219455  0.000009  0.506712
  1H   1pz        0.056154  0.000000  0.040227  0.000000 -0.000000 -0.000000
  1H   1px       -0.000000  0.000000  0.000000 -0.008122 -0.000000 -0.008379
  1H   1py        0.000000 -0.039674  0.000000 -0.000000  0.046781 -0.000000
  1H   2pz       -0.992031 -0.000000 -0.724514 -0.000000  0.000000  0.000000
  1H   2px       -0.000000 -0.000000 -0.000000  0.302965  0.000002  0.168359
  1H   2py       -0.000000  0.776213 -0.000000  0.000007 -0.937845  0.000000
  1H   3pz        0.187383  0.000000  0.380093 -0.000000 -0.000000 -0.000000
  1H   3px        0.000000  0.000000 -0.000000 -1.248482 -0.000009 -1.034120
  1H   3py        0.000000 -0.716609  0.000000  0.000004 -0.539127  0.000000
  1H   1dz2       0.000000 -0.000000 -0.000000 -0.040578 -0.000000 -0.065722
  1H   1dxz       0.034635 -0.000000 -0.040587 -0.000000 -0.000000 -0.000000
  1H   1dyz       0.000000  0.000000 -0.000000  0.000000 -0.000000  0.000000
  1H   1dx2y2    -0.000000  0.000000  0.000000  0.133561  0.000001  0.180086
  1H   1dxy      -0.000000 -0.018855  0.000000 -0.000000  0.016440  0.000000
  2H   1s        -0.000000  0.000021 -0.000000  0.090087  0.156274 -0.418663
  2H   2s         0.000000 -0.000359  0.000000 -0.033451 -0.058931  1.803284
  2H   3s         0.000000 -0.000353  0.000000 -0.609503 -1.055915  0.506932
  2H   1pz       -0.028082  0.000000  0.040222 -0.000000 -0.000000 -0.000000
  2H   1px        0.000000  0.034376 -0.000000 -0.037122  0.016729  0.004198
  2H   1py        0.000000  0.019845  0.000000 -0.016738  0.017789 -0.007261
  2H   2pz        0.496088 -0.000000 -0.724416  0.000000  0.000000  0.000000
  2H   2px       -0.000000 -0.672487  0.000000  0.779137 -0.274631 -0.084412
  2H   2py       -0.000000 -0.388243 -0.000000  0.274783 -0.461725  0.145938
  2H   3pz       -0.093738  0.000000  0.380073  0.000000  0.000000 -0.000000
  2H   3px        0.000000  0.620441 -0.000000  0.092453 -0.774133  0.517115
  2H   3py       -0.000000  0.358552 -0.000000  0.773671  0.801261 -0.895968
  2H   1dz2      -0.000000  0.000024 -0.000000  0.020251  0.035111 -0.065718
  2H   1dxz       0.043817 -0.000000  0.020303  0.000000 -0.000000  0.000000
  2H   1dyz       0.005299 -0.000000 -0.035144  0.000000  0.000000 -0.000000
  2H   1dx2y2    -0.000000 -0.016325 -0.000000  0.045681  0.050699 -0.090082
  2H   1dxy      -0.000000  0.009462 -0.000000  0.050624  0.104252 -0.156014
  3H   1s        -0.000000 -0.000021 -0.000000  0.090089 -0.156273 -0.418663
  3H   2s         0.000000  0.000360  0.000000 -0.033452  0.058931  1.803285
  3H   3s         0.000000  0.000353 -0.000000 -0.609519  1.055906  0.506932
  3H   1pz       -0.028082  0.000000  0.040222 -0.000000  0.000000 -0.000000
  3H   1px        0.000000 -0.034376  0.000000 -0.037122 -0.016730  0.004198
  3H   1py       -0.000000  0.019845 -0.000000  0.016738  0.017790  0.007261
  3H   2pz        0.496093 -0.000000 -0.724416  0.000000 -0.000000  0.000000
  3H   2px       -0.000000  0.672487 -0.000000  0.779133  0.274643 -0.084412
  3H   2py       -0.000000 -0.388243  0.000000 -0.274776 -0.461729 -0.145938
  3H   3pz       -0.093739  0.000000  0.380073  0.000000 -0.000000 -0.000000
  3H   3px        0.000000 -0.620441  0.000000  0.092442  0.774134  0.517115
  3H   3py        0.000000  0.358552  0.000000 -0.773683  0.801249  0.895968
  3H   1dz2       0.000000 -0.000024 -0.000000  0.020252 -0.035110 -0.065718
  3H   1dxz       0.043817  0.000000  0.020303 -0.000000  0.000000 -0.000000
  3H   1dyz      -0.005299 -0.000000  0.035144 -0.000000  0.000000  0.000000
  3H   1dx2y2     0.000000  0.016325 -0.000000  0.045681 -0.050698 -0.090082
  3H   1dxy      -0.000000  0.009462  0.000000 -0.050625  0.104251  0.156014
                     36        37        38        39        40        41   
                   2.14361   2.14363   2.48585   2.48590   2.50829   2.66955
                   0.00000   0.00000   0.00000   0.00000   0.00000   0.00000
                  --------  --------  --------  --------  --------  --------
  0N   1s        -0.000003 -0.000000 -0.000000 -0.000000 -0.006592 -0.000013
  0N   2s        -0.000003 -0.000000 -0.000000 -0.000000 -0.052857 -0.000027
  0N   1pz       -0.000000 -0.000000 -0.000000  0.000012 -0.000000  0.000000
  0N   1px        0.277708  0.000124  0.000000  0.000000 -0.000014  0.119851
  0N   1py       -0.000124  0.277688  0.000000 -0.000000 -0.000000 -0.000043
  0N   3s         0.000037  0.000000  0.000000  0.000000  0.238352  0.000160
  0N   2pz       -0.000000  0.000000  0.000000 -0.000005 -0.000000 -0.000000
  0N   2px       -0.531935 -0.000237 -0.000000  0.000000  0.000609  1.921646
  0N   2py        0.000237 -0.531745  0.000000  0.000000 -0.000000 -0.000687
  0N   4s        -0.000854 -0.000001  0.000000  0.000000  7.211270  0.000636
  0N   3pz        0.000000  0.000000  0.000000 -0.000009 -0.000000 -0.000000
  0N   3px       -2.552281 -0.001135 -0.000000  0.000000  0.001415  5.995251
  0N   3py        0.001135 -2.551590  0.000000  0.000000 -0.000001 -0.002143
  0N   1dz2      -0.000001 -0.000000  0.000000  0.000000  0.026246  0.000003
  0N   1dxz      -0.000000  0.000000  0.000000 -0.017760  0.000000  0.000000
  0N   1dyz      -0.000000 -0.000000 -0.017755 -0.000000  0.000000  0.000000
  0N   1dx2y2     0.000873  0.000000  0.000000 -0.000000 -0.000016 -0.045011
  0N   1dxy       0.000000 -0.000869  0.000000  0.000000 -0.000000 -0.000016
  0N   2dz2       0.000059  0.000000  0.000000  0.000000  0.258599 -0.000199
  0N   2dxz       0.000000  0.000000  0.000002 -0.866366  0.000000 -0.000000
  0N   2dyz      -0.000000  0.000000 -0.866376 -0.000002  0.000000 -0.000000
  0N   2dx2y2    -0.588339 -0.000262 -0.000000  0.000000  0.000249  1.114262
  0N   2dxy      -0.000262  0.588215  0.000000 -0.000000  0.000000  0.000398
  0N   3dz2       0.000022 -0.000000 -0.000000 -0.000000 -1.123370  0.000064
  0N   3dxz      -0.000000 -0.000000 -0.000002  0.968221 -0.000000 -0.000000
  0N   3dyz       0.000000 -0.000000  0.968128  0.000002 -0.000000  0.000000
  0N   3dx2y2    -1.072007 -0.000477 -0.000000  0.000000  0.000473  1.207995
  0N   3dxy      -0.000477  1.071978 -0.000000 -0.000000  0.000000  0.000432
  0N   1f0       -0.000000  0.000000 -0.000000 -0.000006  0.000000 -0.000000
  0N   1f+1       0.091125  0.000041  0.000000 -0.000000 -0.000071 -0.228327
  0N   1f-1      -0.000041  0.091108 -0.000000 -0.000000  0.000000  0.000082
  0N   1f+2      -0.000000 -0.000000 -0.000000  0.191590 -0.000000 -0.000000
  0N   1f-2       0.000000  0.000000 -0.191586 -0.000000  0.000000 -0.000000
  0N   1f+3       0.000025  0.000000 -0.000000 -0.000000 -0.512269  0.000022
  0N   1f-3       0.000000 -0.000006 -0.000000 -0.000000 -0.000000 -0.000000
  1H   1s        -0.502403 -0.000223  0.000000  0.000000  0.618699  0.796556
  1H   2s         3.313597  0.001474 -0.000000 -0.000000 -3.204368 -7.045493
  1H   3s         1.267440  0.000564 -0.000000 -0.000000 -0.207885 -1.599123
[...]
Settings:
Max. no of cycles        MaxIter    .... 1000
Direction                           .... Forward and backward
Initial displacement Hessian type   .... Read
Hessian Filename                    .... NH3‡.hess
Following Hessian mode              .... 0
Initial displacement type           .... Energy
  Initial displacement energy change.... 0.250 mEh
Coordinate system following type    .... Cartesian
Length of steepest descent step     .... 0.150 bohr
Do parabolic fit 
  if SD step is uphill              .... YES
Do Correction to SD step            .... YES
Scaling for length of correction
  compared to SD step               .... 0.333
Do parabolic fit to SD correction   .... YES
Only interpolate for parabolic fit  .... YES
Do update to length of
  SD step and correction            .... YES
Convergence Tolerances:
  Max. Gradient            TolMAXG  ....  1.0000e-03 Eh/bohr
  RMS Gradient             TolRMSG  ....  2.0000e-04 Eh/bohr
Storing full IRC trajectory in      .... NH3‡_IRC_Full_trj.xyz
Storing forward trajectory in       .... NH3‡_IRC_F_trj.xyz
Storing backward trajectory in      .... NH3‡_IRC_B_trj.xyz


 ...good, the file NH3‡.hess exists
Reading the hessian file           ...... done
Determining length of initial displacement:
  Requested energy change (quadratic behavior): 0.250 mEh
  Resulting scaling factor for initial displacement along normalized TS mode: 0.1253

         *************************************************************
         *                          FORWARD IRC                      *
         *************************************************************

NOTIFICATION: Different basis set in ORCA and otool_gcp:
ORCA: 86  gCP: 49 
If you are NOT using ECPs, check your basis set inputs!
Iteration    E(Eh)      dE(kcal/mol)  max(|G|)   RMS(G) 
Convergence thresholds                0.001000  0.000200            
    0       -56.572148   -0.154510    0.005558  0.001894
NOTIFICATION: Different basis set in ORCA and otool_gcp:
ORCA: 86  gCP: 49 
If you are NOT using ECPs, check your basis set inputs!
NOTIFICATION: Different basis set in ORCA and otool_gcp:
ORCA: 86  gCP: 49 
If you are NOT using ECPs, check your basis set inputs!
NOTIFICATION: Different basis set in ORCA and otool_gcp:
ORCA: 86  gCP: 49 
If you are NOT using ECPs, check your basis set inputs!
NOTIFICATION: Different basis set in ORCA and otool_gcp:
ORCA: 86  gCP: 49 
If you are NOT using ECPs, check your basis set inputs!
    1       -56.575063   -1.983460    0.013643  0.007875
NOTIFICATION: Different basis set in ORCA and otool_gcp:
ORCA: 86  gCP: 49 
If you are NOT using ECPs, check your basis set inputs!
NOTIFICATION: Different basis set in ORCA and otool_gcp:
ORCA: 86  gCP: 49 
If you are NOT using ECPs, check your basis set inputs!
NOTIFICATION: Different basis set in ORCA and otool_gcp:
ORCA: 86  gCP: 49 
If you are NOT using ECPs, check your basis set inputs!
NOTIFICATION: Different basis set in ORCA and otool_gcp:
ORCA: 86  gCP: 49 
If you are NOT using ECPs, check your basis set inputs!
    2       -56.577699   -3.637456    0.015894  0.005665
NOTIFICATION: Different basis set in ORCA and otool_gcp:
ORCA: 86  gCP: 49 
If you are NOT using ECPs, check your basis set inputs!
NOTIFICATION: Different basis set in ORCA and otool_gcp:
ORCA: 86  gCP: 49 
If you are NOT using ECPs, check your basis set inputs!
NOTIFICATION: Different basis set in ORCA and otool_gcp:
ORCA: 86  gCP: 49 
If you are NOT using ECPs, check your basis set inputs!
NOTIFICATION: Different basis set in ORCA and otool_gcp:
ORCA: 86  gCP: 49 
If you are NOT using ECPs, check your basis set inputs!
    3       -56.580145   -5.172552    0.006821  0.003863
NOTIFICATION: Different basis set in ORCA and otool_gcp:
ORCA: 86  gCP: 49 
If you are NOT using ECPs, check your basis set inputs!
NOTIFICATION: Different basis set in ORCA and otool_gcp:
ORCA: 86  gCP: 49 
If you are NOT using ECPs, check your basis set inputs!
NOTIFICATION: Different basis set in ORCA and otool_gcp:
ORCA: 86  gCP: 49 
If you are NOT using ECPs, check your basis set inputs!
NOTIFICATION: Different basis set in ORCA and otool_gcp:
ORCA: 86  gCP: 49 
If you are NOT using ECPs, check your basis set inputs!
    4       -56.581047   -5.738689    0.002937  0.001205
NOTIFICATION: Different basis set in ORCA and otool_gcp:
ORCA: 86  gCP: 49 
If you are NOT using ECPs, check your basis set inputs!
NOTIFICATION: Different basis set in ORCA and otool_gcp:
ORCA: 86  gCP: 49 
If you are NOT using ECPs, check your basis set inputs!
NOTIFICATION: Different basis set in ORCA and otool_gcp:
ORCA: 86  gCP: 49 
If you are NOT using ECPs, check your basis set inputs!
NOTIFICATION: Different basis set in ORCA and otool_gcp:
ORCA: 86  gCP: 49 
If you are NOT using ECPs, check your basis set inputs!
NOTIFICATION: Different basis set in ORCA and otool_gcp:
ORCA: 86  gCP: 49 
If you are NOT using ECPs, check your basis set inputs!
NOTIFICATION: Different basis set in ORCA and otool_gcp:
ORCA: 86  gCP: 49 
If you are NOT using ECPs, check your basis set inputs!
    5       -56.581047   -5.738690    0.002935  0.001205
NOTIFICATION: Different basis set in ORCA and otool_gcp:
ORCA: 86  gCP: 49 
If you are NOT using ECPs, check your basis set inputs!
NOTIFICATION: Different basis set in ORCA and otool_gcp:
ORCA: 86  gCP: 49 
If you are NOT using ECPs, check your basis set inputs!
NOTIFICATION: Different basis set in ORCA and otool_gcp:
ORCA: 86  gCP: 49 
If you are NOT using ECPs, check your basis set inputs!
NOTIFICATION: Different basis set in ORCA and otool_gcp:
ORCA: 86  gCP: 49 
If you are NOT using ECPs, check your basis set inputs!
NOTIFICATION: Different basis set in ORCA and otool_gcp:
ORCA: 86  gCP: 49 
If you are NOT using ECPs, check your basis set inputs!
NOTIFICATION: Different basis set in ORCA and otool_gcp:
ORCA: 86  gCP: 49 
If you are NOT using ECPs, check your basis set inputs!
    6       -56.581053   -5.742619    0.001816  0.000788
NOTIFICATION: Different basis set in ORCA and otool_gcp:
ORCA: 86  gCP: 49 
If you are NOT using ECPs, check your basis set inputs!
NOTIFICATION: Different basis set in ORCA and otool_gcp:
ORCA: 86  gCP: 49 
If you are NOT using ECPs, check your basis set inputs!
NOTIFICATION: Different basis set in ORCA and otool_gcp:
ORCA: 86  gCP: 49 
If you are NOT using ECPs, check your basis set inputs!
NOTIFICATION: Different basis set in ORCA and otool_gcp:
ORCA: 86  gCP: 49 
If you are NOT using ECPs, check your basis set inputs!
NOTIFICATION: Different basis set in ORCA and otool_gcp:
ORCA: 86  gCP: 49 
If you are NOT using ECPs, check your basis set inputs!
NOTIFICATION: Different basis set in ORCA and otool_gcp:
ORCA: 86  gCP: 49 
If you are NOT using ECPs, check your basis set inputs!
    7       -56.581057   -5.744982    0.000910  0.000464
NOTIFICATION: Different basis set in ORCA and otool_gcp:
ORCA: 86  gCP: 49 
If you are NOT using ECPs, check your basis set inputs!
NOTIFICATION: Different basis set in ORCA and otool_gcp:
ORCA: 86  gCP: 49 
If you are NOT using ECPs, check your basis set inputs!
NOTIFICATION: Different basis set in ORCA and otool_gcp:
ORCA: 86  gCP: 49 
If you are NOT using ECPs, check your basis set inputs!
NOTIFICATION: Different basis set in ORCA and otool_gcp:
ORCA: 86  gCP: 49 
If you are NOT using ECPs, check your basis set inputs!
NOTIFICATION: Different basis set in ORCA and otool_gcp:
ORCA: 86  gCP: 49 
If you are NOT using ECPs, check your basis set inputs!
NOTIFICATION: Different basis set in ORCA and otool_gcp:
ORCA: 86  gCP: 49 
If you are NOT using ECPs, check your basis set inputs!
    8       -56.581059   -5.746272    0.000667  0.000293
NOTIFICATION: Different basis set in ORCA and otool_gcp:
ORCA: 86  gCP: 49 
If you are NOT using ECPs, check your basis set inputs!
NOTIFICATION: Different basis set in ORCA and otool_gcp:
ORCA: 86  gCP: 49 
If you are NOT using ECPs, check your basis set inputs!
NOTIFICATION: Different basis set in ORCA and otool_gcp:
ORCA: 86  gCP: 49 
If you are NOT using ECPs, check your basis set inputs!
NOTIFICATION: Different basis set in ORCA and otool_gcp:
ORCA: 86  gCP: 49 
If you are NOT using ECPs, check your basis set inputs!
NOTIFICATION: Different basis set in ORCA and otool_gcp:
ORCA: 86  gCP: 49 
If you are NOT using ECPs, check your basis set inputs!
NOTIFICATION: Different basis set in ORCA and otool_gcp:
ORCA: 86  gCP: 49 
If you are NOT using ECPs, check your basis set inputs!
    9       -56.581061   -5.747282    0.000446  0.000208
NOTIFICATION: Different basis set in ORCA and otool_gcp:
ORCA: 86  gCP: 49 
If you are NOT using ECPs, check your basis set inputs!
NOTIFICATION: Different basis set in ORCA and otool_gcp:
ORCA: 86  gCP: 49 
If you are NOT using ECPs, check your basis set inputs!
NOTIFICATION: Different basis set in ORCA and otool_gcp:
ORCA: 86  gCP: 49 
If you are NOT using ECPs, check your basis set inputs!
NOTIFICATION: Different basis set in ORCA and otool_gcp:
ORCA: 86  gCP: 49 
If you are NOT using ECPs, check your basis set inputs!
NOTIFICATION: Different basis set in ORCA and otool_gcp:
ORCA: 86  gCP: 49 
If you are NOT using ECPs, check your basis set inputs!
NOTIFICATION: Different basis set in ORCA and otool_gcp:
ORCA: 86  gCP: 49 
If you are NOT using ECPs, check your basis set inputs!
   10       -56.581062   -5.747871    0.000302  0.000157

                      ***********************HURRAY********************
                      ***            THE IRC HAS CONVERGED          ***
                      *************************************************


         *************************************************************
         *                          BACKWARD IRC                     *
         *************************************************************

NOTIFICATION: Different basis set in ORCA and otool_gcp:
ORCA: 86  gCP: 49 
If you are NOT using ECPs, check your basis set inputs!
Iteration    E(Eh)      dE(kcal/mol)  max(|G|)   RMS(G) 
Convergence thresholds                0.001000  0.000200            
    0       -56.572148   -0.154509    0.005558  0.001894
NOTIFICATION: Different basis set in ORCA and otool_gcp:
ORCA: 86  gCP: 49 
If you are NOT using ECPs, check your basis set inputs!
NOTIFICATION: Different basis set in ORCA and otool_gcp:
ORCA: 86  gCP: 49 
If you are NOT using ECPs, check your basis set inputs!
NOTIFICATION: Different basis set in ORCA and otool_gcp:
ORCA: 86  gCP: 49 
If you are NOT using ECPs, check your basis set inputs!
NOTIFICATION: Different basis set in ORCA and otool_gcp:
ORCA: 86  gCP: 49 
If you are NOT using ECPs, check your basis set inputs!
    1       -56.575063   -1.983460    0.013643  0.007875
NOTIFICATION: Different basis set in ORCA and otool_gcp:
ORCA: 86  gCP: 49 
If you are NOT using ECPs, check your basis set inputs!
NOTIFICATION: Different basis set in ORCA and otool_gcp:
ORCA: 86  gCP: 49 
If you are NOT using ECPs, check your basis set inputs!
NOTIFICATION: Different basis set in ORCA and otool_gcp:
ORCA: 86  gCP: 49 
If you are NOT using ECPs, check your basis set inputs!
NOTIFICATION: Different basis set in ORCA and otool_gcp:
ORCA: 86  gCP: 49 
If you are NOT using ECPs, check your basis set inputs!
    2       -56.577699   -3.637455    0.015894  0.005665
NOTIFICATION: Different basis set in ORCA and otool_gcp:
ORCA: 86  gCP: 49 
If you are NOT using ECPs, check your basis set inputs!
NOTIFICATION: Different basis set in ORCA and otool_gcp:
ORCA: 86  gCP: 49 
If you are NOT using ECPs, check your basis set inputs!
NOTIFICATION: Different basis set in ORCA and otool_gcp:
ORCA: 86  gCP: 49 
If you are NOT using ECPs, check your basis set inputs!
NOTIFICATION: Different basis set in ORCA and otool_gcp:
ORCA: 86  gCP: 49 
If you are NOT using ECPs, check your basis set inputs!
    3       -56.580145   -5.172555    0.006821  0.003863
NOTIFICATION: Different basis set in ORCA and otool_gcp:
ORCA: 86  gCP: 49 
If you are NOT using ECPs, check your basis set inputs!
NOTIFICATION: Different basis set in ORCA and otool_gcp:
ORCA: 86  gCP: 49 
If you are NOT using ECPs, check your basis set inputs!
NOTIFICATION: Different basis set in ORCA and otool_gcp:
ORCA: 86  gCP: 49 
If you are NOT using ECPs, check your basis set inputs!
NOTIFICATION: Different basis set in ORCA and otool_gcp:
ORCA: 86  gCP: 49 
If you are NOT using ECPs, check your basis set inputs!
    4       -56.581047   -5.738795    0.002907  0.001194
NOTIFICATION: Different basis set in ORCA and otool_gcp:
ORCA: 86  gCP: 49 
If you are NOT using ECPs, check your basis set inputs!
NOTIFICATION: Different basis set in ORCA and otool_gcp:
ORCA: 86  gCP: 49 
If you are NOT using ECPs, check your basis set inputs!
NOTIFICATION: Different basis set in ORCA and otool_gcp:
ORCA: 86  gCP: 49 
If you are NOT using ECPs, check your basis set inputs!
NOTIFICATION: Different basis set in ORCA and otool_gcp:
ORCA: 86  gCP: 49 
If you are NOT using ECPs, check your basis set inputs!
NOTIFICATION: Different basis set in ORCA and otool_gcp:
ORCA: 86  gCP: 49 
If you are NOT using ECPs, check your basis set inputs!
NOTIFICATION: Different basis set in ORCA and otool_gcp:
ORCA: 86  gCP: 49 
If you are NOT using ECPs, check your basis set inputs!
    5       -56.581047   -5.738796    0.002905  0.001193
NOTIFICATION: Different basis set in ORCA and otool_gcp:
ORCA: 86  gCP: 49 
If you are NOT using ECPs, check your basis set inputs!
NOTIFICATION: Different basis set in ORCA and otool_gcp:
ORCA: 86  gCP: 49 
If you are NOT using ECPs, check your basis set inputs!
NOTIFICATION: Different basis set in ORCA and otool_gcp:
ORCA: 86  gCP: 49 
If you are NOT using ECPs, check your basis set inputs!
NOTIFICATION: Different basis set in ORCA and otool_gcp:
ORCA: 86  gCP: 49 
If you are NOT using ECPs, check your basis set inputs!
NOTIFICATION: Different basis set in ORCA and otool_gcp:
ORCA: 86  gCP: 49 
If you are NOT using ECPs, check your basis set inputs!
NOTIFICATION: Different basis set in ORCA and otool_gcp:
ORCA: 86  gCP: 49 
If you are NOT using ECPs, check your basis set inputs!
    6       -56.581053   -5.742647    0.001801  0.000782
NOTIFICATION: Different basis set in ORCA and otool_gcp:
ORCA: 86  gCP: 49 
If you are NOT using ECPs, check your basis set inputs!
NOTIFICATION: Different basis set in ORCA and otool_gcp:
ORCA: 86  gCP: 49 
If you are NOT using ECPs, check your basis set inputs!
NOTIFICATION: Different basis set in ORCA and otool_gcp:
ORCA: 86  gCP: 49 
If you are NOT using ECPs, check your basis set inputs!
NOTIFICATION: Different basis set in ORCA and otool_gcp:
ORCA: 86  gCP: 49 
If you are NOT using ECPs, check your basis set inputs!
NOTIFICATION: Different basis set in ORCA and otool_gcp:
ORCA: 86  gCP: 49 
If you are NOT using ECPs, check your basis set inputs!
NOTIFICATION: Different basis set in ORCA and otool_gcp:
ORCA: 86  gCP: 49 
If you are NOT using ECPs, check your basis set inputs!
    7       -56.581057   -5.744986    0.000903  0.000461
NOTIFICATION: Different basis set in ORCA and otool_gcp:
ORCA: 86  gCP: 49 
If you are NOT using ECPs, check your basis set inputs!
NOTIFICATION: Different basis set in ORCA and otool_gcp:
ORCA: 86  gCP: 49 
If you are NOT using ECPs, check your basis set inputs!
NOTIFICATION: Different basis set in ORCA and otool_gcp:
ORCA: 86  gCP: 49 
If you are NOT using ECPs, check your basis set inputs!
NOTIFICATION: Different basis set in ORCA and otool_gcp:
ORCA: 86  gCP: 49 
If you are NOT using ECPs, check your basis set inputs!
NOTIFICATION: Different basis set in ORCA and otool_gcp:
ORCA: 86  gCP: 49 
If you are NOT using ECPs, check your basis set inputs!
NOTIFICATION: Different basis set in ORCA and otool_gcp:
ORCA: 86  gCP: 49 
If you are NOT using ECPs, check your basis set inputs!
    8       -56.581059   -5.746274    0.000665  0.000292
NOTIFICATION: Different basis set in ORCA and otool_gcp:
ORCA: 86  gCP: 49 
If you are NOT using ECPs, check your basis set inputs!
NOTIFICATION: Different basis set in ORCA and otool_gcp:
ORCA: 86  gCP: 49 
If you are NOT using ECPs, check your basis set inputs!
NOTIFICATION: Different basis set in ORCA and otool_gcp:
ORCA: 86  gCP: 49 
If you are NOT using ECPs, check your basis set inputs!
NOTIFICATION: Different basis set in ORCA and otool_gcp:
ORCA: 86  gCP: 49 
If you are NOT using ECPs, check your basis set inputs!
NOTIFICATION: Different basis set in ORCA and otool_gcp:
ORCA: 86  gCP: 49 
If you are NOT using ECPs, check your basis set inputs!
NOTIFICATION: Different basis set in ORCA and otool_gcp:
ORCA: 86  gCP: 49 
If you are NOT using ECPs, check your basis set inputs!
    9       -56.581061   -5.747288    0.000444  0.000208
NOTIFICATION: Different basis set in ORCA and otool_gcp:
ORCA: 86  gCP: 49 
If you are NOT using ECPs, check your basis set inputs!
NOTIFICATION: Different basis set in ORCA and otool_gcp:
ORCA: 86  gCP: 49 
If you are NOT using ECPs, check your basis set inputs!
NOTIFICATION: Different basis set in ORCA and otool_gcp:
ORCA: 86  gCP: 49 
If you are NOT using ECPs, check your basis set inputs!
NOTIFICATION: Different basis set in ORCA and otool_gcp:
ORCA: 86  gCP: 49 
If you are NOT using ECPs, check your basis set inputs!
NOTIFICATION: Different basis set in ORCA and otool_gcp:
ORCA: 86  gCP: 49 
If you are NOT using ECPs, check your basis set inputs!
NOTIFICATION: Different basis set in ORCA and otool_gcp:
ORCA: 86  gCP: 49 
If you are NOT using ECPs, check your basis set inputs!
   10       -56.581062   -5.747872    0.000302  0.000156

                      ***********************HURRAY********************
                      ***            THE IRC HAS CONVERGED          ***
                      *************************************************


---------------------------------------------------------------
                       IRC PATH SUMMARY              
---------------------------------------------------------------
All gradients are in Eh/Bohr.

Step        E(Eh)      dE(kcal/mol)  max(|G|)   RMS(G) 
   1       -56.581062   -5.747872    0.000302  0.000156
   2       -56.581061   -5.747288    0.000444  0.000208
   3       -56.581059   -5.746274    0.000665  0.000292
   4       -56.581057   -5.744986    0.000903  0.000461
   5       -56.581053   -5.742647    0.001801  0.000782
   6       -56.581047   -5.738796    0.002905  0.001193
   7       -56.581047   -5.738795    0.002907  0.001194
   8       -56.580145   -5.172555    0.006821  0.003863
   9       -56.577699   -3.637455    0.015894  0.005665
  10       -56.575063   -1.983460    0.013643  0.007875
  11       -56.572148   -0.154509    0.005558  0.001894
  12       -56.571902    0.000000    0.000000  0.000000 <= TS
  13       -56.572148   -0.154510    0.005558  0.001894
  14       -56.575063   -1.983460    0.013643  0.007875
  15       -56.577699   -3.637456    0.015894  0.005665
  16       -56.580145   -5.172552    0.006821  0.003863
  17       -56.581047   -5.738689    0.002937  0.001205
  18       -56.581047   -5.738690    0.002935  0.001205
  19       -56.581053   -5.742619    0.001816  0.000788
  20       -56.581057   -5.744982    0.000910  0.000464
  21       -56.581059   -5.746272    0.000667  0.000293
  22       -56.581061   -5.747282    0.000446  0.000208
  23       -56.581062   -5.747871    0.000302  0.000157

Timings for individual modules:

Sum of individual times         ...      449.862 sec (=   7.498 min)
GTO integral calculation        ...       61.535 sec (=   1.026 min)  13.7 %
SCF iterations                  ...      339.379 sec (=   5.656 min)  75.4 %
SCF Gradient evaluation         ...       41.406 sec (=   0.690 min)   9.2 %
Geometry relaxation             ...        0.092 sec (=   0.002 min)   0.0 %
Analytical frequency calculation...        7.450 sec (=   0.124 min)   1.7 %
                             ****ORCA TERMINATED NORMALLY****
TOTAL RUN TIME: 0 days 0 hours 7 minutes 53 seconds 764 msec
