(SLURM) JOB ID:         441

                                 *****************
                                 * O   R   C   A *
                                 *****************

           --- An Ab Initio, DFT and Semiempirical electronic structure package ---

                  #######################################################
                  #                        -***-                        #
                  #          Department of theory and spectroscopy      #
                  #               Directorship: Frank Neese             #
                  #        Max Planck Institute fuer Kohlenforschung    #
                  #                Kaiser Wilhelm Platz 1               #
                  #                 D-45470 Muelheim/Ruhr               #
                  #                      Germany                        #
                  #                                                     #
                  #                  All rights reserved                #
                  #                        -***-                        #
                  #######################################################


                         Program Version 4.2.1 -  RELEASE  -


 With contributions from (in alphabetic order):
   Daniel Aravena         : Magnetic Suceptibility
   Michael Atanasov       : Ab Initio Ligand Field Theory (pilot matlab implementation)
   Alexander A. Auer      : GIAO ZORA, VPT2
   Ute Becker             : Parallelization
   Giovanni Bistoni       : ED, misc. LED, open-shell LED, HFLD
   Martin Brehm           : Molecular dynamics
   Dmytro Bykov           : SCF Hessian
   Vijay G. Chilkuri      : MRCI spin determinant printing, contributions to CSF-ICE
   Dipayan Datta          : RHF DLPNO-CCSD density
   Achintya Kumar Dutta   : EOM-CC, STEOM-CC
   Dmitry Ganyushin       : Spin-Orbit,Spin-Spin,Magnetic field MRCI
   Miquel Garcia          : C-PCM Hessian, Gaussian charge scheme
   Yang Guo               : DLPNO-NEVPT2, CIM, IAO-localization
   Andreas Hansen         : Spin unrestricted coupled pair/coupled cluster methods
   Benjamin Helmich-Paris : CASSCF linear response (MC-RPA)
   Lee Huntington         : MR-EOM, pCC
   Robert Izsak           : Overlap fitted RIJCOSX, COSX-SCS-MP3, EOM
   Christian Kollmar      : KDIIS, OOCD, Brueckner-CCSD(T), CCSD density
   Simone Kossmann        : Meta GGA functionals, TD-DFT gradient, OOMP2, MP2 Hessian
   Martin Krupicka        : AUTO-CI
   Lucas Lang             : DCDCAS
   Dagmar Lenk            : GEPOL surface, SMD
   Dimitrios Liakos       : Extrapolation schemes; Compound Job, initial MDCI parallelization
   Dimitrios Manganas     : Further ROCIS development; embedding schemes
   Dimitrios Pantazis     : SARC Basis sets
   Taras Petrenko         : DFT Hessian,TD-DFT gradient, ASA, ECA, R-Raman, ABS, FL, XAS/XES, NRVS
   Peter Pinski           : DLPNO-MP2, DLPNO-MP2 Gradient
   Christoph Reimann      : Effective Core Potentials
   Marius Retegan         : Local ZFS, SOC
   Christoph Riplinger    : Optimizer, TS searches, QM/MM, DLPNO-CCSD(T), (RO)-DLPNO pert. Triples
   Tobias Risthaus        : Range-separated hybrids, TD-DFT gradient, RPA, STAB
   Michael Roemelt        : Original ROCIS implementation
   Masaaki Saitow         : Open-shell DLPNO-CCSD energy and density
   Barbara Sandhoefer     : DKH picture change effects
   Avijit Sen             : IP-ROCIS
   Kantharuban Sivalingam : CASSCF convergence, NEVPT2, FIC-MRCI
   Bernardo de Souza      : ESD, SOC TD-DFT
   Georgi Stoychev        : AutoAux, RI-MP2 NMR
   Willem Van den Heuvel  : Paramagnetic NMR
   Boris Wezisla          : Elementary symmetry handling
   Frank Wennmohs         : Technical directorship


 We gratefully acknowledge several colleagues who have allowed us to
 interface, adapt or use parts of their codes:
   Stefan Grimme, W. Hujo, H. Kruse,             : VdW corrections, initial TS optimization,
                  C. Bannwarth                     DFT functionals, gCP, sTDA/sTD-DF
   Ed Valeev, F. Pavosevic, A. Kumar             : LibInt (2-el integral package), F12 methods
   Garnet Chan, S. Sharma, J. Yang, R. Olivares  : DMRG
   Ulf Ekstrom                                   : XCFun DFT Library
   Mihaly Kallay                                 : mrcc  (arbitrary order and MRCC methods)
   Andreas Klamt, Michael Diedenhofen            : otool_cosmo (COSMO solvation model)
   Jiri Pittner, Ondrej Demel                    : Mk-CCSD
   Frank Weinhold                                : gennbo (NPA and NBO analysis)
   Christopher J. Cramer and Donald G. Truhlar   : smd solvation model
   Lars Goerigk                                  : TD-DFT with DH, B97 family of functionals
   V. Asgeirsson, H. Jonsson                     : NEB implementation
   FAccTs GmbH                                   : IRC, NEB, NEB-TS, Multilevel, MM, QM/MM, CI optimization
   S Lehtola, MJT Oliveira, MAL Marques          : LibXC Library


 Your calculation uses the libint2 library for the computation of 2-el integrals
 For citations please refer to: http://libint.valeyev.net

 Your ORCA version has been built with support for libXC version: 4.2.3
 For citations please refer to: https://tddft.org/programs/libxc/

 This ORCA versions uses:
   CBLAS   interface :  Fast vector & matrix operations
   LAPACKE interface :  Fast linear algebra routines
   SCALAPACK package :  Parallel linear algebra routines




***************************************
The coordinates will be read from file: init.xyz
***************************************


Your calculation utilizes the SMD solvation module
Please cite in your paper:
A.V. Marenich, C.J. Cramer, D.G. Truhlar J. Phys. Chem. B, 113, (2009), 6378 

Your calculation utilizes the semiempirical GFN2-xTB method
Please cite in your paper:
C. Bannwarth, Ehlert S., S. Grimme,  J. Chem. Theory Comput., 15, (2019), 1652.
   

----- Orbital basis set information -----
Your calculation utilizes the basis: def2-SVP
   F. Weigend and R. Ahlrichs, Phys. Chem. Chem. Phys. 7, 3297 (2005).

================================================================================
                                        WARNINGS
                       Please study these warnings very carefully!
================================================================================

WARNING: Gradients needed for Numerical Frequencies
  ===> : Setting RunTyp to EnGrad

WARNING: The environment variable RSH_COMMAND is not set!
  ===> : All Displacements for the Numerical Hessian calculation
         will be started on localhost

WARNING: Found dipole moment calculation with XTB calculation
  ===> : Switching off dipole moment calculation


INFO   : the flag for use of LIBINT has been found!

================================================================================
                                       INPUT FILE
================================================================================
NAME = /tmp/slurm-scratch/freq.441/freq.inp
|  1> ! XTB2 NumFreq
|  2> %maxcore 1150
|  3> 
|  4> * xyzfile 0 1 init.xyz
|  5> 
|  6> %cpcm
|  7>  smd true
|  8>  smdsolvent "ch2cl2"
|  9> end
| 10> %pal nprocs 9 end
| 11> 
| 12>                          ****END OF INPUT****
================================================================================

                     *******************************
                     * Energy+Gradient Calculation *
                     *******************************

      -----------------------------------------------------------      
     |                   =====================                   |     
     |                           x T B                           |     
     |                   =====================                   |     
     |                         S. Grimme                         |     
     |          Mulliken Center for Theoretical Chemistry        |     
     |                    University of Bonn                     |     
      -----------------------------------------------------------      

   * xtb version 6.3.2 (30e43eb) compiled by 'schneider@apollo14' on 2020-08-08

   xtb is free software: you can redistribute it and/or modify it under
   the terms of the GNU Lesser General Public License as published by
   the Free Software Foundation, either version 3 of the License, or
   (at your option) any later version.
   
   xtb is distributed in the hope that it will be useful,
   but WITHOUT ANY WARRANTY; without even the implied warranty of
   MERCHANTABILITY or FITNESS FOR A PARTICULAR PURPOSE.  See the
   GNU Lesser General Public License for more details.
   
   Cite this work as:
   * S. Grimme, C. Bannwarth, P. Shushkov, J. Chem. Theory Comput., 2017,
     13, 1989-2009. DOI: 10.1021/acs.jctc.7b00118
   * C. Bannwarth, S. Ehlert and S. Grimme., J. Chem. Theory Comput., 2019,
     15, 1652-1671. DOI: 10.1021/acs.jctc.8b01176
   * P. Pracht, E. Caldeweyher, S. Ehlert, S. Grimme, ChemRxiv, 2019, preprint.
     DOI: 10.26434/chemrxiv.8326202.v1
   
   for GFN-FF:
   * S. Spicher and S. Grimme, Angew. Chem. Int. Ed., 2020,
     DOI: 10.1002/anie.202004239
   
   for DFT-D4:
   * E. Caldeweyher, C. Bannwarth and S. Grimme, J. Chem. Phys., 2017,
     147, 034112. DOI: 10.1063/1.4993215
   * E. Caldeweyher, S. Ehlert, A. Hansen, H. Neugebauer, S. Spicher,
     C. Bannwarth and S. Grimme, J. Chem. Phys., 2019, 150, 154122.
     DOI: 10.1063/1.5090222
   
   for sTDA-xTB:
   * S. Grimme and C. Bannwarth, J. Chem. Phys., 2016, 145, 054103.
     DOI: 10.1063/1.4959605
   
   in the mass-spec context:
   * V. Asgeirsson, C. Bauer and S. Grimme, Chem. Sci., 2017, 8, 4879.
     DOI: 10.1039/c7sc00601b
   * J. Koopman and S. Grimme, ACS Omega 2019, 4, 12, 15120-15133.
     DOI: 10.1021/acsomega.9b02011
   
   for metadynamics refer to:
   * S. Grimme, J. Chem. Theory Comput., 2019, 155, 2847-2862
     DOI: 10.1021/acs.jctc.9b00143
   
   with help from (in alphabetical order)
   C. Bannwarth, F. Bohle, G. Brandenburg, E. Caldeweyher, M. Checinski,
   S. Dohm, S. Ehlert, S. Ehrlich, F. März, H. Neugebauer, J. Pisarek,
   P. Pracht, P. Shushkov, and S. Spicher.
   
 * started run on 2020/08/24 at 03:46:40.511     

           -------------------------------------------------
          |                Calculation Setup                |
           -------------------------------------------------

          program call               : /opt/orca/otool_xtb /tmp/slurm-scratch/freq.441/freq_XTB.xyz --grad -c 0 -u 0 -P 9 --namespace /tmp/slurm-scratch/freq.441/freq --gbsa CH2Cl2
          hostname                   : apollo14
          calculation namespace      : /tmp/slurm-scratch/freq.441/freq
          coordinate file            : /tmp/slurm-scratch/freq.441/freq_XTB.xyz
          omp threads                :                     9
          number of atoms            :                    49
          number of electrons        :                   112
          charge                     :                     0
          spin                       :                   0.0
          first test random number   :      0.48167760399905

   ID    Z sym.   atoms
    1    6 C      1-7, 12, 14, 29, 33, 36, 39, 42, 46
    2    1 H      8-10, 13, 15-18, 20, 21, 23-28, 30, 31, 34, 35, 37, 38, 40,
                  41, 43-45, 47-49
    3    7 N      11, 32
    4    8 O      19, 22

molecular fragmentation (1/2 indicates fragments):
1111111111112111112122222211111222222222211112222
# atoms in fragment 1/2:    27    22
 fragment masses (1/2) :      161.24      109.17
CMA distance (Bohr)    :   7.725
constraining FC (au)   :  0.0500
########################################################################
[WARNING] Please study the warnings concerning your input carefully
-1- prog_main_parseArguments: Process number higher than OMP_NUM_THREADS, I hope you know what you are doing.
########################################################################

           -------------------------------------------------
          |                 G F N 2 - x T B                 |
           -------------------------------------------------

        Reference                      10.1021/acs.jctc.8b01176
      * Hamiltonian:
        H0-scaling (s, p, d)           1.850000    2.230000    2.230000
        zeta-weighting                 0.500000
      * Dispersion:
        s8                             2.700000
        a1                             0.520000
        a2                             5.000000
        s9                             5.000000
      * Repulsion:
        kExp                           1.500000    1.000000
        rExp                           1.000000
      * Coulomb:
        alpha                          2.000000
        third order                    shell-resolved
        anisotropic                    true
        a3                             3.000000
        a5                             4.000000
        cn-shift                       1.200000
        cn-exp                         4.000000
        max-rad                        5.000000

      * Solvation model:               GBSA
        Solvent                        CH2Cl2
        Parameter file                 internal GFN2-xTB/GBSA
        Dielectric constant                8.9300E+00
        Reference state                gsolv [1 M gas/solution]
        Free energy shift                  4.4408E-03 Eh       2.7867E+00 kcal/mol
        Temperature                        2.9815E+02 K
        Density                            1.3300E+00 kg/L
        Solvent mass                       8.4930E+01 g/mol
        Interaction kernel             Still
        Born radius scaling (c1)           1.4917E+00
        Born radii integrator          GBOBC
        Born offset                        0.0000E+00 a0       0.0000E+00 AA
        H-bond correction              false
        Ion screening                  false
        Surface tension                    1.0000E-05 Eh       1.5569E+01 dyn/cm
        Grid points                               230 per atom

          ...................................................
          :                      SETUP                      :
          :.................................................:
          :  # basis functions                 106          :
          :  # atomic orbitals                 106          :
          :  # shells                           68          :
          :  # electrons                       112          :
          :  max. iterations                   250          :
          :  Hamiltonian                  GFN2-xTB          :
          :  restarted?                      false          :
          :  GBSA solvation                   true          :
          :  PC potential                    false          :
          :  electronic temp.          300.0000000     K    :
          :  accuracy                    1.0000000          :
          :  -> integral cutoff          0.2500000E+02      :
          :  -> integral neglect         0.1000000E-07      :
          :  -> SCF convergence          0.1000000E-05 Eh   :
          :  -> wf. convergence          0.1000000E-03 e    :
          :  Broyden damping             0.4000000          :
          ...................................................

 iter      E             dE          RMSdq      gap      omega  full diag
   1    -62.1108262 -0.621108E+02  0.342E+00    2.95       0.0  T
   2    -62.1783213 -0.674951E-01  0.198E+00    3.13       1.0  T
   3    -62.1759336  0.238764E-02  0.739E-01    2.84       1.0  T
   4    -62.1804814 -0.454777E-02  0.361E-01    2.97       1.0  T
   5    -62.1845003 -0.401886E-02  0.696E-02    2.88       1.0  T
   6    -62.1845186 -0.183662E-04  0.341E-02    2.90       1.0  T
   7    -62.1845311 -0.124652E-04  0.156E-02    2.89       1.0  T
   8    -62.1845344 -0.328875E-05  0.436E-03    2.90       3.3  T
   9    -62.1845347 -0.299269E-06  0.167E-03    2.90       8.5  T
  10    -62.1845347 -0.882741E-08  0.909E-04    2.90      15.7  T
  11    -62.1845347 -0.106720E-07  0.382E-04    2.90      37.4  T

   *** convergence criteria satisfied after 11 iterations ***

         #    Occupation            Energy/Eh            Energy/eV
      -------------------------------------------------------------
         1        2.0000           -0.6672772             -18.1575
       ...           ...                  ...                  ...
        50        2.0000           -0.4277619             -11.6400
        51        2.0000           -0.4262329             -11.5984
        52        2.0000           -0.4252685             -11.5721
        53        2.0000           -0.4112411             -11.1904
        54        2.0000           -0.4027025             -10.9581
        55        2.0000           -0.3923086             -10.6753
        56        2.0000           -0.3854649             -10.4890 (HOMO)
        57                         -0.2790517              -7.5934 (LUMO)
        58                         -0.2343325              -6.3765
        59                         -0.1977748              -5.3817
        60                         -0.0985077              -2.6805
        61                         -0.0085058              -0.2315
       ...                                ...                  ...
       106                          0.6189100              16.8414
      -------------------------------------------------------------
                  HL-Gap            0.1064131 Eh            2.8956 eV
             Fermi-level           -0.3322583 Eh           -9.0412 eV

 SCC (total)                   0 d,  0 h,  0 min,  0.138 sec
 SCC setup                      ...        0 min,  0.007 sec (  4.863%)
 Dispersion                     ...        0 min,  0.004 sec (  2.770%)
 classical contributions        ...        0 min,  0.004 sec (  3.099%)
 integral evaluation            ...        0 min,  0.020 sec ( 14.299%)
 iterations                     ...        0 min,  0.051 sec ( 37.177%)
 molecular gradient             ...        0 min,  0.052 sec ( 37.586%)
 printout                       ...        0 min,  0.000 sec (  0.189%)

         :::::::::::::::::::::::::::::::::::::::::::::::::::::
         ::                     SUMMARY                     ::
         :::::::::::::::::::::::::::::::::::::::::::::::::::::
         :: total energy             -61.378596527022 Eh    ::
         :: total w/o Gsasa/hb       -61.353338119843 Eh    ::
         :: gradient norm              0.057905991005 Eh/a0 ::
         :: HOMO-LUMO gap              2.895648791542 eV    ::
         ::.................................................::
         :: SCC energy               -62.184534710382 Eh    ::
         :: -> isotropic ES            0.099216272398 Eh    ::
         :: -> anisotropic ES          0.001422270247 Eh    ::
         :: -> anisotropic XC          0.041377739418 Eh    ::
         :: -> dispersion             -0.038818951400 Eh    ::
         :: -> Gsolv                  -0.034256143255 Eh    ::
         ::    -> Gborn               -0.008997736076 Eh    ::
         ::    -> Gsasa               -0.029699236353 Eh    ::
         ::    -> Ghb                  0.000000000000 Eh    ::
         ::    -> Gshift               0.004440829173 Eh    ::
         :: repulsion energy           0.805292800335 Eh    ::
         :: add. restraining           0.000000000000 Eh    ::
         :: total charge               0.000000000000 e     ::
         :::::::::::::::::::::::::::::::::::::::::::::::::::::

           -------------------------------------------------
          |                Property Printout                |
           -------------------------------------------------

    * Orbital Energies and Occupations

         #    Occupation            Energy/Eh            Energy/eV
      -------------------------------------------------------------
         1        2.0000           -0.6672772             -18.1575
       ...           ...                  ...                  ...
        44        2.0000           -0.4425579             -12.0426
        45        2.0000           -0.4418652             -12.0238
        46        2.0000           -0.4388744             -11.9424
        47        2.0000           -0.4329669             -11.7816
        48        2.0000           -0.4322732             -11.7628
        49        2.0000           -0.4290705             -11.6756
        50        2.0000           -0.4277619             -11.6400
        51        2.0000           -0.4262329             -11.5984
        52        2.0000           -0.4252685             -11.5721
        53        2.0000           -0.4112411             -11.1904
        54        2.0000           -0.4027025             -10.9581
        55        2.0000           -0.3923086             -10.6753
        56        2.0000           -0.3854649             -10.4890 (HOMO)
        57                         -0.2790517              -7.5934 (LUMO)
        58                         -0.2343325              -6.3765
        59                         -0.1977748              -5.3817
        60                         -0.0985077              -2.6805
        61                         -0.0085058              -0.2315
        62                          0.0159658               0.4345
        63                          0.0442019               1.2028
        64                          0.0680504               1.8517
        65                          0.0798619               2.1732
        66                          0.0816470               2.2217
        67                          0.0872927               2.3754
       ...                                ...                  ...
       106                          0.6189100              16.8414
      -------------------------------------------------------------
                  HL-Gap            0.1064131 Eh            2.8956 eV
             Fermi-level           -0.3322583 Eh           -9.0412 eV

     #   Z          covCN         q      C6AA      α(0)
     1   6 C        2.963     0.003    27.954     8.672
     2   6 C        2.911    -0.025    28.626     8.773
     3   6 C        2.908    -0.025    28.625     8.773
     4   6 C        2.909    -0.023    28.580     8.766
     5   6 C        2.907    -0.030    28.757     8.793
     6   6 C        2.914    -0.034    28.854     8.808
     7   6 C        2.849     0.077    26.264     8.399
     8   1 H        0.925     0.054     2.275     2.359
     9   1 H        0.925     0.040     2.453     2.449
    10   1 H        0.925     0.047     2.358     2.401
    11   7 N        1.823    -0.265    27.718     7.801
    12   6 C        3.757     0.021    20.264     6.418
    13   1 H        0.859     0.179     1.219     1.730
    14   6 C        3.797    -0.055    21.560     6.612
    15   1 H        0.922     0.008     2.919     2.672
    16   1 H        0.923     0.042     2.421     2.433
    17   1 H        0.923     0.041     2.432     2.439
    18   1 H        0.923     0.032     2.553     2.499
    19   8 O        1.604    -0.634    26.011     6.883
    20   1 H        0.923     0.005     2.977     2.698
    21   1 H        0.804     0.276     0.797     1.403
    22   8 O        1.596    -0.630    25.923     6.871
    23   1 H        0.800     0.312     0.687     1.302
    24   1 H        0.804     0.283     0.773     1.381
    25   1 H        0.796     0.309     0.695     1.310
    26   1 H        0.859     0.149     1.409     1.860
    27   1 H        0.925     0.049     2.337     2.391
    28   1 H        0.925     0.044     2.393     2.419
    29   6 C        3.796    -0.051    21.498     6.602
    30   1 H        0.923     0.032     2.555     2.500
    31   1 H        0.923     0.030     2.589     2.516
    32   7 N        2.628    -0.365    29.412     8.055
    33   6 C        3.727     0.008    20.544     6.471
    34   1 H        0.923     0.035     2.512     2.479
    35   1 H        0.923     0.037     2.486     2.466
    36   6 C        3.796    -0.067    21.789     6.647
    37   1 H        0.923     0.037     2.488     2.467
    38   1 H        0.923     0.031     2.567     2.506
    39   6 C        3.795    -0.053    21.526     6.607
    40   1 H        0.923     0.029     2.598     2.521
    41   1 H        0.923     0.031     2.574     2.509
    42   6 C        3.745    -0.100    22.486     6.764
    43   1 H        0.923     0.036     2.500     2.472
    44   1 H        0.923     0.037     2.489     2.467
    45   1 H        0.923     0.034     2.525     2.485
    46   6 C        3.745    -0.100    22.475     6.763
    47   1 H        0.923     0.034     2.526     2.485
    48   1 H        0.923     0.035     2.520     2.482
    49   1 H        0.923     0.035     2.517     2.481

 Mol. C6AA /au·bohr⁶  :      19244.682162
 Mol. C8AA /au·bohr⁸  :     418170.237932
 Mol. α(0) /au        :        212.061119


Wiberg/Mayer (AO) data.
largest (>0.10) Wiberg bond orders for each atom

 ---------------------------------------------------------------------------
     #   Z sym  total        # sym  WBO       # sym  WBO       # sym  WBO
 ---------------------------------------------------------------------------
     1   6 C    3.988 --     6 C    1.371     2 C    1.366     7 C    1.088
     2   6 C    3.989 --     3 C    1.464     1 C    1.366     8 H    0.965
                             5 C    0.106
     3   6 C    3.990 --     2 C    1.464     4 C    1.424    27 H    0.969
                             6 C    0.105
     4   6 C    3.986 --     5 C    1.433     3 C    1.424    10 H    0.970
     5   6 C    3.990 --     6 C    1.450     4 C    1.433    28 H    0.970
                             2 C    0.106
     6   6 C    3.986 --     5 C    1.450     1 C    1.371     9 H    0.968
                             3 C    0.105
     7   6 C    3.967 --    11 N    1.831     1 C    1.088    20 H    0.941
     8   1 H    0.997 --     2 C    0.965
     9   1 H    0.998 --     6 C    0.968
    10   1 H    0.997 --     4 C    0.970
    11   7 N    3.077 --     7 C    1.831    12 C    1.021
    12   6 C    3.983 --    11 N    1.021    14 C    0.988    15 H    0.966
                            16 H    0.956
    13   1 H    0.968 --    32 N    0.931
    14   6 C    3.991 --    29 C    1.005    12 C    0.988    18 H    0.978
                            17 H    0.974
    15   1 H    1.000 --    12 C    0.966
    16   1 H    0.995 --    12 C    0.956
    17   1 H    0.998 --    14 C    0.974
    18   1 H    0.999 --    14 C    0.978
    19   8 O    1.797 --    21 H    0.914    23 H    0.850
    20   1 H    1.000 --     7 C    0.941
    21   1 H    0.924 --    19 O    0.914
    22   8 O    1.845 --    24 H    0.918    25 H    0.803
    23   1 H    0.903 --    19 O    0.850
    24   1 H    0.920 --    22 O    0.918
    25   1 H    0.904 --    22 O    0.803
    26   1 H    0.978 --    32 N    0.964
    27   1 H    0.997 --     3 C    0.969
    28   1 H    0.998 --     5 C    0.970
    29   6 C    3.995 --    42 C    1.018    14 C    1.005    31 H    0.978
                            30 H    0.978
    30   1 H    0.999 --    29 C    0.978
    31   1 H    0.999 --    29 C    0.978
    32   7 N    3.110 --    33 C    1.012    26 H    0.964    13 H    0.931
    33   6 C    3.980 --    32 N    1.012    36 C    0.999    34 H    0.976
                            35 H    0.975
    34   1 H    0.999 --    33 C    0.976
    35   1 H    0.998 --    33 C    0.975
    36   6 C    3.996 --    39 C    1.006    33 C    0.999    38 H    0.977
                            37 H    0.973
    37   1 H    0.999 --    36 C    0.973
    38   1 H    0.999 --    36 C    0.977
    39   6 C    3.996 --    46 C    1.019    36 C    1.006    40 H    0.978
                            41 H    0.978
    40   1 H    0.999 --    39 C    0.978
    41   1 H    0.999 --    39 C    0.978
    42   6 C    3.995 --    29 C    1.018    45 H    0.988    43 H    0.988
                            44 H    0.987
    43   1 H    0.999 --    42 C    0.988
    44   1 H    0.998 --    42 C    0.987
    45   1 H    0.999 --    42 C    0.988
    46   6 C    3.996 --    39 C    1.019    47 H    0.988    49 H    0.988
                            48 H    0.987
    47   1 H    0.999 --    46 C    0.988
    48   1 H    0.998 --    46 C    0.987
    49   1 H    0.999 --    46 C    0.988
 ---------------------------------------------------------------------------

Topologies differ in total number of bonds
Writing topology from bond orders to xtbtopo.mol

molecular dipole:
                 x           y           z       tot (Debye)
 q only:       -1.357      -0.718       0.524
   full:       -1.641      -1.187       0.329       5.215
molecular quadrupole (traceless):
                xx          xy          yy          xz          yz          zz
 q only:       11.685      -9.131      -7.389       9.894       4.597      -4.296
  q+dip:       13.395     -14.162     -10.132       9.793      10.626      -3.263
   full:       12.049     -13.278      -8.183      10.396       7.793      -3.866


           -------------------------------------------------
          | TOTAL ENERGY              -61.378596527022 Eh   |
          | GRADIENT NORM               0.057905991005 Eh/α |
          | HOMO-LUMO GAP               2.895648791542 eV   |
           -------------------------------------------------

------------------------------------------------------------------------
 * finished run on 2020/08/24 at 03:46:40.723     
------------------------------------------------------------------------
 total:
 * wall-time:     0 d,  0 h,  0 min,  0.212 sec
 *  cpu-time:     0 d,  0 h,  0 min,  2.505 sec
 * ratio c/w:    11.810 speedup
 SCF:
 * wall-time:     0 d,  0 h,  0 min,  0.144 sec
 *  cpu-time:     0 d,  0 h,  0 min,  1.715 sec
 * ratio c/w:    11.945 speedup


-------------------------   --------------------
FINAL SINGLE POINT ENERGY       -61.378596527020
-------------------------   --------------------


----------------------------------------------------------------------------
                           ORCA NUMERICAL FREQUENCIES
                              (9-process run)
----------------------------------------------------------------------------

Number of atoms                ... 49
Central differences            ... used
Number of displacements        ... 294
Numerical increment            ... 5.000e-03 bohr
IR-spectrum generation         ... on
Raman-spectrum generation      ... off
Surface Crossing Hessian       ... off
List of participating nodes    ...  /tmp/slurm-scratch/freq.441/freq.hostnames

The output will be reduced. Please look at the following files:
SCF program output             ... >/tmp/slurm-scratch/freq.441/freq.lastscf
Integral program output        ... >/tmp/slurm-scratch/freq.441/freq.lastint
Gradient program output        ... >/tmp/slurm-scratch/freq.441/freq.lastgrad
Dipole moment program output   ... >/tmp/slurm-scratch/freq.441/freq.lastmom
AutoCI program output          ... >/tmp/slurm-scratch/freq.441/freq.lastautoci


         <<< Energy and Gradient at the input geometry >>>

        <<< Energy and Gradient at displaced geometries >>>
             <<<Displacing   2/coordinate 2 (+)>>>
             <<<Displacing   3/coordinate 3 (+)>>>
             <<<Displacing   2/coordinate 3 (+)>>>
             <<<Displacing   3/coordinate 1 (+)>>>
             <<<Displacing   1/coordinate 1 (+)>>>
             <<<Displacing   2/coordinate 2 (-)>>>
             <<<Displacing   3/coordinate 3 (-)>>>
             <<<Displacing   3/coordinate 1 (-)>>>
             <<<Displacing   2/coordinate 3 (-)>>>
             <<<Displacing   1/coordinate 3 (+)>>>
             <<<Displacing   1/coordinate 1 (-)>>>
             <<<Displacing   3/coordinate 2 (+)>>>
             <<<Displacing   2/coordinate 1 (+)>>>
             <<<Displacing   1/coordinate 2 (+)>>>
             <<<Displacing   1/coordinate 3 (-)>>>
             <<<Displacing   3/coordinate 2 (-)>>>
             <<<Displacing   1/coordinate 2 (-)>>>
             <<<Displacing   2/coordinate 1 (-)>>>
             <<<Displacing   4/coordinate 1 (+)>>>
             <<<Displacing   5/coordinate 1 (+)>>>
             <<<Displacing   4/coordinate 2 (+)>>>
             <<<Displacing   4/coordinate 1 (-)>>>
             <<<Displacing   5/coordinate 1 (-)>>>
             <<<Displacing   4/coordinate 3 (+)>>>
             <<<Displacing   4/coordinate 2 (-)>>>
             <<<Displacing   5/coordinate 2 (+)>>>
             <<<Displacing   5/coordinate 3 (+)>>>
             <<<Displacing   4/coordinate 3 (-)>>>
             <<<Displacing   6/coordinate 3 (+)>>>
             <<<Displacing   5/coordinate 2 (-)>>>
             <<<Displacing   5/coordinate 3 (-)>>>
             <<<Displacing   6/coordinate 2 (+)>>>
             <<<Displacing   6/coordinate 3 (-)>>>
             <<<Displacing   6/coordinate 2 (-)>>>
             <<<Displacing   6/coordinate 1 (+)>>>
             <<<Displacing   6/coordinate 1 (-)>>>
             <<<Displacing   7/coordinate 2 (+)>>>
             <<<Displacing   7/coordinate 1 (+)>>>
             <<<Displacing   8/coordinate 3 (+)>>>
             <<<Displacing   7/coordinate 2 (-)>>>
             <<<Displacing   8/coordinate 1 (+)>>>
             <<<Displacing   8/coordinate 3 (-)>>>
             <<<Displacing   8/coordinate 2 (+)>>>
             <<<Displacing   7/coordinate 1 (-)>>>
             <<<Displacing   7/coordinate 3 (+)>>>
             <<<Displacing   8/coordinate 1 (-)>>>
             <<<Displacing   8/coordinate 2 (-)>>>
             <<<Displacing   7/coordinate 3 (-)>>>
             <<<Displacing   9/coordinate 1 (+)>>>
             <<<Displacing   9/coordinate 3 (+)>>>
             <<<Displacing   9/coordinate 2 (+)>>>
             <<<Displacing   9/coordinate 1 (-)>>>
             <<<Displacing   9/coordinate 2 (-)>>>
             <<<Displacing   9/coordinate 3 (-)>>>
             <<<Displacing  10/coordinate 1 (+)>>>
             <<<Displacing  11/coordinate 3 (+)>>>
             <<<Displacing  10/coordinate 3 (+)>>>
             <<<Displacing  10/coordinate 1 (-)>>>
             <<<Displacing  11/coordinate 3 (-)>>>
             <<<Displacing  10/coordinate 3 (-)>>>
             <<<Displacing  10/coordinate 2 (+)>>>
             <<<Displacing  11/coordinate 1 (+)>>>
             <<<Displacing  10/coordinate 2 (-)>>>
             <<<Displacing  11/coordinate 1 (-)>>>
             <<<Displacing  11/coordinate 2 (+)>>>
             <<<Displacing  11/coordinate 2 (-)>>>
             <<<Displacing  12/coordinate 2 (+)>>>
             <<<Displacing  12/coordinate 2 (-)>>>
             <<<Displacing  12/coordinate 3 (+)>>>
             <<<Displacing  12/coordinate 1 (+)>>>
             <<<Displacing  12/coordinate 3 (-)>>>
             <<<Displacing  12/coordinate 1 (-)>>>
             <<<Displacing  13/coordinate 2 (+)>>>
             <<<Displacing  13/coordinate 1 (+)>>>
             <<<Displacing  13/coordinate 2 (-)>>>
             <<<Displacing  13/coordinate 1 (-)>>>
             <<<Displacing  14/coordinate 1 (+)>>>
             <<<Displacing  13/coordinate 3 (+)>>>
             <<<Displacing  14/coordinate 2 (+)>>>
             <<<Displacing  14/coordinate 1 (-)>>>
             <<<Displacing  14/coordinate 2 (-)>>>
             <<<Displacing  13/coordinate 3 (-)>>>
             <<<Displacing  14/coordinate 3 (+)>>>
             <<<Displacing  14/coordinate 3 (-)>>>
             <<<Displacing  15/coordinate 1 (+)>>>
             <<<Displacing  15/coordinate 2 (+)>>>
             <<<Displacing  15/coordinate 1 (-)>>>
             <<<Displacing  15/coordinate 2 (-)>>>
             <<<Displacing  15/coordinate 3 (+)>>>
             <<<Displacing  15/coordinate 3 (-)>>>
             <<<Displacing  16/coordinate 1 (+)>>>
             <<<Displacing  16/coordinate 2 (+)>>>
             <<<Displacing  16/coordinate 1 (-)>>>
             <<<Displacing  16/coordinate 2 (-)>>>
             <<<Displacing  16/coordinate 3 (+)>>>
             <<<Displacing  17/coordinate 1 (+)>>>
             <<<Displacing  16/coordinate 3 (-)>>>
             <<<Displacing  17/coordinate 2 (+)>>>
             <<<Displacing  17/coordinate 1 (-)>>>
             <<<Displacing  17/coordinate 2 (-)>>>
             <<<Displacing  17/coordinate 3 (+)>>>
             <<<Displacing  18/coordinate 1 (+)>>>
             <<<Displacing  18/coordinate 1 (-)>>>
             <<<Displacing  17/coordinate 3 (-)>>>
             <<<Displacing  18/coordinate 2 (+)>>>
             <<<Displacing  18/coordinate 2 (-)>>>
             <<<Displacing  18/coordinate 3 (+)>>>
             <<<Displacing  18/coordinate 3 (-)>>>
             <<<Displacing  19/coordinate 1 (+)>>>
             <<<Displacing  19/coordinate 2 (+)>>>
             <<<Displacing  19/coordinate 2 (-)>>>
             <<<Displacing  19/coordinate 1 (-)>>>
             <<<Displacing  19/coordinate 3 (+)>>>
             <<<Displacing  20/coordinate 1 (+)>>>
             <<<Displacing  20/coordinate 2 (+)>>>
             <<<Displacing  20/coordinate 1 (-)>>>
             <<<Displacing  19/coordinate 3 (-)>>>
             <<<Displacing  20/coordinate 2 (-)>>>
             <<<Displacing  21/coordinate 1 (+)>>>
             <<<Displacing  20/coordinate 3 (+)>>>
             <<<Displacing  21/coordinate 1 (-)>>>
             <<<Displacing  20/coordinate 3 (-)>>>
             <<<Displacing  21/coordinate 2 (+)>>>
             <<<Displacing  21/coordinate 3 (+)>>>
             <<<Displacing  21/coordinate 2 (-)>>>
             <<<Displacing  21/coordinate 3 (-)>>>
             <<<Displacing  22/coordinate 1 (+)>>>
             <<<Displacing  22/coordinate 2 (+)>>>
             <<<Displacing  22/coordinate 1 (-)>>>
             <<<Displacing  22/coordinate 2 (-)>>>
             <<<Displacing  23/coordinate 1 (+)>>>
             <<<Displacing  22/coordinate 3 (+)>>>
             <<<Displacing  22/coordinate 3 (-)>>>
             <<<Displacing  23/coordinate 1 (-)>>>
             <<<Displacing  23/coordinate 3 (+)>>>
             <<<Displacing  23/coordinate 2 (+)>>>
             <<<Displacing  24/coordinate 1 (+)>>>
             <<<Displacing  23/coordinate 3 (-)>>>
             <<<Displacing  23/coordinate 2 (-)>>>
             <<<Displacing  24/coordinate 1 (-)>>>
             <<<Displacing  24/coordinate 3 (+)>>>
             <<<Displacing  24/coordinate 2 (+)>>>
             <<<Displacing  24/coordinate 3 (-)>>>
             <<<Displacing  24/coordinate 2 (-)>>>
             <<<Displacing  25/coordinate 2 (+)>>>
             <<<Displacing  25/coordinate 2 (-)>>>
             <<<Displacing  25/coordinate 1 (+)>>>
             <<<Displacing  25/coordinate 1 (-)>>>
             <<<Displacing  25/coordinate 3 (+)>>>
             <<<Displacing  26/coordinate 1 (+)>>>
             <<<Displacing  26/coordinate 1 (-)>>>
             <<<Displacing  25/coordinate 3 (-)>>>
             <<<Displacing  26/coordinate 3 (+)>>>
             <<<Displacing  26/coordinate 2 (+)>>>
             <<<Displacing  26/coordinate 3 (-)>>>
             <<<Displacing  27/coordinate 1 (+)>>>
             <<<Displacing  26/coordinate 2 (-)>>>
             <<<Displacing  27/coordinate 1 (-)>>>
             <<<Displacing  27/coordinate 2 (+)>>>
             <<<Displacing  27/coordinate 3 (+)>>>
             <<<Displacing  27/coordinate 2 (-)>>>
             <<<Displacing  27/coordinate 3 (-)>>>
             <<<Displacing  28/coordinate 1 (+)>>>
             <<<Displacing  28/coordinate 1 (-)>>>
             <<<Displacing  28/coordinate 3 (+)>>>
             <<<Displacing  28/coordinate 2 (+)>>>
             <<<Displacing  28/coordinate 3 (-)>>>
             <<<Displacing  28/coordinate 2 (-)>>>
             <<<Displacing  29/coordinate 1 (+)>>>
             <<<Displacing  29/coordinate 1 (-)>>>
             <<<Displacing  29/coordinate 2 (+)>>>
             <<<Displacing  29/coordinate 3 (+)>>>
             <<<Displacing  29/coordinate 2 (-)>>>
             <<<Displacing  29/coordinate 3 (-)>>>
             <<<Displacing  30/coordinate 1 (+)>>>
             <<<Displacing  30/coordinate 1 (-)>>>
             <<<Displacing  30/coordinate 3 (+)>>>
             <<<Displacing  30/coordinate 2 (+)>>>
             <<<Displacing  30/coordinate 3 (-)>>>
             <<<Displacing  30/coordinate 2 (-)>>>
             <<<Displacing  31/coordinate 1 (+)>>>
             <<<Displacing  31/coordinate 1 (-)>>>
             <<<Displacing  31/coordinate 2 (+)>>>
             <<<Displacing  31/coordinate 3 (+)>>>
             <<<Displacing  31/coordinate 2 (-)>>>
             <<<Displacing  31/coordinate 3 (-)>>>
             <<<Displacing  32/coordinate 1 (+)>>>
             <<<Displacing  32/coordinate 1 (-)>>>
             <<<Displacing  32/coordinate 2 (+)>>>
             <<<Displacing  32/coordinate 3 (+)>>>
             <<<Displacing  33/coordinate 1 (+)>>>
             <<<Displacing  32/coordinate 2 (-)>>>
             <<<Displacing  32/coordinate 3 (-)>>>
             <<<Displacing  33/coordinate 1 (-)>>>
             <<<Displacing  33/coordinate 2 (+)>>>
             <<<Displacing  33/coordinate 3 (+)>>>
             <<<Displacing  33/coordinate 2 (-)>>>
             <<<Displacing  33/coordinate 3 (-)>>>
             <<<Displacing  34/coordinate 1 (+)>>>
             <<<Displacing  34/coordinate 2 (+)>>>
             <<<Displacing  34/coordinate 1 (-)>>>
             <<<Displacing  34/coordinate 3 (+)>>>
             <<<Displacing  34/coordinate 3 (-)>>>
             <<<Displacing  34/coordinate 2 (-)>>>
             <<<Displacing  35/coordinate 1 (+)>>>
             <<<Displacing  35/coordinate 2 (+)>>>
             <<<Displacing  35/coordinate 2 (-)>>>
             <<<Displacing  35/coordinate 1 (-)>>>
             <<<Displacing  35/coordinate 3 (+)>>>
             <<<Displacing  35/coordinate 3 (-)>>>
             <<<Displacing  36/coordinate 1 (+)>>>
             <<<Displacing  36/coordinate 1 (-)>>>
             <<<Displacing  36/coordinate 2 (+)>>>
             <<<Displacing  36/coordinate 3 (+)>>>
             <<<Displacing  36/coordinate 3 (-)>>>
             <<<Displacing  36/coordinate 2 (-)>>>
             <<<Displacing  37/coordinate 1 (+)>>>
             <<<Displacing  37/coordinate 2 (+)>>>
             <<<Displacing  37/coordinate 3 (+)>>>
             <<<Displacing  37/coordinate 1 (-)>>>
             <<<Displacing  37/coordinate 2 (-)>>>
             <<<Displacing  37/coordinate 3 (-)>>>
             <<<Displacing  38/coordinate 2 (+)>>>
             <<<Displacing  38/coordinate 1 (+)>>>
             <<<Displacing  38/coordinate 2 (-)>>>
             <<<Displacing  38/coordinate 1 (-)>>>
             <<<Displacing  38/coordinate 3 (+)>>>
             <<<Displacing  38/coordinate 3 (-)>>>
             <<<Displacing  39/coordinate 1 (+)>>>
             <<<Displacing  39/coordinate 1 (-)>>>
             <<<Displacing  39/coordinate 3 (+)>>>
             <<<Displacing  39/coordinate 2 (+)>>>
             <<<Displacing  39/coordinate 3 (-)>>>
             <<<Displacing  39/coordinate 2 (-)>>>
             <<<Displacing  40/coordinate 1 (+)>>>
             <<<Displacing  40/coordinate 2 (+)>>>
             <<<Displacing  40/coordinate 1 (-)>>>
             <<<Displacing  40/coordinate 2 (-)>>>
             <<<Displacing  41/coordinate 1 (+)>>>
             <<<Displacing  40/coordinate 3 (+)>>>
             <<<Displacing  41/coordinate 1 (-)>>>
             <<<Displacing  40/coordinate 3 (-)>>>
             <<<Displacing  41/coordinate 2 (+)>>>
             <<<Displacing  41/coordinate 2 (-)>>>
             <<<Displacing  41/coordinate 3 (+)>>>
             <<<Displacing  41/coordinate 3 (-)>>>
             <<<Displacing  42/coordinate 1 (+)>>>
             <<<Displacing  42/coordinate 2 (+)>>>
             <<<Displacing  42/coordinate 1 (-)>>>
             <<<Displacing  42/coordinate 3 (+)>>>
             <<<Displacing  42/coordinate 2 (-)>>>
             <<<Displacing  42/coordinate 3 (-)>>>
             <<<Displacing  43/coordinate 1 (+)>>>
             <<<Displacing  43/coordinate 2 (+)>>>
             <<<Displacing  43/coordinate 1 (-)>>>
             <<<Displacing  43/coordinate 2 (-)>>>
             <<<Displacing  43/coordinate 3 (+)>>>
             <<<Displacing  44/coordinate 1 (+)>>>
             <<<Displacing  44/coordinate 1 (-)>>>
             <<<Displacing  44/coordinate 2 (+)>>>
             <<<Displacing  43/coordinate 3 (-)>>>
             <<<Displacing  44/coordinate 2 (-)>>>
             <<<Displacing  44/coordinate 3 (+)>>>
             <<<Displacing  44/coordinate 3 (-)>>>
             <<<Displacing  45/coordinate 2 (+)>>>
             <<<Displacing  45/coordinate 1 (+)>>>
             <<<Displacing  45/coordinate 3 (+)>>>
             <<<Displacing  45/coordinate 2 (-)>>>
             <<<Displacing  45/coordinate 1 (-)>>>
             <<<Displacing  45/coordinate 3 (-)>>>
             <<<Displacing  46/coordinate 1 (+)>>>
             <<<Displacing  46/coordinate 2 (+)>>>
             <<<Displacing  46/coordinate 1 (-)>>>
             <<<Displacing  46/coordinate 2 (-)>>>
             <<<Displacing  47/coordinate 1 (+)>>>
             <<<Displacing  46/coordinate 3 (+)>>>
             <<<Displacing  47/coordinate 1 (-)>>>
             <<<Displacing  46/coordinate 3 (-)>>>
             <<<Displacing  47/coordinate 2 (+)>>>
             <<<Displacing  47/coordinate 2 (-)>>>
             <<<Displacing  47/coordinate 3 (+)>>>
             <<<Displacing  48/coordinate 1 (+)>>>
             <<<Displacing  47/coordinate 3 (-)>>>
             <<<Displacing  48/coordinate 1 (-)>>>
             <<<Displacing  48/coordinate 3 (+)>>>
             <<<Displacing  48/coordinate 2 (+)>>>
             <<<Displacing  48/coordinate 3 (-)>>>
             <<<Displacing  48/coordinate 2 (-)>>>
             <<<Displacing  49/coordinate 1 (+)>>>
             <<<Displacing  49/coordinate 2 (+)>>>
             <<<Displacing  49/coordinate 1 (-)>>>
             <<<Displacing  49/coordinate 2 (-)>>>
             <<<Displacing  49/coordinate 3 (+)>>>
             <<<Displacing  49/coordinate 3 (-)>>>

-----------------------
VIBRATIONAL FREQUENCIES
-----------------------

Scaling factor for frequencies =  1.000000000 (already applied!)

   0:         0.00 cm**-1
   1:         0.00 cm**-1
   2:         0.00 cm**-1
   3:         0.00 cm**-1
   4:         0.00 cm**-1
   5:         0.00 cm**-1
   6:        33.90 cm**-1
   7:        37.84 cm**-1
   8:        43.93 cm**-1
   9:        49.12 cm**-1
  10:        57.70 cm**-1
  11:        79.82 cm**-1
  12:        83.42 cm**-1
  13:        90.01 cm**-1
  14:       100.01 cm**-1
  15:       101.74 cm**-1
  16:       116.50 cm**-1
  17:       150.53 cm**-1
  18:       158.28 cm**-1
  19:       167.01 cm**-1
  20:       173.24 cm**-1
  21:       178.13 cm**-1
  22:       182.53 cm**-1
  23:       190.25 cm**-1
  24:       210.23 cm**-1
  25:       220.97 cm**-1
  26:       253.12 cm**-1
  27:       274.82 cm**-1
  28:       288.22 cm**-1
  29:       303.58 cm**-1
  30:       346.83 cm**-1
  31:       349.96 cm**-1
  32:       386.17 cm**-1
  33:       393.84 cm**-1
  34:       401.70 cm**-1
  35:       403.37 cm**-1
  36:       428.48 cm**-1
  37:       448.50 cm**-1
  38:       475.31 cm**-1
  39:       478.47 cm**-1
  40:       516.15 cm**-1
  41:       524.09 cm**-1
  42:       579.62 cm**-1
  43:       589.42 cm**-1
  44:       625.29 cm**-1
  45:       661.14 cm**-1
  46:       677.36 cm**-1
  47:       743.74 cm**-1
  48:       784.23 cm**-1
  49:       794.62 cm**-1
  50:       795.10 cm**-1
  51:       836.88 cm**-1
  52:       843.90 cm**-1
  53:       862.53 cm**-1
  54:       890.07 cm**-1
  55:       897.11 cm**-1
  56:       923.63 cm**-1
  57:       933.96 cm**-1
  58:       939.22 cm**-1
  59:       943.45 cm**-1
  60:       949.68 cm**-1
  61:       951.77 cm**-1
  62:       958.21 cm**-1
  63:       963.84 cm**-1
  64:       974.33 cm**-1
  65:       985.20 cm**-1
  66:      1007.48 cm**-1
  67:      1037.68 cm**-1
  68:      1043.42 cm**-1
  69:      1052.01 cm**-1
  70:      1056.10 cm**-1
  71:      1069.40 cm**-1
  72:      1076.72 cm**-1
  73:      1093.00 cm**-1
  74:      1109.10 cm**-1
  75:      1118.03 cm**-1
  76:      1137.89 cm**-1
  77:      1143.91 cm**-1
  78:      1183.34 cm**-1
  79:      1187.14 cm**-1
  80:      1208.04 cm**-1
  81:      1211.44 cm**-1
  82:      1215.50 cm**-1
  83:      1245.10 cm**-1
  84:      1259.49 cm**-1
  85:      1266.12 cm**-1
  86:      1272.56 cm**-1
  87:      1279.03 cm**-1
  88:      1280.34 cm**-1
  89:      1283.20 cm**-1
  90:      1286.50 cm**-1
  91:      1314.34 cm**-1
  92:      1328.94 cm**-1
  93:      1343.18 cm**-1
  94:      1353.92 cm**-1
  95:      1369.32 cm**-1
  96:      1375.43 cm**-1
  97:      1407.78 cm**-1
  98:      1434.30 cm**-1
  99:      1434.73 cm**-1
 100:      1439.49 cm**-1
 101:      1473.83 cm**-1
 102:      1496.59 cm**-1
 103:      1506.37 cm**-1
 104:      1508.27 cm**-1
 105:      1508.90 cm**-1
 106:      1510.49 cm**-1
 107:      1511.42 cm**-1
 108:      1512.28 cm**-1
 109:      1515.19 cm**-1
 110:      1517.36 cm**-1
 111:      1524.08 cm**-1
 112:      1532.31 cm**-1
 113:      1558.14 cm**-1
 114:      1568.88 cm**-1
 115:      1583.23 cm**-1
 116:      1603.81 cm**-1
 117:      2484.04 cm**-1
 118:      2788.81 cm**-1
 119:      2809.17 cm**-1
 120:      2867.28 cm**-1
 121:      2871.25 cm**-1
 122:      2873.47 cm**-1
 123:      2876.10 cm**-1
 124:      2886.49 cm**-1
 125:      2887.81 cm**-1
 126:      2895.14 cm**-1
 127:      2897.18 cm**-1
 128:      2904.23 cm**-1
 129:      2906.01 cm**-1
 130:      2911.53 cm**-1
 131:      2912.40 cm**-1
 132:      2913.71 cm**-1
 133:      2918.09 cm**-1
 134:      2918.77 cm**-1
 135:      2930.12 cm**-1
 136:      2930.82 cm**-1
 137:      2983.63 cm**-1
 138:      2990.80 cm**-1
 139:      2996.81 cm**-1
 140:      3005.67 cm**-1
 141:      3027.38 cm**-1
 142:      3034.47 cm**-1
 143:      3160.13 cm**-1
 144:      3294.33 cm**-1
 145:      3427.62 cm**-1
 146:      3436.76 cm**-1


------------
NORMAL MODES
------------

These modes are the cartesian displacements weighted by the diagonal matrix
M(i,i)=1/sqrt(m[i]) where m[i] is the mass of the displaced atom
Thus, these vectors are normalized but *not* orthogonal

                  0          1          2          3          4          5    
      0       0.000000   0.000000   0.000000   0.000000   0.000000   0.000000
      1       0.000000   0.000000   0.000000   0.000000   0.000000   0.000000
      2       0.000000   0.000000   0.000000   0.000000   0.000000   0.000000
      3       0.000000   0.000000   0.000000   0.000000   0.000000   0.000000
      4       0.000000   0.000000   0.000000   0.000000   0.000000   0.000000
      5       0.000000   0.000000   0.000000   0.000000   0.000000   0.000000
      6       0.000000   0.000000   0.000000   0.000000   0.000000   0.000000
      7       0.000000   0.000000   0.000000   0.000000   0.000000   0.000000
      8       0.000000   0.000000   0.000000   0.000000   0.000000   0.000000
      9       0.000000   0.000000   0.000000   0.000000   0.000000   0.000000
     10       0.000000   0.000000   0.000000   0.000000   0.000000   0.000000
     11       0.000000   0.000000   0.000000   0.000000   0.000000   0.000000
     12       0.000000   0.000000   0.000000   0.000000   0.000000   0.000000
     13       0.000000   0.000000   0.000000   0.000000   0.000000   0.000000
     14       0.000000   0.000000   0.000000   0.000000   0.000000   0.000000
     15       0.000000   0.000000   0.000000   0.000000   0.000000   0.000000
     16       0.000000   0.000000   0.000000   0.000000   0.000000   0.000000
     17       0.000000   0.000000   0.000000   0.000000   0.000000   0.000000
     18       0.000000   0.000000   0.000000   0.000000   0.000000   0.000000
     19       0.000000   0.000000   0.000000   0.000000   0.000000   0.000000
     20       0.000000   0.000000   0.000000   0.000000   0.000000   0.000000
     21       0.000000   0.000000   0.000000   0.000000   0.000000   0.000000
     22       0.000000   0.000000   0.000000   0.000000   0.000000   0.000000
     23       0.000000   0.000000   0.000000   0.000000   0.000000   0.000000
     24       0.000000   0.000000   0.000000   0.000000   0.000000   0.000000
     25       0.000000   0.000000   0.000000   0.000000   0.000000   0.000000
     26       0.000000   0.000000   0.000000   0.000000   0.000000   0.000000
     27       0.000000   0.000000   0.000000   0.000000   0.000000   0.000000
     28       0.000000   0.000000   0.000000   0.000000   0.000000   0.000000
     29       0.000000   0.000000   0.000000   0.000000   0.000000   0.000000
     30       0.000000   0.000000   0.000000   0.000000   0.000000   0.000000
     31       0.000000   0.000000   0.000000   0.000000   0.000000   0.000000
     32       0.000000   0.000000   0.000000   0.000000   0.000000   0.000000
     33       0.000000   0.000000   0.000000   0.000000   0.000000   0.000000
     34       0.000000   0.000000   0.000000   0.000000   0.000000   0.000000
     35       0.000000   0.000000   0.000000   0.000000   0.000000   0.000000
     36       0.000000   0.000000   0.000000   0.000000   0.000000   0.000000
     37       0.000000   0.000000   0.000000   0.000000   0.000000   0.000000
     38       0.000000   0.000000   0.000000   0.000000   0.000000   0.000000
     39       0.000000   0.000000   0.000000   0.000000   0.000000   0.000000
     40       0.000000   0.000000   0.000000   0.000000   0.000000   0.000000
     41       0.000000   0.000000   0.000000   0.000000   0.000000   0.000000
     42       0.000000   0.000000   0.000000   0.000000   0.000000   0.000000
     43       0.000000   0.000000   0.000000   0.000000   0.000000   0.000000
     44       0.000000   0.000000   0.000000   0.000000   0.000000   0.000000
     45       0.000000   0.000000   0.000000   0.000000   0.000000   0.000000
     46       0.000000   0.000000   0.000000   0.000000   0.000000   0.000000
     47       0.000000   0.000000   0.000000   0.000000   0.000000   0.000000
     48       0.000000   0.000000   0.000000   0.000000   0.000000   0.000000
     49       0.000000   0.000000   0.000000   0.000000   0.000000   0.000000
     50       0.000000   0.000000   0.000000   0.000000   0.000000   0.000000
     51       0.000000   0.000000   0.000000   0.000000   0.000000   0.000000
     52       0.000000   0.000000   0.000000   0.000000   0.000000   0.000000
     53       0.000000   0.000000   0.000000   0.000000   0.000000   0.000000
     54       0.000000   0.000000   0.000000   0.000000   0.000000   0.000000
     55       0.000000   0.000000   0.000000   0.000000   0.000000   0.000000
     56       0.000000   0.000000   0.000000   0.000000   0.000000   0.000000
     57       0.000000   0.000000   0.000000   0.000000   0.000000   0.000000
     58       0.000000   0.000000   0.000000   0.000000   0.000000   0.000000
     59       0.000000   0.000000   0.000000   0.000000   0.000000   0.000000
     60       0.000000   0.000000   0.000000   0.000000   0.000000   0.000000
     61       0.000000   0.000000   0.000000   0.000000   0.000000   0.000000
     62       0.000000   0.000000   0.000000   0.000000   0.000000   0.000000
     63       0.000000   0.000000   0.000000   0.000000   0.000000   0.000000
     64       0.000000   0.000000   0.000000   0.000000   0.000000   0.000000
     65       0.000000   0.000000   0.000000   0.000000   0.000000   0.000000
     66       0.000000   0.000000   0.000000   0.000000   0.000000   0.000000
     67       0.000000   0.000000   0.000000   0.000000   0.000000   0.000000
     68       0.000000   0.000000   0.000000   0.000000   0.000000   0.000000
     69       0.000000   0.000000   0.000000   0.000000   0.000000   0.000000
     70       0.000000   0.000000   0.000000   0.000000   0.000000   0.000000
     71       0.000000   0.000000   0.000000   0.000000   0.000000   0.000000
     72       0.000000   0.000000   0.000000   0.000000   0.000000   0.000000
     73       0.000000   0.000000   0.000000   0.000000   0.000000   0.000000
     74       0.000000   0.000000   0.000000   0.000000   0.000000   0.000000
     75       0.000000   0.000000   0.000000   0.000000   0.000000   0.000000
     76       0.000000   0.000000   0.000000   0.000000   0.000000   0.000000
     77       0.000000   0.000000   0.000000   0.000000   0.000000   0.000000
     78       0.000000   0.000000   0.000000   0.000000   0.000000   0.000000
     79       0.000000   0.000000   0.000000   0.000000   0.000000   0.000000
     80       0.000000   0.000000   0.000000   0.000000   0.000000   0.000000
     81       0.000000   0.000000   0.000000   0.000000   0.000000   0.000000
     82       0.000000   0.000000   0.000000   0.000000   0.000000   0.000000
     83       0.000000   0.000000   0.000000   0.000000   0.000000   0.000000
     84       0.000000   0.000000   0.000000   0.000000   0.000000   0.000000
     85       0.000000   0.000000   0.000000   0.000000   0.000000   0.000000
     86       0.000000   0.000000   0.000000   0.000000   0.000000   0.000000
     87       0.000000   0.000000   0.000000   0.000000   0.000000   0.000000
     88       0.000000   0.000000   0.000000   0.000000   0.000000   0.000000
     89       0.000000   0.000000   0.000000   0.000000   0.000000   0.000000
     90       0.000000   0.000000   0.000000   0.000000   0.000000   0.000000
     91       0.000000   0.000000   0.000000   0.000000   0.000000   0.000000
     92       0.000000   0.000000   0.000000   0.000000   0.000000   0.000000
     93       0.000000   0.000000   0.000000   0.000000   0.000000   0.000000
     94       0.000000   0.000000   0.000000   0.000000   0.000000   0.000000
     95       0.000000   0.000000   0.000000   0.000000   0.000000   0.000000
     96       0.000000   0.000000   0.000000   0.000000   0.000000   0.000000
     97       0.000000   0.000000   0.000000   0.000000   0.000000   0.000000
     98       0.000000   0.000000   0.000000   0.000000   0.000000   0.000000
     99       0.000000   0.000000   0.000000   0.000000   0.000000   0.000000
    100       0.000000   0.000000   0.000000   0.000000   0.000000   0.000000
    101       0.000000   0.000000   0.000000   0.000000   0.000000   0.000000
    102       0.000000   0.000000   0.000000   0.000000   0.000000   0.000000
    103       0.000000   0.000000   0.000000   0.000000   0.000000   0.000000
    104       0.000000   0.000000   0.000000   0.000000   0.000000   0.000000
    105       0.000000   0.000000   0.000000   0.000000   0.000000   0.000000
    106       0.000000   0.000000   0.000000   0.000000   0.000000   0.000000
    107       0.000000   0.000000   0.000000   0.000000   0.000000   0.000000
    108       0.000000   0.000000   0.000000   0.000000   0.000000   0.000000
    109       0.000000   0.000000   0.000000   0.000000   0.000000   0.000000
    110       0.000000   0.000000   0.000000   0.000000   0.000000   0.000000
    111       0.000000   0.000000   0.000000   0.000000   0.000000   0.000000
    112       0.000000   0.000000   0.000000   0.000000   0.000000   0.000000
    113       0.000000   0.000000   0.000000   0.000000   0.000000   0.000000
    114       0.000000   0.000000   0.000000   0.000000   0.000000   0.000000
    115       0.000000   0.000000   0.000000   0.000000   0.000000   0.000000
    116       0.000000   0.000000   0.000000   0.000000   0.000000   0.000000
    117       0.000000   0.000000   0.000000   0.000000   0.000000   0.000000
    118       0.000000   0.000000   0.000000   0.000000   0.000000   0.000000
    119       0.000000   0.000000   0.000000   0.000000   0.000000   0.000000
    120       0.000000   0.000000   0.000000   0.000000   0.000000   0.000000
    121       0.000000   0.000000   0.000000   0.000000   0.000000   0.000000
    122       0.000000   0.000000   0.000000   0.000000   0.000000   0.000000
    123       0.000000   0.000000   0.000000   0.000000   0.000000   0.000000
    124       0.000000   0.000000   0.000000   0.000000   0.000000   0.000000
    125       0.000000   0.000000   0.000000   0.000000   0.000000   0.000000
    126       0.000000   0.000000   0.000000   0.000000   0.000000   0.000000
    127       0.000000   0.000000   0.000000   0.000000   0.000000   0.000000
    128       0.000000   0.000000   0.000000   0.000000   0.000000   0.000000
    129       0.000000   0.000000   0.000000   0.000000   0.000000   0.000000
    130       0.000000   0.000000   0.000000   0.000000   0.000000   0.000000
    131       0.000000   0.000000   0.000000   0.000000   0.000000   0.000000
    132       0.000000   0.000000   0.000000   0.000000   0.000000   0.000000
    133       0.000000   0.000000   0.000000   0.000000   0.000000   0.000000
    134       0.000000   0.000000   0.000000   0.000000   0.000000   0.000000
    135       0.000000   0.000000   0.000000   0.000000   0.000000   0.000000
    136       0.000000   0.000000   0.000000   0.000000   0.000000   0.000000
    137       0.000000   0.000000   0.000000   0.000000   0.000000   0.000000
    138       0.000000   0.000000   0.000000   0.000000   0.000000   0.000000
    139       0.000000   0.000000   0.000000   0.000000   0.000000   0.000000
    140       0.000000   0.000000   0.000000   0.000000   0.000000   0.000000
    141       0.000000   0.000000   0.000000   0.000000   0.000000   0.000000
    142       0.000000   0.000000   0.000000   0.000000   0.000000   0.000000
    143       0.000000   0.000000   0.000000   0.000000   0.000000   0.000000
    144       0.000000   0.000000   0.000000   0.000000   0.000000   0.000000
    145       0.000000   0.000000   0.000000   0.000000   0.000000   0.000000
    146       0.000000   0.000000   0.000000   0.000000   0.000000   0.000000
                  6          7          8          9         10         11    
      0       0.037158  -0.098304  -0.000942  -0.042015  -0.007586  -0.024849
      1       0.017934   0.037335   0.041830   0.016146   0.075859   0.027946
      2       0.075972   0.014640  -0.002451  -0.004798  -0.032384  -0.040520
      3       0.025648  -0.115517   0.001315  -0.040025  -0.002864  -0.008408
      4       0.011208   0.022983   0.045522   0.001964   0.099380   0.035686
      5       0.075445   0.015952  -0.003670   0.003986  -0.043497  -0.038695
      6       0.017396  -0.129216   0.002731  -0.038981   0.000570   0.004382
      7      -0.003628   0.040356   0.044769   0.015523   0.128947  -0.008890
      8       0.091873   0.020383  -0.004602  -0.004639  -0.062924  -0.027583
      9       0.019503  -0.125611   0.002342  -0.039157  -0.000066   0.000489
     10      -0.009267   0.069484   0.040870   0.039416   0.137246  -0.063914
     11       0.108602   0.026160  -0.003972  -0.019140  -0.070645  -0.017951
     12       0.030649  -0.108046   0.000534  -0.040603  -0.003314  -0.015889
     13      -0.004038   0.081122   0.036982   0.050006   0.116816  -0.079953
     14       0.110600   0.026637  -0.002734  -0.025518  -0.060576  -0.015600
     15       0.039613  -0.094461  -0.001256  -0.041474  -0.006786  -0.029071
     16       0.008479   0.067104   0.037373   0.040144   0.087655  -0.036660
     17       0.095389   0.020795  -0.001863  -0.018946  -0.042264  -0.027106
     18       0.051497  -0.075703  -0.001202  -0.041545  -0.008771  -0.039540
     19       0.040198   0.019716   0.044509   0.007932   0.042714   0.082665
     20       0.051123   0.002683  -0.003441  -0.001576  -0.014556  -0.052754
     21       0.023854  -0.117438   0.002077  -0.038972  -0.001249  -0.005830
     22       0.020786  -0.004053   0.049656  -0.021023   0.093357   0.076311
     23       0.059700   0.018816  -0.002856   0.021951  -0.033965  -0.047425
     24       0.048017  -0.080650  -0.002271  -0.042118  -0.009089  -0.042788
     25       0.011648   0.076403   0.034590   0.049456   0.071965  -0.048111
     26       0.096595   0.020812  -0.000658  -0.024464  -0.034391  -0.025775
     27       0.012616  -0.136129   0.003458  -0.038430   0.002058   0.010322
     28      -0.016934   0.081014   0.040678   0.047752   0.157299  -0.092915
     29       0.119700   0.030156  -0.005031  -0.024513  -0.083965  -0.011865
     30       0.054175  -0.080327  -0.001272  -0.042670  -0.014250  -0.030887
     31       0.053845  -0.005571   0.044609   0.002463   0.013256   0.127992
     32       0.026325  -0.017946  -0.002256  -0.000754  -0.003572  -0.050856
     33       0.072257  -0.047729  -0.006303  -0.041569  -0.012497  -0.048302
     34       0.082645  -0.022404   0.059186   0.006262  -0.010322   0.134448
     35      -0.003278  -0.034783  -0.006062  -0.004115   0.007852  -0.039388
     36      -0.041280   0.059980  -0.011760   0.123376  -0.071235  -0.025951
     37      -0.035028   0.018199  -0.081667  -0.014818  -0.116648   0.169715
     38       0.010399   0.015283  -0.021976   0.071154   0.032039   0.036269
     39       0.053405  -0.011723  -0.044250  -0.067318   0.003362   0.029602
     40       0.079532  -0.082780   0.102526   0.032099  -0.019635   0.060807
     41      -0.045364  -0.062895  -0.009437  -0.011602   0.023026  -0.008529
     42       0.082880  -0.016986  -0.015711  -0.042806  -0.008804  -0.054386
     43       0.093464   0.017656   0.032897  -0.010639  -0.008596   0.182800
     44      -0.002318  -0.039276   0.006512   0.008089   0.009995  -0.082191
     45       0.089312  -0.079649   0.027123  -0.018163  -0.026831  -0.111451
     46       0.097860  -0.033659   0.069604   0.010915  -0.022304   0.127185
     47       0.004960  -0.023374  -0.019756  -0.017442   0.002088   0.007321
     48       0.048380  -0.052772  -0.011510  -0.050185  -0.003312   0.000979
     49       0.067666  -0.116883   0.118334   0.039998  -0.019292   0.026144
     50      -0.040118  -0.069827   0.005157  -0.003636   0.017275  -0.004794
     51       0.036389   0.018142  -0.076775  -0.089365   0.016609   0.099644
     52       0.061190  -0.063573   0.072793   0.012493  -0.006022   0.103199
     53      -0.057560  -0.060482  -0.025117  -0.021392   0.031418  -0.006403
     54      -0.147909   0.197561   0.264640  -0.182574  -0.030496  -0.006976
     55      -0.212681  -0.005191   0.017811  -0.001944  -0.195996  -0.272761
     56      -0.304643  -0.099319   0.121716  -0.126399   0.019058   0.123718
     57       0.061778  -0.052431  -0.002147  -0.039661  -0.004333  -0.060061
     58       0.047171   0.029887   0.047138   0.010111   0.046020   0.073897
     59       0.052038   0.008745  -0.005630  -0.001801  -0.014138  -0.058085
     60      -0.140943   0.202514   0.270215  -0.168735   0.002373  -0.053299
     61      -0.208001  -0.006254   0.014346  -0.000288  -0.198573  -0.265256
     62      -0.297511  -0.102667   0.112690  -0.130105  -0.001117   0.163938
     63       0.007955   0.162995   0.050394   0.025760   0.048689   0.054855
     64      -0.108049  -0.038877  -0.150839   0.062391  -0.287404   0.072018
     65      -0.133146  -0.102866  -0.058618   0.114792   0.202238   0.012695
     66      -0.106359   0.190426   0.211149  -0.131214  -0.010897   0.014985
     67      -0.181608  -0.016808  -0.033023   0.025150  -0.217862  -0.196753
     68      -0.259775  -0.104591   0.069232  -0.060859   0.065242   0.103335
     69       0.007279   0.163047   0.057632   0.009454   0.071432   0.098187
     70      -0.103967  -0.035892  -0.146855   0.061756  -0.263674   0.073844
     71      -0.124608  -0.097168  -0.055771   0.124659   0.233335  -0.013154
     72      -0.012065   0.149880   0.041041   0.037020   0.024028   0.026554
     73      -0.088872  -0.022868  -0.137755   0.043358  -0.257922   0.111272
     74      -0.087467  -0.070644  -0.055624   0.109437   0.172287   0.016450
     75      -0.024228   0.127086  -0.005028   0.092179  -0.083288  -0.026479
     76      -0.028356   0.048999  -0.076334  -0.030790  -0.130433   0.175251
     77       0.021647   0.039988  -0.017591   0.063755   0.041767   0.028892
     78       0.009238  -0.142560   0.003837  -0.038699   0.002475   0.017419
     79      -0.008352   0.030657   0.047365   0.006952   0.145441  -0.000760
     80       0.091431   0.020568  -0.005688   0.000221  -0.071741  -0.027123
     81       0.032128  -0.105174   0.000285  -0.040718  -0.003856  -0.018997
     82      -0.008583   0.100686   0.034012   0.065353   0.122894  -0.122345
     83       0.122327   0.030940  -0.002603  -0.035524  -0.067185  -0.006555
     84       0.063373   0.036832  -0.082850  -0.087506   0.009762   0.054373
     85       0.115788  -0.119760   0.161553   0.070953  -0.046180  -0.022960
     86      -0.073098  -0.084489  -0.008328  -0.015657   0.031714   0.017341
     87       0.078661   0.023680  -0.064763  -0.076086   0.001924   0.003977
     88       0.133003  -0.137107   0.190182   0.090281  -0.059023  -0.063191
     89      -0.060366  -0.098776   0.018214   0.002877   0.019514  -0.000670
     90       0.066604   0.073646  -0.114326  -0.104361   0.016307   0.081147
     91       0.125480  -0.102848   0.157506   0.072029  -0.049953  -0.008474
     92      -0.078215  -0.067069  -0.031696  -0.030860   0.040422   0.028176
     93      -0.041375   0.093652  -0.017356   0.111926  -0.050029  -0.034774
     94      -0.034826   0.028739  -0.081408  -0.018232  -0.113650   0.168468
     95       0.012235   0.020709  -0.024552   0.074940   0.061161   0.023887
     96      -0.055632   0.058698  -0.037535   0.127596   0.009784  -0.058358
     97      -0.030237   0.032369  -0.101139  -0.034456  -0.037914   0.119853
     98       0.025985   0.051217  -0.015632   0.056643   0.043241   0.023050
     99      -0.069269   0.027152  -0.047502   0.152091   0.039173  -0.050895
    100      -0.031437   0.027460  -0.100788  -0.018564  -0.029931   0.146211
    101       0.017813   0.032609  -0.021865   0.069533   0.060147   0.024333
    102      -0.047912   0.067252  -0.049226   0.095516   0.048041  -0.117148
    103      -0.029160   0.033362  -0.102451  -0.040213  -0.033969   0.108456
    104       0.030184   0.055663  -0.022085   0.053226   0.070997   0.019444
    105      -0.062079   0.054813  -0.029230   0.153986  -0.018106  -0.010234
    106      -0.021224   0.033306  -0.120132  -0.074666   0.021160   0.033867
    107       0.041639   0.098704   0.005527   0.028470  -0.032161   0.027437
    108      -0.070775   0.053010  -0.016753   0.188332  -0.057221   0.059363
    109      -0.022153   0.032331  -0.118283  -0.069279   0.015452   0.042591
    110       0.033406   0.103250   0.021059   0.054892  -0.057200   0.083226
    111      -0.049122   0.081171  -0.025608   0.121006  -0.045678  -0.041348
    112      -0.021526   0.041964  -0.111860  -0.073347   0.014267   0.042746
    113       0.049276   0.112960   0.006475   0.008848  -0.047436   0.007660
    114      -0.073377   0.023130  -0.042356   0.177480   0.041291  -0.012379
    115      -0.009746   0.023208  -0.153807  -0.125297   0.091881  -0.084197
    116       0.054248   0.118622   0.002291  -0.007026  -0.048955  -0.016053
    117      -0.083641   0.002943  -0.042271   0.208143   0.065154   0.020388
    118      -0.006934   0.023132  -0.156359  -0.128688   0.097325  -0.090137
    119       0.047679   0.106631   0.002668   0.011745  -0.035645   0.004378
    120      -0.067368   0.019533  -0.061625   0.144475   0.078012  -0.086348
    121      -0.009363   0.022586  -0.155920  -0.128727   0.096128  -0.092563
    122       0.062405   0.119069  -0.012120  -0.034693  -0.024595  -0.070255
    123       0.048035   0.051334  -0.102262  -0.099819   0.017715   0.109910
    124       0.113974  -0.153132   0.184715   0.081249  -0.048833  -0.068448
    125      -0.105770  -0.107750  -0.010189  -0.023349   0.042959   0.054016
    126       0.042764   0.028409  -0.085055  -0.091418   0.014987   0.098162
    127       0.106871  -0.172211   0.192214   0.082195  -0.046225  -0.087215
    128      -0.104830  -0.113245  -0.000513  -0.016453   0.038351   0.058683
    129       0.056127   0.071659  -0.115979  -0.105972   0.018977   0.111325
    130       0.130968  -0.162693   0.206383   0.097148  -0.060266  -0.106893
    131      -0.120684  -0.119059  -0.010167  -0.026443   0.047708   0.072177
    132       0.034884   0.063388  -0.118404  -0.110027   0.024255   0.158360
    133       0.102340  -0.146502   0.169757   0.070240  -0.040922  -0.042171
    134      -0.113464  -0.106879  -0.020603  -0.032271   0.049951   0.057170
    135      -0.077656   0.025492  -0.029128   0.201559   0.016970   0.039278
    136      -0.002892   0.015872  -0.179497  -0.166080   0.142373  -0.178571
    137       0.062813   0.150517   0.015238  -0.027505  -0.110253  -0.014385
    138      -0.070964   0.040709  -0.027007   0.182878  -0.004764   0.020819
    139      -0.001904   0.019317  -0.184305  -0.178505   0.143536  -0.198969
    140       0.066975   0.159755   0.017447  -0.037410  -0.124518  -0.022721
    141      -0.081582   0.008913  -0.039659   0.204947   0.053936   0.024702
    142       0.001462   0.007405  -0.194089  -0.186008   0.178239  -0.230546
    143       0.067308   0.158559   0.016585  -0.037970  -0.121260  -0.025437
    144      -0.083381   0.028589  -0.011372   0.233590  -0.014982   0.108305
    145      -0.003314   0.015910  -0.177419  -0.162197   0.139407  -0.170917
    146       0.059417   0.154866   0.020085  -0.020224  -0.126095   0.006325
                 12         13         14         15         16         17    
      0      -0.018193  -0.020046  -0.010031  -0.045142  -0.010216  -0.001367
      1       0.013505   0.031010  -0.001372   0.049637  -0.007971  -0.194928
      2      -0.009496  -0.038392   0.058212   0.033280  -0.006033   0.059824
      3       0.002265  -0.060640   0.052988   0.032026  -0.007289  -0.030460
      4      -0.040003  -0.036196   0.036601   0.061669   0.199928  -0.153822
      5       0.027098  -0.016014   0.060436   0.055934  -0.119386   0.024523
      6       0.018525  -0.091707   0.103491   0.094101  -0.008109  -0.050878
      7      -0.106997  -0.090385   0.027571   0.014549   0.209984   0.020440
      8       0.046307   0.043543   0.015574   0.020136  -0.124396  -0.052214
      9       0.013783  -0.084546   0.091092   0.078688  -0.010882  -0.045162
     10      -0.122620  -0.080670  -0.013912  -0.046801   0.004499   0.151765
     11       0.028428   0.081570  -0.034217  -0.035854  -0.011656  -0.100466
     12      -0.007427  -0.046124   0.029113   0.002551  -0.015573  -0.019066
     13      -0.071978  -0.021072  -0.044358  -0.061461  -0.209706   0.074268
     14      -0.008395   0.063320  -0.041569  -0.057931   0.107781  -0.046681
     15      -0.023701  -0.014701  -0.020920  -0.058685  -0.015066   0.000922
     16      -0.005752   0.032185  -0.038004  -0.013334  -0.212192  -0.108450
     17      -0.027207   0.003839   0.005382  -0.022873   0.110339   0.033321
     18      -0.038531   0.010912  -0.055319  -0.094961  -0.000175  -0.002972
     19       0.071143   0.075360   0.000783   0.095638  -0.018952  -0.195043
     20      -0.018222  -0.086933   0.098585   0.057693  -0.008693   0.067575
     21       0.005177  -0.066042   0.061208   0.044588  -0.003909  -0.036283
     22      -0.025679  -0.045545   0.071777   0.110666   0.342738  -0.238341
     23       0.036719  -0.043865   0.093821   0.101166  -0.191819   0.041444
     24      -0.040265   0.012917  -0.067418  -0.115940  -0.016445   0.015497
     25       0.030178   0.075322  -0.061883  -0.023482  -0.362625  -0.150693
     26      -0.054128  -0.009546   0.000426  -0.039284   0.194284   0.062952
     27       0.026584  -0.107302   0.127737   0.123674  -0.009151  -0.057791
     28      -0.169129  -0.116838  -0.020358  -0.080558   0.010539   0.295442
     29       0.041634   0.124079  -0.066887  -0.061911  -0.016565  -0.167078
     30      -0.036010   0.016630  -0.057605  -0.094832   0.007676   0.038093
     31       0.084879   0.101408  -0.002656   0.105497   0.024306   0.020237
     32       0.007277  -0.111438   0.125252   0.087097  -0.057593  -0.009416
     33      -0.057175   0.004124  -0.054790  -0.104163   0.019702  -0.008757
     34       0.098475   0.082055   0.020814   0.137726   0.004154   0.116329
     35       0.017342  -0.086985   0.106128   0.074188  -0.055788  -0.017025
     36      -0.111992   0.119964   0.003902   0.087775  -0.006621   0.019953
     37       0.003542  -0.061298   0.098771  -0.154822  -0.035400  -0.007090
     38       0.128601  -0.186147  -0.099337  -0.030395   0.009044  -0.033947
     39       0.004943   0.062379  -0.065988  -0.053256   0.024805  -0.045794
     40       0.039654   0.067883  -0.013082   0.049743   0.007202   0.177372
     41       0.041452   0.000929   0.030931   0.029770  -0.041071  -0.000335
     42      -0.067317  -0.008954  -0.042361  -0.096536   0.027124  -0.058927
     43       0.139714   0.082894   0.050338   0.204299  -0.004637   0.082241
     44      -0.023495  -0.097906   0.093290   0.029578  -0.042353  -0.034178
     45      -0.108071  -0.039351  -0.048899  -0.146429   0.017338   0.041976
     46       0.096797   0.058932   0.037858   0.148868  -0.006991   0.160149
     47       0.061035  -0.081719   0.126270   0.130268  -0.070067   0.007485
     48      -0.017631   0.087914  -0.120970  -0.125062   0.028793  -0.075332
     49       0.011249   0.076715  -0.044732  -0.007244   0.014230   0.225596
     50       0.045251   0.015255   0.010267   0.015282  -0.043119  -0.063190
     51       0.060515   0.118239  -0.079718  -0.010392   0.030468  -0.068688
     52       0.072434   0.102745  -0.017082   0.079054   0.015052   0.214988
     53       0.041787   0.004194   0.036732   0.035816  -0.034120   0.077326
     54       0.090209  -0.050993  -0.001555  -0.040982  -0.018054  -0.014156
     55       0.202307   0.055489   0.076800  -0.011595   0.097399   0.033206
     56      -0.181568  -0.032135  -0.091366   0.090775  -0.027650   0.012822
     57      -0.058336   0.018036  -0.078653  -0.126755   0.000483  -0.050951
     58       0.089080   0.069921   0.003512   0.108732  -0.076303  -0.308987
     59      -0.043734  -0.077518   0.082145   0.029910   0.034959   0.126483
     60       0.142458  -0.026039   0.044421  -0.064480   0.000506  -0.010055
     61       0.193996   0.052378   0.070149  -0.005053   0.096029   0.032226
     62      -0.225644  -0.051711  -0.129142   0.115805  -0.043082   0.007376
     63       0.017767   0.035839   0.135284  -0.120638  -0.015042  -0.013820
     64      -0.120101  -0.055670  -0.053808   0.014274  -0.021375  -0.051817
     65      -0.019922   0.122707   0.232655  -0.137617   0.039276  -0.009665
     66       0.071758  -0.034728   0.034356  -0.068595  -0.021630  -0.026181
     67       0.121625   0.038212   0.047060   0.002054   0.071411   0.017714
     68      -0.156446   0.009635  -0.013264   0.041369  -0.012753   0.008948
     69       0.000901   0.044339   0.180587  -0.155992  -0.026796  -0.014130
     70      -0.103056  -0.040902  -0.007333  -0.019377  -0.020250  -0.052998
     71       0.024857   0.145775   0.292261  -0.178797   0.049550  -0.011618
     72      -0.001820   0.044855   0.111142  -0.089273  -0.008171  -0.016499
     73      -0.095775  -0.070455  -0.012612  -0.041905  -0.030502  -0.057745
     74       0.030562   0.036595   0.125443  -0.112751   0.037716  -0.015110
     75      -0.119453   0.102032   0.002425   0.065564  -0.002231   0.026316
     76       0.008985  -0.094225   0.131814  -0.153894  -0.056085  -0.021281
     77       0.122303  -0.165435  -0.143031  -0.036519   0.036646  -0.012080
     78       0.034640  -0.119621   0.149936   0.150893  -0.006779  -0.066976
     79      -0.143383  -0.136642   0.053800   0.024869   0.363283   0.061345
     80       0.073298   0.058534   0.019168   0.036721  -0.210360  -0.081722
[...]
  29:       303.58    0.000000  (  0.000000   0.000000   0.000000)
  30:       346.83    0.000000  (  0.000000   0.000000   0.000000)
  31:       349.96    0.000000  (  0.000000   0.000000   0.000000)
  32:       386.17    0.000000  (  0.000000   0.000000   0.000000)
  33:       393.84    0.000000  (  0.000000   0.000000   0.000000)
  34:       401.70    0.000000  (  0.000000   0.000000   0.000000)
  35:       403.37    0.000000  (  0.000000   0.000000   0.000000)
  36:       428.48    0.000000  (  0.000000   0.000000   0.000000)
  37:       448.50    0.000000  (  0.000000   0.000000   0.000000)
  38:       475.31    0.000000  (  0.000000   0.000000   0.000000)
  39:       478.47    0.000000  (  0.000000   0.000000   0.000000)
  40:       516.15    0.000000  (  0.000000   0.000000   0.000000)
  41:       524.09    0.000000  (  0.000000   0.000000   0.000000)
  42:       579.62    0.000000  (  0.000000   0.000000   0.000000)
  43:       589.42    0.000000  (  0.000000   0.000000   0.000000)
  44:       625.29    0.000000  (  0.000000   0.000000   0.000000)
  45:       661.14    0.000000  (  0.000000   0.000000   0.000000)
  46:       677.36    0.000000  (  0.000000   0.000000   0.000000)
  47:       743.74    0.000000  (  0.000000   0.000000   0.000000)
  48:       784.23    0.000000  (  0.000000   0.000000   0.000000)
  49:       794.62    0.000000  (  0.000000   0.000000   0.000000)
  50:       795.10    0.000000  (  0.000000   0.000000   0.000000)
  51:       836.88    0.000000  (  0.000000   0.000000   0.000000)
  52:       843.90    0.000000  (  0.000000   0.000000   0.000000)
  53:       862.53    0.000000  (  0.000000   0.000000   0.000000)
  54:       890.07    0.000000  (  0.000000   0.000000   0.000000)
  55:       897.11    0.000000  (  0.000000   0.000000   0.000000)
  56:       923.63    0.000000  (  0.000000   0.000000   0.000000)
  57:       933.96    0.000000  (  0.000000   0.000000   0.000000)
  58:       939.22    0.000000  (  0.000000   0.000000   0.000000)
  59:       943.45    0.000000  (  0.000000   0.000000   0.000000)
  60:       949.68    0.000000  (  0.000000   0.000000   0.000000)
  61:       951.77    0.000000  (  0.000000   0.000000   0.000000)
  62:       958.21    0.000000  (  0.000000   0.000000   0.000000)
  63:       963.84    0.000000  (  0.000000   0.000000   0.000000)
  64:       974.33    0.000000  (  0.000000   0.000000   0.000000)
  65:       985.20    0.000000  (  0.000000   0.000000   0.000000)
  66:      1007.48    0.000000  (  0.000000   0.000000   0.000000)
  67:      1037.68    0.000000  (  0.000000   0.000000   0.000000)
  68:      1043.42    0.000000  (  0.000000   0.000000   0.000000)
  69:      1052.01    0.000000  (  0.000000   0.000000   0.000000)
  70:      1056.10    0.000000  (  0.000000   0.000000   0.000000)
  71:      1069.40    0.000000  (  0.000000   0.000000   0.000000)
  72:      1076.72    0.000000  (  0.000000   0.000000   0.000000)
  73:      1093.00    0.000000  (  0.000000   0.000000   0.000000)
  74:      1109.10    0.000000  (  0.000000   0.000000   0.000000)
  75:      1118.03    0.000000  (  0.000000   0.000000   0.000000)
  76:      1137.89    0.000000  (  0.000000   0.000000   0.000000)
  77:      1143.91    0.000000  (  0.000000   0.000000   0.000000)
  78:      1183.34    0.000000  (  0.000000   0.000000   0.000000)
  79:      1187.14    0.000000  (  0.000000   0.000000   0.000000)
  80:      1208.04    0.000000  (  0.000000   0.000000   0.000000)
  81:      1211.44    0.000000  (  0.000000   0.000000   0.000000)
  82:      1215.50    0.000000  (  0.000000   0.000000   0.000000)
  83:      1245.10    0.000000  (  0.000000   0.000000   0.000000)
  84:      1259.49    0.000000  (  0.000000   0.000000   0.000000)
  85:      1266.12    0.000000  (  0.000000   0.000000   0.000000)
  86:      1272.56    0.000000  (  0.000000   0.000000   0.000000)
  87:      1279.03    0.000000  (  0.000000   0.000000   0.000000)
  88:      1280.34    0.000000  (  0.000000   0.000000   0.000000)
  89:      1283.20    0.000000  (  0.000000   0.000000   0.000000)
  90:      1286.50    0.000000  (  0.000000   0.000000   0.000000)
  91:      1314.34    0.000000  (  0.000000   0.000000   0.000000)
  92:      1328.94    0.000000  (  0.000000   0.000000   0.000000)
  93:      1343.18    0.000000  (  0.000000   0.000000   0.000000)
  94:      1353.92    0.000000  (  0.000000   0.000000   0.000000)
  95:      1369.32    0.000000  (  0.000000   0.000000   0.000000)
  96:      1375.43    0.000000  (  0.000000   0.000000   0.000000)
  97:      1407.78    0.000000  (  0.000000   0.000000   0.000000)
  98:      1434.30    0.000000  (  0.000000   0.000000   0.000000)
  99:      1434.73    0.000000  (  0.000000   0.000000   0.000000)
 100:      1439.49    0.000000  (  0.000000   0.000000   0.000000)
 101:      1473.83    0.000000  (  0.000000   0.000000   0.000000)
 102:      1496.59    0.000000  (  0.000000   0.000000   0.000000)
 103:      1506.37    0.000000  (  0.000000   0.000000   0.000000)
 104:      1508.27    0.000000  (  0.000000   0.000000   0.000000)
 105:      1508.90    0.000000  (  0.000000   0.000000   0.000000)
 106:      1510.49    0.000000  (  0.000000   0.000000   0.000000)
 107:      1511.42    0.000000  (  0.000000   0.000000   0.000000)
 108:      1512.28    0.000000  (  0.000000   0.000000   0.000000)
 109:      1515.19    0.000000  (  0.000000   0.000000   0.000000)
 110:      1517.36    0.000000  (  0.000000   0.000000   0.000000)
 111:      1524.08    0.000000  (  0.000000   0.000000   0.000000)
 112:      1532.31    0.000000  (  0.000000   0.000000   0.000000)
 113:      1558.14    0.000000  (  0.000000   0.000000   0.000000)
 114:      1568.88    0.000000  (  0.000000   0.000000   0.000000)
 115:      1583.23    0.000000  (  0.000000   0.000000   0.000000)
 116:      1603.81    0.000000  (  0.000000   0.000000   0.000000)
 117:      2484.04    0.000000  (  0.000000   0.000000   0.000000)
 118:      2788.81    0.000000  (  0.000000   0.000000   0.000000)
 119:      2809.17    0.000000  (  0.000000   0.000000   0.000000)
 120:      2867.28    0.000000  (  0.000000   0.000000   0.000000)
 121:      2871.25    0.000000  (  0.000000   0.000000   0.000000)
 122:      2873.47    0.000000  (  0.000000   0.000000   0.000000)
 123:      2876.10    0.000000  (  0.000000   0.000000   0.000000)
 124:      2886.49    0.000000  (  0.000000   0.000000   0.000000)
 125:      2887.81    0.000000  (  0.000000   0.000000   0.000000)
 126:      2895.14    0.000000  (  0.000000   0.000000   0.000000)
 127:      2897.18    0.000000  (  0.000000   0.000000   0.000000)
 128:      2904.23    0.000000  (  0.000000   0.000000   0.000000)
 129:      2906.01    0.000000  (  0.000000   0.000000   0.000000)
 130:      2911.53    0.000000  (  0.000000   0.000000   0.000000)
 131:      2912.40    0.000000  (  0.000000   0.000000   0.000000)
 132:      2913.71    0.000000  (  0.000000   0.000000   0.000000)
 133:      2918.09    0.000000  (  0.000000   0.000000   0.000000)
 134:      2918.77    0.000000  (  0.000000   0.000000   0.000000)
 135:      2930.12    0.000000  (  0.000000   0.000000   0.000000)
 136:      2930.82    0.000000  (  0.000000   0.000000   0.000000)
 137:      2983.63    0.000000  (  0.000000   0.000000   0.000000)
 138:      2990.80    0.000000  (  0.000000   0.000000   0.000000)
 139:      2996.81    0.000000  (  0.000000   0.000000   0.000000)
 140:      3005.67    0.000000  (  0.000000   0.000000   0.000000)
 141:      3027.38    0.000000  (  0.000000   0.000000   0.000000)
 142:      3034.47    0.000000  (  0.000000   0.000000   0.000000)
 143:      3160.13    0.000000  (  0.000000   0.000000   0.000000)
 144:      3294.33    0.000000  (  0.000000   0.000000   0.000000)
 145:      3427.62    0.000000  (  0.000000   0.000000   0.000000)
 146:      3436.76    0.000000  (  0.000000   0.000000   0.000000)

The first frequency considered to be a vibration is 6
The total number of vibrations considered is 141


--------------------------
THERMOCHEMISTRY AT 298.15K
--------------------------

Temperature         ... 298.15 K
Pressure            ... 1.00 atm
Total Mass          ... 270.42 AMU

Throughout the following assumptions are being made:
  (1) The electronic state is orbitally nondegenerate
  (2) There are no thermally accessible electronically excited states
  (3) Hindered rotations indicated by low frequency modes are not
      treated as such but are treated as vibrations and this may
      cause some error
  (4) All equations used are the standard statistical mechanics
      equations for an ideal gas
  (5) All vibrations are strictly harmonic

freq.      33.90  E(vib)   ...       0.55 
freq.      37.84  E(vib)   ...       0.54 
freq.      43.93  E(vib)   ...       0.53 
freq.      49.12  E(vib)   ...       0.53 
freq.      57.70  E(vib)   ...       0.51 
freq.      79.82  E(vib)   ...       0.49 
freq.      83.42  E(vib)   ...       0.48 
freq.      90.01  E(vib)   ...       0.47 
freq.     100.01  E(vib)   ...       0.46 
freq.     101.74  E(vib)   ...       0.46 
freq.     116.50  E(vib)   ...       0.44 
freq.     150.53  E(vib)   ...       0.40 
freq.     158.28  E(vib)   ...       0.39 
freq.     167.01  E(vib)   ...       0.39 
freq.     173.24  E(vib)   ...       0.38 
freq.     178.13  E(vib)   ...       0.37 
freq.     182.53  E(vib)   ...       0.37 
freq.     190.25  E(vib)   ...       0.36 
freq.     210.23  E(vib)   ...       0.34 
freq.     220.97  E(vib)   ...       0.33 
freq.     253.12  E(vib)   ...       0.30 
freq.     274.82  E(vib)   ...       0.28 
freq.     288.22  E(vib)   ...       0.27 
freq.     303.58  E(vib)   ...       0.26 
freq.     346.83  E(vib)   ...       0.23 
freq.     349.96  E(vib)   ...       0.23 
freq.     386.17  E(vib)   ...       0.20 
freq.     393.84  E(vib)   ...       0.20 
freq.     401.70  E(vib)   ...       0.19 
freq.     403.37  E(vib)   ...       0.19 
freq.     428.48  E(vib)   ...       0.18 
freq.     448.50  E(vib)   ...       0.17 
freq.     475.31  E(vib)   ...       0.15 
freq.     478.47  E(vib)   ...       0.15 
freq.     516.15  E(vib)   ...       0.13 
freq.     524.09  E(vib)   ...       0.13 
freq.     579.62  E(vib)   ...       0.11 
freq.     589.42  E(vib)   ...       0.10 
freq.     625.29  E(vib)   ...       0.09 
freq.     661.14  E(vib)   ...       0.08 
freq.     677.36  E(vib)   ...       0.08 
freq.     743.74  E(vib)   ...       0.06 
freq.     784.23  E(vib)   ...       0.05 
freq.     794.62  E(vib)   ...       0.05 
freq.     795.10  E(vib)   ...       0.05 
freq.     836.88  E(vib)   ...       0.04 
freq.     843.90  E(vib)   ...       0.04 
freq.     862.53  E(vib)   ...       0.04 
freq.     890.07  E(vib)   ...       0.04 
freq.     897.11  E(vib)   ...       0.03 
freq.     923.63  E(vib)   ...       0.03 
freq.     933.96  E(vib)   ...       0.03 
freq.     939.22  E(vib)   ...       0.03 
freq.     943.45  E(vib)   ...       0.03 
freq.     949.68  E(vib)   ...       0.03 
freq.     951.77  E(vib)   ...       0.03 
freq.     958.21  E(vib)   ...       0.03 
freq.     963.84  E(vib)   ...       0.03 
freq.     974.33  E(vib)   ...       0.03 
freq.     985.20  E(vib)   ...       0.02 
freq.    1007.48  E(vib)   ...       0.02 
freq.    1037.68  E(vib)   ...       0.02 
freq.    1043.42  E(vib)   ...       0.02 
freq.    1052.01  E(vib)   ...       0.02 
freq.    1056.10  E(vib)   ...       0.02 
freq.    1069.40  E(vib)   ...       0.02 
freq.    1076.72  E(vib)   ...       0.02 
freq.    1093.00  E(vib)   ...       0.02 
freq.    1109.10  E(vib)   ...       0.02 
freq.    1118.03  E(vib)   ...       0.01 
freq.    1137.89  E(vib)   ...       0.01 
freq.    1143.91  E(vib)   ...       0.01 
freq.    1183.34  E(vib)   ...       0.01 
freq.    1187.14  E(vib)   ...       0.01 
freq.    1208.04  E(vib)   ...       0.01 
freq.    1211.44  E(vib)   ...       0.01 
freq.    1215.50  E(vib)   ...       0.01 
freq.    1245.10  E(vib)   ...       0.01 
freq.    1259.49  E(vib)   ...       0.01 
freq.    1266.12  E(vib)   ...       0.01 
freq.    1272.56  E(vib)   ...       0.01 
freq.    1279.03  E(vib)   ...       0.01 
freq.    1280.34  E(vib)   ...       0.01 
freq.    1283.20  E(vib)   ...       0.01 
freq.    1286.50  E(vib)   ...       0.01 
freq.    1314.34  E(vib)   ...       0.01 
freq.    1328.94  E(vib)   ...       0.01 
freq.    1343.18  E(vib)   ...       0.01 
freq.    1353.92  E(vib)   ...       0.01 
freq.    1369.32  E(vib)   ...       0.01 
freq.    1375.43  E(vib)   ...       0.01 
freq.    1407.78  E(vib)   ...       0.00 
freq.    1434.30  E(vib)   ...       0.00 
freq.    1434.73  E(vib)   ...       0.00 
freq.    1439.49  E(vib)   ...       0.00 
freq.    1473.83  E(vib)   ...       0.00 
freq.    1496.59  E(vib)   ...       0.00 
freq.    1506.37  E(vib)   ...       0.00 
freq.    1508.27  E(vib)   ...       0.00 
freq.    1508.90  E(vib)   ...       0.00 
freq.    1510.49  E(vib)   ...       0.00 
freq.    1511.42  E(vib)   ...       0.00 
freq.    1512.28  E(vib)   ...       0.00 
freq.    1515.19  E(vib)   ...       0.00 
freq.    1517.36  E(vib)   ...       0.00 
freq.    1524.08  E(vib)   ...       0.00 
freq.    1532.31  E(vib)   ...       0.00 
freq.    1558.14  E(vib)   ...       0.00 
freq.    1568.88  E(vib)   ...       0.00 
freq.    1583.23  E(vib)   ...       0.00 
freq.    1603.81  E(vib)   ...       0.00 
freq.    2484.04  E(vib)   ...       0.00 
freq.    2788.81  E(vib)   ...       0.00 
freq.    2809.17  E(vib)   ...       0.00 
freq.    2867.28  E(vib)   ...       0.00 
freq.    2871.25  E(vib)   ...       0.00 
freq.    2873.47  E(vib)   ...       0.00 
freq.    2876.10  E(vib)   ...       0.00 
freq.    2886.49  E(vib)   ...       0.00 
freq.    2887.81  E(vib)   ...       0.00 
freq.    2895.14  E(vib)   ...       0.00 
freq.    2897.18  E(vib)   ...       0.00 
freq.    2904.23  E(vib)   ...       0.00 
freq.    2906.01  E(vib)   ...       0.00 
freq.    2911.53  E(vib)   ...       0.00 
freq.    2912.40  E(vib)   ...       0.00 
freq.    2913.71  E(vib)   ...       0.00 
freq.    2918.09  E(vib)   ...       0.00 
freq.    2918.77  E(vib)   ...       0.00 
freq.    2930.12  E(vib)   ...       0.00 
freq.    2930.82  E(vib)   ...       0.00 
freq.    2983.63  E(vib)   ...       0.00 
freq.    2990.80  E(vib)   ...       0.00 
freq.    2996.81  E(vib)   ...       0.00 
freq.    3005.67  E(vib)   ...       0.00 
freq.    3027.38  E(vib)   ...       0.00 
freq.    3034.47  E(vib)   ...       0.00 
freq.    3160.13  E(vib)   ...       0.00 
freq.    3294.33  E(vib)   ...       0.00 
freq.    3427.62  E(vib)   ...       0.00 
freq.    3436.76  E(vib)   ...       0.00 

------------
INNER ENERGY
------------

The inner energy is: U= E(el) + E(ZPE) + E(vib) + E(rot) + E(trans)
    E(el)   - is the total energy from the electronic structure calculation
              = E(kin-el) + E(nuc-el) + E(el-el) + E(nuc-nuc)
    E(ZPE)  - the the zero temperature vibrational energy from the frequency calculation
    E(vib)  - the the finite temperature correction to E(ZPE) due to population
              of excited vibrational states
    E(rot)  - is the rotational thermal energy
    E(trans)- is the translational thermal energy

Summary of contributions to the inner energy U:
Electronic energy                ...    -61.37859653 Eh
Zero point energy                ...      0.42122687 Eh     264.32 kcal/mol
Thermal vibrational correction   ...      0.02172866 Eh      13.63 kcal/mol
Thermal rotational correction    ...      0.00141627 Eh       0.89 kcal/mol
Thermal translational correction ...      0.00141627 Eh       0.89 kcal/mol
-----------------------------------------------------------------------
Total thermal energy                    -60.93280845 Eh


Summary of corrections to the electronic energy:
(perhaps to be used in another calculation)
Total thermal correction                  0.02456120 Eh      15.41 kcal/mol
Non-thermal (ZPE) correction              0.42122687 Eh     264.32 kcal/mol
-----------------------------------------------------------------------
Total correction                          0.44578808 Eh     279.74 kcal/mol


--------
ENTHALPY
--------

The enthalpy is H = U + kB*T
                kB is Boltzmann's constant
Total free energy                 ...    -60.93280845 Eh 
Thermal Enthalpy correction       ...      0.00094421 Eh       0.59 kcal/mol
-----------------------------------------------------------------------
Total Enthalpy                    ...    -60.93186424 Eh


Note: Only C1 symmetry has been detected, increase convergence thresholds 
      if your molecule has a higher symmetry. Symmetry factor of 1.0 is   
      used for the rotational entropy correction. 
 

Note: Rotational entropy computed according to Herzberg 
Infrared and Raman Spectra, Chapter V,1, Van Nostrand Reinhold, 1945 
Point Group:  C1, Symmetry Number:   1  
Rotational constants in cm-1:     0.013352     0.005609     0.004362 

Vibrational entropy computed according to the QRRHO of S. Grimme
Chem.Eur.J. 2012 18 9955


-------
ENTROPY
-------

The entropy contributions are T*S = T*(S(el)+S(vib)+S(rot)+S(trans))
     S(el)   - electronic entropy
     S(vib)  - vibrational entropy
     S(rot)  - rotational entropy
     S(trans)- translational entropy
The entropies will be listed as mutliplied by the temperature to get
units of energy

Electronic entropy                ...      0.00000000 Eh      0.00 kcal/mol
Vibrational entropy               ...      0.03896589 Eh     24.45 kcal/mol
Rotational entropy                ...      0.01656111 Eh     10.39 kcal/mol
Translational entropy             ...      0.02028014 Eh     12.73 kcal/mol
-----------------------------------------------------------------------
Final entropy term                ...      0.07580715 Eh     47.57 kcal/mol

In case the symmetry of your molecule has not been determined correctly
or in case you have a reason to use a different symmetry number we print 
out the resulting rotational entropy values for sn=1,12 :
 --------------------------------------------------------
|  sn= 1 | S(rot)=       0.01656111 Eh     10.39 kcal/mol|
|  sn= 2 | S(rot)=       0.01590666 Eh      9.98 kcal/mol|
|  sn= 3 | S(rot)=       0.01552383 Eh      9.74 kcal/mol|
|  sn= 4 | S(rot)=       0.01525220 Eh      9.57 kcal/mol|
|  sn= 5 | S(rot)=       0.01504151 Eh      9.44 kcal/mol|
|  sn= 6 | S(rot)=       0.01486937 Eh      9.33 kcal/mol|
|  sn= 7 | S(rot)=       0.01472382 Eh      9.24 kcal/mol|
|  sn= 8 | S(rot)=       0.01459775 Eh      9.16 kcal/mol|
|  sn= 9 | S(rot)=       0.01448654 Eh      9.09 kcal/mol|
|  sn=10 | S(rot)=       0.01438706 Eh      9.03 kcal/mol|
|  sn=11 | S(rot)=       0.01429707 Eh      8.97 kcal/mol|
|  sn=12 | S(rot)=       0.01421491 Eh      8.92 kcal/mol|
 --------------------------------------------------------


-------------------
GIBBS FREE ENERGY
-------------------

The Gibbs free energy is G = H - T*S

Total enthalpy                    ...    -60.93186424 Eh 
Total entropy correction          ...     -0.07580715 Eh    -47.57 kcal/mol
-----------------------------------------------------------------------
Final Gibbs free energy         ...    -61.00767139 Eh

For completeness - the Gibbs free energy minus the electronic energy
G-E(el)                           ...      0.37092514 Eh    232.76 kcal/mol


Total Time for Numerical Frequencies  :       197.828 sec
Time for Reference State(s)           :         0.205 sec
Time for Displacements                :       180.900 sec

Timings for individual modules:

Sum of individual times         ...        0.425 sec (=   0.007 min)
XTB module                      ...        0.425 sec (=   0.007 min) 100.0 %
                             ****ORCA TERMINATED NORMALLY****
TOTAL RUN TIME: 0 days 0 hours 3 minutes 19 seconds 0 msec
(SLURM) EXECUTION TIME: 199.025716104 seconds.
