(SLURM) JOB ID:         253

                                 *****************
                                 * O   R   C   A *
                                 *****************

           --- An Ab Initio, DFT and Semiempirical electronic structure package ---

                  #######################################################
                  #                        -***-                        #
                  #          Department of theory and spectroscopy      #
                  #               Directorship: Frank Neese             #
                  #        Max Planck Institute fuer Kohlenforschung    #
                  #                Kaiser Wilhelm Platz 1               #
                  #                 D-45470 Muelheim/Ruhr               #
                  #                      Germany                        #
                  #                                                     #
                  #                  All rights reserved                #
                  #                        -***-                        #
                  #######################################################


                         Program Version 4.2.1 -  RELEASE  -


 With contributions from (in alphabetic order):
   Daniel Aravena         : Magnetic Suceptibility
   Michael Atanasov       : Ab Initio Ligand Field Theory (pilot matlab implementation)
   Alexander A. Auer      : GIAO ZORA, VPT2
   Ute Becker             : Parallelization
   Giovanni Bistoni       : ED, misc. LED, open-shell LED, HFLD
   Martin Brehm           : Molecular dynamics
   Dmytro Bykov           : SCF Hessian
   Vijay G. Chilkuri      : MRCI spin determinant printing, contributions to CSF-ICE
   Dipayan Datta          : RHF DLPNO-CCSD density
   Achintya Kumar Dutta   : EOM-CC, STEOM-CC
   Dmitry Ganyushin       : Spin-Orbit,Spin-Spin,Magnetic field MRCI
   Miquel Garcia          : C-PCM Hessian, Gaussian charge scheme
   Yang Guo               : DLPNO-NEVPT2, CIM, IAO-localization
   Andreas Hansen         : Spin unrestricted coupled pair/coupled cluster methods
   Benjamin Helmich-Paris : CASSCF linear response (MC-RPA)
   Lee Huntington         : MR-EOM, pCC
   Robert Izsak           : Overlap fitted RIJCOSX, COSX-SCS-MP3, EOM
   Christian Kollmar      : KDIIS, OOCD, Brueckner-CCSD(T), CCSD density
   Simone Kossmann        : Meta GGA functionals, TD-DFT gradient, OOMP2, MP2 Hessian
   Martin Krupicka        : AUTO-CI
   Lucas Lang             : DCDCAS
   Dagmar Lenk            : GEPOL surface, SMD
   Dimitrios Liakos       : Extrapolation schemes; Compound Job, initial MDCI parallelization
   Dimitrios Manganas     : Further ROCIS development; embedding schemes
   Dimitrios Pantazis     : SARC Basis sets
   Taras Petrenko         : DFT Hessian,TD-DFT gradient, ASA, ECA, R-Raman, ABS, FL, XAS/XES, NRVS
   Peter Pinski           : DLPNO-MP2, DLPNO-MP2 Gradient
   Christoph Reimann      : Effective Core Potentials
   Marius Retegan         : Local ZFS, SOC
   Christoph Riplinger    : Optimizer, TS searches, QM/MM, DLPNO-CCSD(T), (RO)-DLPNO pert. Triples
   Tobias Risthaus        : Range-separated hybrids, TD-DFT gradient, RPA, STAB
   Michael Roemelt        : Original ROCIS implementation
   Masaaki Saitow         : Open-shell DLPNO-CCSD energy and density
   Barbara Sandhoefer     : DKH picture change effects
   Avijit Sen             : IP-ROCIS
   Kantharuban Sivalingam : CASSCF convergence, NEVPT2, FIC-MRCI
   Bernardo de Souza      : ESD, SOC TD-DFT
   Georgi Stoychev        : AutoAux, RI-MP2 NMR
   Willem Van den Heuvel  : Paramagnetic NMR
   Boris Wezisla          : Elementary symmetry handling
   Frank Wennmohs         : Technical directorship


 We gratefully acknowledge several colleagues who have allowed us to
 interface, adapt or use parts of their codes:
   Stefan Grimme, W. Hujo, H. Kruse,             : VdW corrections, initial TS optimization,
                  C. Bannwarth                     DFT functionals, gCP, sTDA/sTD-DF
   Ed Valeev, F. Pavosevic, A. Kumar             : LibInt (2-el integral package), F12 methods
   Garnet Chan, S. Sharma, J. Yang, R. Olivares  : DMRG
   Ulf Ekstrom                                   : XCFun DFT Library
   Mihaly Kallay                                 : mrcc  (arbitrary order and MRCC methods)
   Andreas Klamt, Michael Diedenhofen            : otool_cosmo (COSMO solvation model)
   Jiri Pittner, Ondrej Demel                    : Mk-CCSD
   Frank Weinhold                                : gennbo (NPA and NBO analysis)
   Christopher J. Cramer and Donald G. Truhlar   : smd solvation model
   Lars Goerigk                                  : TD-DFT with DH, B97 family of functionals
   V. Asgeirsson, H. Jonsson                     : NEB implementation
   FAccTs GmbH                                   : IRC, NEB, NEB-TS, Multilevel, MM, QM/MM, CI optimization
   S Lehtola, MJT Oliveira, MAL Marques          : LibXC Library


 Your calculation uses the libint2 library for the computation of 2-el integrals
 For citations please refer to: http://libint.valeyev.net

 Your ORCA version has been built with support for libXC version: 4.2.3
 For citations please refer to: https://tddft.org/programs/libxc/

 This ORCA versions uses:
   CBLAS   interface :  Fast vector & matrix operations
   LAPACKE interface :  Fast linear algebra routines
   SCALAPACK package :  Parallel linear algebra routines




***************************************
The coordinates will be read from file: init.xyz
***************************************


Your calculation utilizes the SMD solvation module
Please cite in your paper:
A.V. Marenich, C.J. Cramer, D.G. Truhlar J. Phys. Chem. B, 113, (2009), 6378 

Your calculation utilizes the semiempirical GFN2-xTB method
Please cite in your paper:
C. Bannwarth, Ehlert S., S. Grimme,  J. Chem. Theory Comput., 15, (2019), 1652.
   

----- Orbital basis set information -----
Your calculation utilizes the basis: def2-SVP
   F. Weigend and R. Ahlrichs, Phys. Chem. Chem. Phys. 7, 3297 (2005).

================================================================================
                                        WARNINGS
                       Please study these warnings very carefully!
================================================================================

WARNING: Gradients needed for Numerical Frequencies
  ===> : Setting RunTyp to EnGrad

WARNING: The environment variable RSH_COMMAND is not set!
  ===> : All Displacements for the Numerical Hessian calculation
         will be started on localhost

WARNING: Found dipole moment calculation with XTB calculation
  ===> : Switching off dipole moment calculation


INFO   : the flag for use of LIBINT has been found!

================================================================================
                                       INPUT FILE
================================================================================
NAME = /tmp/slurm-scratch/freq.253/freq.inp
|  1> ! XTB2 NumFreq
|  2> %maxcore 1450
|  3> 
|  4> * xyzfile 0 1 init.xyz
|  5> 
|  6> %cpcm
|  7>  smd true
|  8>  smdsolvent "ch2cl2"
|  9> end
| 10> %pal nprocs 8 end
| 11> 
| 12>                          ****END OF INPUT****
================================================================================

                     *******************************
                     * Energy+Gradient Calculation *
                     *******************************

      -----------------------------------------------------------      
     |                   =====================                   |     
     |                           x T B                           |     
     |                   =====================                   |     
     |                         S. Grimme                         |     
     |          Mulliken Center for Theoretical Chemistry        |     
     |                    University of Bonn                     |     
      -----------------------------------------------------------      

   * xtb version 6.3.0 (preview) compiled by 'ehlert@majestix' on 2020-01-15

   This program is distributed in the hope that it will be useful,
   but WITHOUT ANY WARRANTY; without even the implied warranty of
   MERCHANTABILITY or FITNESS FOR A PARTICULAR PURPOSE.
   
   FOR NON-COMMERCIAL, ACADEMIA USE ONLY.
   
   Cite this work as:
   * S. Grimme, C. Bannwarth, P. Shushkov, J. Chem. Theory Comput., 2017,
     13, 1989-2009. DOI: 10.1021/acs.jctc.7b00118
   * C. Bannwarth, S. Ehlert and S. Grimme., J. Chem. Theory Comput., 2019,
     15, 1652-1671. DOI: 10.1021/acs.jctc.8b01176
   * P. Pracht, E. Caldeweyher, S. Ehlert, S. Grimme, ChemRxiv, 2019, preprint.
     DOI: 10.26434/chemrxiv.8326202.v1
   * S. Grimme, S. Spicher unpublished
   
   for DFT-D4:
   * E. Caldeweyher, C. Bannwarth and S. Grimme, J. Chem. Phys., 2017,
     147, 034112. DOI: 10.1063/1.4993215
   * E. Caldeweyher, S. Ehlert, A. Hansen, H. Neugebauer, S. Spicher,
     C. Bannwarth and S. Grimme, J. Chem. Phys., 2019, 150, 154122.
     DOI: 10.1063/1.5090222
   
   for sTDA-xTB:
   * S. Grimme and C. Bannwarth, J. Chem. Phys., 2016, 145, 054103.
     DOI: 10.1063/1.4959605
   
   in the mass-spec context:
   * V. Asgeirsson, C. Bauer and S. Grimme, Chem. Sci., 2017, 8, 4879.
     DOI: 10.1039/c7sc00601b
   
   for metadynamics refer to:
   * S. Grimme, J. Chem. Theory Comput., 2019, 155, 2847-2862
     DOI: 10.1021/acs.jctc.9b00143
   
   with help from (in alphabetical order)
   C. Bannwarth, F. Bohle, G. Brandenburg, E. Caldeweyher, M. Checinski,
   S. Dohm, S. Ehlert, S. Ehrlich, F. März, H. Neugebauer, J. Pisarek,
   P. Pracht, P. Shushkov, and S. Spicher.
   
 * started run on 2020/10/13 at 15:13:45.345     

           -------------------------------------------------
          |                Calculation Setup                |
           -------------------------------------------------

          program call               : /opt/orca/otool_xtb /tmp/slurm-scratch/freq.253/freq_XTB.xyz --grad -c 0 -u 0 -P 8 --namespace /tmp/slurm-scratch/freq.253/freq --gbsa CH2Cl2
          hostname                   : headnode-pbs
          calculation namespace      : /tmp/slurm-scratch/freq.253/freq
          coordinate file            : /tmp/slurm-scratch/freq.253/freq_XTB.xyz
          omp threads                :                     8
          number of atoms            :                    33
          number of electrons        :                    80
          charge                     :                     0
          spin                       :                   0.0
          first test random number   :      0.64296677506164


molecular fragmentation (1/2 indicates fragments):
111111111121111221122111111111111
# atoms in fragment 1/2:    28     5
 fragment masses (1/2) :      162.25       35.02
CMA distance (Bohr)    :   5.007
constraining FC (au)   :  0.0500

########################################################################
# WARNING! Please study the warnings concerning your input carefully
#  - Process number higher than OMP_NUM_THREADS, I hope you know what you are doing.
########################################################################

           ------------------------------------------------- 
          |                 G F N 2 - x T B                 |
          | Geometry, Frequencies, Noncovalent interactions |
          |            JCTC 2019 parametrisation            |
           ------------------------------------------------- 
             k(s)              :                1.8500
             k(p)              :                2.2300
             k(d)              :                2.2300
             k(f)              :                2.0000
             kEN (H0ij)        :               -2.0000
             D4 a1             :                0.5200
             D4 a2             :                5.0000
             D4 s6             :                1.0000
             D4 s8             :                2.7000
             D4 s9             :                5.0000
             alphaj            :                2.0000

  Z AO/shell   Hii/eV     exponent
  1     Wed Apr 25 08:07:45 CEST 2018   EN: 2.200 GM2: 0.406  GM3: 0.0800  RAES: 1.40
     1s    -10.707211    1.230000
  6     Wed Apr 25 08:07:45 CEST 2018   EN: 2.550 GM2: 0.538  GM3: 0.1500  RAES: 3.00
     2s    -13.970922    2.096432
     2p    -10.063292    1.800000
  7     Wed Apr 25 08:07:45 CEST 2018   EN: 3.040 GM2: 0.461  GM3:-0.0640  RAES: 1.90
     2s    -16.686243    2.339881
     2p    -12.523956    2.014332
  8     Wed Apr 25 08:07:45 CEST 2018   EN: 3.440 GM2: 0.452  GM3:-0.0517  RAES: 1.80
     2s    -20.229985    2.439742
     2p    -15.503117    2.137023

 Solvent             : CH2Cl2
 Using internal parameter file: .param_gbsa2_CH2Cl2
 Gsolv ref. state (COSMO-RS): gsolv [1 M gas/solution]
 temperature (mdtemp)       :    298.150000000000     
 dielectric constant        :    8.93000000000000     
 rho                        :    1.33000000000000     
 mass                       :    84.9300000000000     
 surface tension            :    15.5689454083859     
 probe radius               :   0.719875900000000     
 Gshift (Eh)                :   4.440829173451759E-003
 c1                         :    1.49173776000000     
 soset                      :   0.000000000000000E+000
 HB correction              :  F
           ------------------------------------------------- 
          |        Self-Consistent Charge Iterations        |
           ------------------------------------------------- 

          ...................................................
          :                      SETUP                      :
          :.................................................:
          :  # basis functions                  75          :
          :  # atomic orbitals                  75          :
          :  # shells                           47          :
          :  # electrons                        80          :
          :  max. iterations                   250          :
          :  Hamiltonian                  GFN2-xTB          :
          :  GBSA solvation                   true          :
          :  PC potential                    false          :
          :  electronic temp.          300.0000000     K    :
          :  accuracy                    1.0000000          :
          :  -> integral cutoff          0.2500000E+02      :
          :  -> integral neglect         0.1000000E-07      :
          :  -> SCF convergence          0.1000000E-05 Eh   :
          :  -> wf. convergence          0.1000000E-03 e    :
          :  Broyden damping             0.4000000          :
          ...................................................
  Checking positiv definite overlap ...  done.
 

 iter      E             dE          RMSdq      gap      omega  full diag
   1    -44.7411050 -0.447411E+02  0.412E+00    3.34       0.0  T
   2    -44.8312343 -0.901293E-01  0.239E+00    2.66       1.0  T
   3    -44.8313893 -0.154999E-03  0.937E-01    1.67       1.0  T
   4    -44.8353340 -0.394468E-02  0.466E-01    2.05       1.0  T
   5    -44.8391883 -0.385429E-02  0.848E-02    1.97       1.0  T
   6    -44.8392292 -0.409312E-04  0.380E-02    1.97       1.0  T
   7    -44.8392320 -0.280392E-05  0.174E-02    1.99       1.0  T
   8    -44.8392346 -0.257639E-05  0.638E-03    1.98       2.7  T
   9    -44.8392350 -0.462063E-06  0.228E-03    1.98       7.6  T
  10    -44.8392351 -0.253024E-07  0.121E-03    1.98      14.3  T
  11    -44.8392351 -0.793560E-08  0.497E-04    1.98      35.0  T
  12    -44.8392351 -0.324820E-08  0.117E-04    1.98     148.7  T

   *** convergence criteria satisfied after 12 iterations ***

         #    Occupation            Energy/Eh            Energy/eV
      -------------------------------------------------------------
         1        2.0000           -0.6874395             -18.7062
       ...           ...                  ...                  ...
        34        2.0000           -0.4384609             -11.9311
        35        2.0000           -0.4258863             -11.5890
        36        2.0000           -0.4235281             -11.5248
        37        2.0000           -0.4205198             -11.4429
        38        2.0000           -0.3961083             -10.7787
        39        2.0000           -0.3914749             -10.6526
        40        2.0000           -0.3762697             -10.2388 (HOMO)
        41                         -0.3034341              -8.2569 (LUMO)
        42                         -0.2422928              -6.5931
        43                         -0.2135427              -5.8108
        44                         -0.1049663              -2.8563
        45                         -0.0166241              -0.4524
       ...                                ...                  ...
        75                          0.6391129              17.3911
      -------------------------------------------------------------
                  HL-Gap            0.0728355 Eh            1.9820 eV
             Fermi-level           -0.3398519 Eh           -9.2478 eV

 SCC (total)                   0 d,  0 h,  0 min,  0.177 sec
 SCC setup                      ...        0 min,  0.005 sec (  2.925%)
 Dispersion                     ...        0 min,  0.001 sec (  0.812%)
 integral evaluation            ...        0 min,  0.033 sec ( 18.846%)
 zeroth order Hamiltonian       ...        0 min,  0.000 sec (  0.008%)
 iterations                     ...        0 min,  0.093 sec ( 52.814%)
 molecular gradient             ...        0 min,  0.042 sec ( 23.998%)
 printout                       ...        0 min,  0.001 sec (  0.574%)

         :::::::::::::::::::::::::::::::::::::::::::::::::::::
         ::                     SUMMARY                     ::
         :::::::::::::::::::::::::::::::::::::::::::::::::::::
         :: total energy             -44.243047556818 Eh    ::
         :: total w/o Gsasa/hb       -44.226031575408 Eh    ::
         :: gradient norm              0.028034039585 Eh/a0 ::
         :: HOMO-LUMO gap              1.981956009397 eV    ::
         ::.................................................::
         :: SCC energy               -44.856251052852 Eh    ::
         :: -> isotropic ES            0.146939099680 Eh    ::
         :: -> anisotropic ES         -0.017076836282 Eh    ::
         :: -> anisotropic XC          0.023827395861 Eh    ::
         :: -> dispersion             -0.026281975441 Eh    ::
         :: -> Gsolv                  -0.039875026386 Eh    ::
         ::    -> Gborn               -0.022859044976 Eh    ::
         ::    -> Gsasa               -0.021456810583 Eh    ::
         ::    -> Ghb                  0.000000000000 Eh    ::
         ::    -> Gshift               0.004440829173 Eh    ::
         :: repulsion energy           0.613177273203 Eh    ::
         :: add. restraining           0.000000000000 Eh    ::
         :::::::::::::::::::::::::::::::::::::::::::::::::::::

           -------------------------------------------------
          |                Property Printout                |
           -------------------------------------------------

    * Orbital Energies and Occupations

         #    Occupation            Energy/Eh            Energy/eV
      -------------------------------------------------------------
         1        2.0000           -0.6874395             -18.7062
       ...           ...                  ...                  ...
        28        2.0000           -0.4719988             -12.8437
        29        2.0000           -0.4674481             -12.7199
        30        2.0000           -0.4520611             -12.3012
        31        2.0000           -0.4504510             -12.2574
        32        2.0000           -0.4439887             -12.0815
        33        2.0000           -0.4391169             -11.9490
        34        2.0000           -0.4384609             -11.9311
        35        2.0000           -0.4258863             -11.5890
        36        2.0000           -0.4235281             -11.5248
        37        2.0000           -0.4205198             -11.4429
        38        2.0000           -0.3961083             -10.7787
        39        2.0000           -0.3914749             -10.6526
        40        2.0000           -0.3762697             -10.2388 (HOMO)
        41                         -0.3034341              -8.2569 (LUMO)
        42                         -0.2422928              -6.5931
        43                         -0.2135427              -5.8108
        44                         -0.1049663              -2.8563
        45                         -0.0166241              -0.4524
        46                          0.0479411               1.3045
        47                          0.0846327               2.3030
        48                          0.0937137               2.5501
        49                          0.1075010               2.9253
        50                          0.1104248               3.0048
        51                          0.1223624               3.3296
       ...                                ...                  ...
        75                          0.6391129              17.3911
      -------------------------------------------------------------
                  HL-Gap            0.0728355 Eh            1.9820 eV
             Fermi-level           -0.3398519 Eh           -9.2478 eV

     #   Z        covCN         q      C6AA      α(0)
     1   6 C      2.913    -0.024    28.605     8.770
     2   6 C      2.923    -0.023    28.568     8.765
     3   6 C      2.971     0.017    27.618     8.620
     4   6 C      2.918    -0.025    28.623     8.773
     5   6 C      2.914    -0.024    28.605     8.770
     6   6 C      2.916    -0.018    28.464     8.749
     7   1 H      0.925     0.055     2.257     2.349
     8   1 H      0.926     0.055     2.257     2.349
     9   1 H      0.925     0.056     2.247     2.344
    10   7 N      2.680    -0.072    22.633     7.066
    11   1 H      1.043     0.319     0.651     1.260
    12   6 C      3.747    -0.013    20.868     6.516
    13   1 H      0.924     0.076     2.020     2.223
    14   1 H      0.925     0.068     2.110     2.271
    15   1 H      0.857     0.263     0.836     1.432
    16   8 O      1.389    -0.766    29.877     7.360
    17   1 H      0.805     0.221     1.016     1.583
    18   6 C      2.842     0.094    25.912     8.342
    19   1 H      0.925     0.091     1.872     2.139
    20   8 O      1.265    -0.757    29.894     7.348
    21   1 H      0.805     0.224     1.003     1.573
    22   6 C      3.803    -0.067    21.790     6.646
    23   1 H      0.924     0.051     2.308     2.376
    24   1 H      0.924     0.056     2.251     2.346
    25   1 H      0.925     0.055     2.258     2.350
    26   1 H      0.925     0.054     2.268     2.355
    27   6 C      3.800    -0.055    21.562     6.611
    28   1 H      0.924     0.037     2.494     2.469
    29   1 H      0.924     0.040     2.448     2.447
    30   6 C      3.750    -0.105    22.573     6.776
    31   1 H      0.924     0.039     2.458     2.452
    32   1 H      0.924     0.040     2.448     2.447
    33   1 H      0.924     0.038     2.479     2.462

 Mol. C6AA /au·bohr⁶  :       9510.680840
 Mol. C8AA /au·bohr⁸  :     213102.883565
 Mol. α(0) /au        :        150.342300


Wiberg/Mayer (AO) data.
largest (>0.10) Wiberg bond orders for each atom
          total WBO             WBO to atom ...
     1  C   3.990        C    2 1.463    C    6 1.427    H   25 0.969    C    4 0.103
     2  C   3.986        C    1 1.463    C    3 1.357    H    7 0.967    C    5 0.103
     3  C   3.986        C    2 1.357    C    4 1.356    C   18 1.113
     4  C   3.990        C    5 1.464    C    3 1.356    H    8 0.963    C    1 0.103
     5  C   3.991        C    4 1.464    C    6 1.425    H   26 0.969    C    2 0.103
     6  C   3.986        C    1 1.427    C    5 1.425    H    9 0.970
     7  H   0.997        C    2 0.967
     8  H   0.997        C    4 0.963
     9  H   0.996        C    6 0.970
    10  N   3.596        C   18 1.574    C   12 0.984    H   15 0.800
    11  H   0.898        O   16 0.487    O   20 0.409
    12  C   3.954        C   22 0.996    N   10 0.984    H   14 0.969    H   13 0.952
    13  H   0.991        C   12 0.952
    14  H   0.995        C   12 0.969
    15  H   0.931        N   10 0.800
    16  O   1.722        H   21 0.944    H   11 0.487    O   20 0.118
    17  H   0.951        O   20 0.946
    18  C   3.933        N   10 1.574    C    3 1.113    H   19 0.948    O   20 0.156
    19  H   0.991        C   18 0.948
    20  O   1.761        H   17 0.946    H   11 0.409    C   18 0.156    O   16 0.118
    21  H   0.950        O   16 0.944
    22  C   3.989        C   27 1.005    C   12 0.996    H   24 0.975    H   23 0.975
    23  H   0.997        C   22 0.975
    24  H   0.997        C   22 0.975
    25  H   0.997        C    1 0.969
    26  H   0.997        C    5 0.969
    27  C   3.995        C   30 1.020    C   22 1.005    H   28 0.977    H   29 0.977
    28  H   0.999        C   27 0.977
    29  H   0.998        C   27 0.977
    30  C   3.995        C   27 1.020    H   33 0.987    H   32 0.987    H   31 0.987
    31  H   0.998        C   30 0.987
    32  H   0.998        C   30 0.987
    33  H   0.999        C   30 0.987

molecular dipole:
                 x           y           z       tot (Debye)
 q only:        0.724       2.755      -1.045
   full:        1.108       2.424      -0.897       7.147
molecular quadrupole (traceless):
                xx          xy          yy          xz          yz          zz
 q only:       16.439     -12.447     -10.302       3.472       3.970      -6.137
  q+dip:       13.688     -12.487     -10.558       2.824       7.597      -3.130
   full:       13.024     -12.862      -8.830       3.035       5.651      -4.194

           -------------------------------------------------
          |                Property Printout                |
           -------------------------------------------------

    * Orbital Energies and Occupations

         #    Occupation            Energy/Eh            Energy/eV
      -------------------------------------------------------------
         1        2.0000           -0.6874395             -18.7062
       ...           ...                  ...                  ...
        28        2.0000           -0.4719988             -12.8437
        29        2.0000           -0.4674481             -12.7199
        30        2.0000           -0.4520611             -12.3012
        31        2.0000           -0.4504510             -12.2574
        32        2.0000           -0.4439887             -12.0815
        33        2.0000           -0.4391169             -11.9490
        34        2.0000           -0.4384609             -11.9311
        35        2.0000           -0.4258863             -11.5890
        36        2.0000           -0.4235281             -11.5248
        37        2.0000           -0.4205198             -11.4429
        38        2.0000           -0.3961083             -10.7787
        39        2.0000           -0.3914749             -10.6526
        40        2.0000           -0.3762697             -10.2388 (HOMO)
        41                         -0.3034341              -8.2569 (LUMO)
        42                         -0.2422928              -6.5931
        43                         -0.2135427              -5.8108
        44                         -0.1049663              -2.8563
        45                         -0.0166241              -0.4524
        46                          0.0479411               1.3045
        47                          0.0846327               2.3030
        48                          0.0937137               2.5501
        49                          0.1075010               2.9253
        50                          0.1104248               3.0048
        51                          0.1223624               3.3296
       ...                                ...                  ...
        75                          0.6391129              17.3911
      -------------------------------------------------------------
                  HL-Gap            0.0728355 Eh            1.9820 eV
             Fermi-level           -0.3398519 Eh           -9.2478 eV

     #   Z        covCN         q      C6AA      α(0)
     1   6 C      2.913    -0.024    28.605     8.770
     2   6 C      2.923    -0.023    28.568     8.765
     3   6 C      2.971     0.017    27.618     8.620
     4   6 C      2.918    -0.025    28.623     8.773
     5   6 C      2.914    -0.024    28.605     8.770
     6   6 C      2.916    -0.018    28.464     8.749
     7   1 H      0.925     0.055     2.257     2.349
     8   1 H      0.926     0.055     2.257     2.349
     9   1 H      0.925     0.056     2.247     2.344
    10   7 N      2.680    -0.072    22.633     7.066
    11   1 H      1.043     0.319     0.651     1.260
    12   6 C      3.747    -0.013    20.868     6.516
    13   1 H      0.924     0.076     2.020     2.223
    14   1 H      0.925     0.068     2.110     2.271
    15   1 H      0.857     0.263     0.836     1.432
    16   8 O      1.389    -0.766    29.877     7.360
    17   1 H      0.805     0.221     1.016     1.583
    18   6 C      2.842     0.094    25.912     8.342
    19   1 H      0.925     0.091     1.872     2.139
    20   8 O      1.265    -0.757    29.894     7.348
    21   1 H      0.805     0.224     1.003     1.573
    22   6 C      3.803    -0.067    21.790     6.646
    23   1 H      0.924     0.051     2.308     2.376
    24   1 H      0.924     0.056     2.251     2.346
    25   1 H      0.925     0.055     2.258     2.350
    26   1 H      0.925     0.054     2.268     2.355
    27   6 C      3.800    -0.055    21.562     6.611
    28   1 H      0.924     0.037     2.494     2.469
    29   1 H      0.924     0.040     2.448     2.447
    30   6 C      3.750    -0.105    22.573     6.776
    31   1 H      0.924     0.039     2.458     2.452
    32   1 H      0.924     0.040     2.448     2.447
    33   1 H      0.924     0.038     2.479     2.462

 Mol. C6AA /au·bohr⁶  :       9510.680840
 Mol. C8AA /au·bohr⁸  :     213102.883565
 Mol. α(0) /au        :        150.342300


Wiberg/Mayer (AO) data.
largest (>0.10) Wiberg bond orders for each atom
          total WBO             WBO to atom ...
     1  C   3.990        C    2 1.463    C    6 1.427    H   25 0.969    C    4 0.103
     2  C   3.986        C    1 1.463    C    3 1.357    H    7 0.967    C    5 0.103
     3  C   3.986        C    2 1.357    C    4 1.356    C   18 1.113
     4  C   3.990        C    5 1.464    C    3 1.356    H    8 0.963    C    1 0.103
     5  C   3.991        C    4 1.464    C    6 1.425    H   26 0.969    C    2 0.103
     6  C   3.986        C    1 1.427    C    5 1.425    H    9 0.970
     7  H   0.997        C    2 0.967
     8  H   0.997        C    4 0.963
     9  H   0.996        C    6 0.970
    10  N   3.596        C   18 1.574    C   12 0.984    H   15 0.800
    11  H   0.898        O   16 0.487    O   20 0.409
    12  C   3.954        C   22 0.996    N   10 0.984    H   14 0.969    H   13 0.952
    13  H   0.991        C   12 0.952
    14  H   0.995        C   12 0.969
    15  H   0.931        N   10 0.800
    16  O   1.722        H   21 0.944    H   11 0.487    O   20 0.118
    17  H   0.951        O   20 0.946
    18  C   3.933        N   10 1.574    C    3 1.113    H   19 0.948    O   20 0.156
    19  H   0.991        C   18 0.948
    20  O   1.761        H   17 0.946    H   11 0.409    C   18 0.156    O   16 0.118
    21  H   0.950        O   16 0.944
    22  C   3.989        C   27 1.005    C   12 0.996    H   24 0.975    H   23 0.975
    23  H   0.997        C   22 0.975
    24  H   0.997        C   22 0.975
    25  H   0.997        C    1 0.969
    26  H   0.997        C    5 0.969
    27  C   3.995        C   30 1.020    C   22 1.005    H   28 0.977    H   29 0.977
    28  H   0.999        C   27 0.977
    29  H   0.998        C   27 0.977
    30  C   3.995        C   27 1.020    H   33 0.987    H   32 0.987    H   31 0.987
    31  H   0.998        C   30 0.987
    32  H   0.998        C   30 0.987
    33  H   0.999        C   30 0.987

molecular dipole:
                 x           y           z       tot (Debye)
 q only:        0.724       2.755      -1.045
   full:        1.108       2.424      -0.897       7.147
molecular quadrupole (traceless):
                xx          xy          yy          xz          yz          zz
 q only:       16.439     -12.447     -10.302       3.472       3.970      -6.137
  q+dip:       13.688     -12.487     -10.558       2.824       7.597      -3.130
   full:       13.024     -12.862      -8.830       3.035       5.651      -4.194


           -------------------------------------------------
          | TOTAL ENERGY              -44.243047556818 Eh   |
          | GRADIENT NORM               0.028034039585 Eh/α |
          | HOMO-LUMO GAP               1.981956009397 eV   |
           -------------------------------------------------

------------------------------------------------------------------------
 * finished run on 2020/10/13 at 15:13:45.722     
------------------------------------------------------------------------
 total:
 * wall-time:     0 d,  0 h,  0 min,  0.377 sec
 *  cpu-time:     0 d,  0 h,  0 min,  0.937 sec
 * ratio c/w:     2.487 speedup
 SCF:
 * wall-time:     0 d,  0 h,  0 min,  0.179 sec
 *  cpu-time:     0 d,  0 h,  0 min,  0.476 sec
 * ratio c/w:     2.658 speedup


-------------------------   --------------------
FINAL SINGLE POINT ENERGY       -44.243047556820
-------------------------   --------------------


----------------------------------------------------------------------------
                           ORCA NUMERICAL FREQUENCIES
                              (8-process run)
----------------------------------------------------------------------------

Number of atoms                ... 33
Central differences            ... used
Number of displacements        ... 198
Numerical increment            ... 5.000e-03 bohr
IR-spectrum generation         ... on
Raman-spectrum generation      ... off
Surface Crossing Hessian       ... off
List of participating nodes    ...  /tmp/slurm-scratch/freq.253/freq.hostnames

The output will be reduced. Please look at the following files:
SCF program output             ... >/tmp/slurm-scratch/freq.253/freq.lastscf
Integral program output        ... >/tmp/slurm-scratch/freq.253/freq.lastint
Gradient program output        ... >/tmp/slurm-scratch/freq.253/freq.lastgrad
Dipole moment program output   ... >/tmp/slurm-scratch/freq.253/freq.lastmom
AutoCI program output          ... >/tmp/slurm-scratch/freq.253/freq.lastautoci


         <<< Energy and Gradient at the input geometry >>>

        <<< Energy and Gradient at displaced geometries >>>
             <<<Displacing   3/coordinate 2 (+)>>>
             <<<Displacing   3/coordinate 2 (-)>>>
             <<<Displacing   2/coordinate 3 (+)>>>
             <<<Displacing   2/coordinate 3 (-)>>>
             <<<Displacing   1/coordinate 1 (+)>>>
             <<<Displacing   2/coordinate 2 (+)>>>
             <<<Displacing   1/coordinate 2 (+)>>>
             <<<Displacing   1/coordinate 1 (-)>>>
             <<<Displacing   3/coordinate 1 (+)>>>
             <<<Displacing   2/coordinate 2 (-)>>>
             <<<Displacing   1/coordinate 2 (-)>>>
             <<<Displacing   1/coordinate 3 (+)>>>
             <<<Displacing   3/coordinate 1 (-)>>>
             <<<Displacing   1/coordinate 3 (-)>>>
             <<<Displacing   2/coordinate 1 (+)>>>
             <<<Displacing   2/coordinate 1 (-)>>>
             <<<Displacing   3/coordinate 3 (+)>>>
             <<<Displacing   3/coordinate 3 (-)>>>
             <<<Displacing   4/coordinate 1 (+)>>>
             <<<Displacing   4/coordinate 1 (-)>>>
             <<<Displacing   4/coordinate 2 (+)>>>
             <<<Displacing   5/coordinate 1 (+)>>>
             <<<Displacing   4/coordinate 3 (+)>>>
             <<<Displacing   4/coordinate 2 (-)>>>
             <<<Displacing   5/coordinate 1 (-)>>>
             <<<Displacing   4/coordinate 3 (-)>>>
             <<<Displacing   5/coordinate 2 (+)>>>
             <<<Displacing   5/coordinate 3 (+)>>>
             <<<Displacing   5/coordinate 2 (-)>>>
             <<<Displacing   5/coordinate 3 (-)>>>
             <<<Displacing   6/coordinate 1 (+)>>>
             <<<Displacing   6/coordinate 1 (-)>>>
             <<<Displacing   6/coordinate 2 (+)>>>
             <<<Displacing   6/coordinate 2 (-)>>>
             <<<Displacing   7/coordinate 1 (+)>>>
             <<<Displacing   6/coordinate 3 (+)>>>
             <<<Displacing   7/coordinate 1 (-)>>>
             <<<Displacing   6/coordinate 3 (-)>>>
             <<<Displacing   7/coordinate 2 (+)>>>
             <<<Displacing   7/coordinate 3 (+)>>>
             <<<Displacing   7/coordinate 2 (-)>>>
             <<<Displacing   7/coordinate 3 (-)>>>
             <<<Displacing   8/coordinate 1 (+)>>>
             <<<Displacing   8/coordinate 1 (-)>>>
             <<<Displacing   8/coordinate 2 (+)>>>
             <<<Displacing   8/coordinate 2 (-)>>>
             <<<Displacing   8/coordinate 3 (+)>>>
             <<<Displacing   8/coordinate 3 (-)>>>
             <<<Displacing   9/coordinate 1 (+)>>>
             <<<Displacing   9/coordinate 1 (-)>>>
             <<<Displacing  10/coordinate 1 (+)>>>
             <<<Displacing  10/coordinate 1 (-)>>>
             <<<Displacing   9/coordinate 3 (+)>>>
             <<<Displacing   9/coordinate 3 (-)>>>
             <<<Displacing   9/coordinate 2 (+)>>>
             <<<Displacing   9/coordinate 2 (-)>>>
             <<<Displacing  10/coordinate 2 (+)>>>
             <<<Displacing  10/coordinate 2 (-)>>>
             <<<Displacing  11/coordinate 1 (+)>>>
             <<<Displacing  11/coordinate 1 (-)>>>
             <<<Displacing  10/coordinate 3 (+)>>>
             <<<Displacing  10/coordinate 3 (-)>>>
             <<<Displacing  11/coordinate 2 (+)>>>
             <<<Displacing  11/coordinate 2 (-)>>>
             <<<Displacing  11/coordinate 3 (+)>>>
             <<<Displacing  11/coordinate 3 (-)>>>
             <<<Displacing  12/coordinate 1 (+)>>>
             <<<Displacing  12/coordinate 2 (+)>>>
             <<<Displacing  12/coordinate 1 (-)>>>
             <<<Displacing  12/coordinate 2 (-)>>>
             <<<Displacing  12/coordinate 3 (+)>>>
             <<<Displacing  12/coordinate 3 (-)>>>
             <<<Displacing  13/coordinate 1 (+)>>>
             <<<Displacing  13/coordinate 2 (+)>>>
             <<<Displacing  13/coordinate 1 (-)>>>
             <<<Displacing  13/coordinate 2 (-)>>>
             <<<Displacing  14/coordinate 2 (+)>>>
             <<<Displacing  14/coordinate 2 (-)>>>
             <<<Displacing  13/coordinate 3 (+)>>>
             <<<Displacing  13/coordinate 3 (-)>>>
             <<<Displacing  14/coordinate 1 (+)>>>
             <<<Displacing  14/coordinate 1 (-)>>>
             <<<Displacing  14/coordinate 3 (+)>>>
             <<<Displacing  14/coordinate 3 (-)>>>
             <<<Displacing  15/coordinate 2 (+)>>>
             <<<Displacing  15/coordinate 2 (-)>>>
             <<<Displacing  15/coordinate 1 (+)>>>
             <<<Displacing  15/coordinate 1 (-)>>>
             <<<Displacing  15/coordinate 3 (+)>>>
             <<<Displacing  16/coordinate 1 (+)>>>
             <<<Displacing  15/coordinate 3 (-)>>>
             <<<Displacing  16/coordinate 1 (-)>>>
             <<<Displacing  16/coordinate 2 (+)>>>
             <<<Displacing  16/coordinate 2 (-)>>>
             <<<Displacing  17/coordinate 1 (+)>>>
             <<<Displacing  17/coordinate 1 (-)>>>
             <<<Displacing  16/coordinate 3 (+)>>>
             <<<Displacing  16/coordinate 3 (-)>>>
             <<<Displacing  17/coordinate 3 (+)>>>
             <<<Displacing  17/coordinate 2 (+)>>>
             <<<Displacing  17/coordinate 3 (-)>>>
             <<<Displacing  18/coordinate 1 (+)>>>
             <<<Displacing  17/coordinate 2 (-)>>>
             <<<Displacing  18/coordinate 1 (-)>>>
             <<<Displacing  18/coordinate 2 (+)>>>
             <<<Displacing  18/coordinate 3 (+)>>>
             <<<Displacing  18/coordinate 2 (-)>>>
             <<<Displacing  18/coordinate 3 (-)>>>
             <<<Displacing  19/coordinate 1 (+)>>>
             <<<Displacing  19/coordinate 1 (-)>>>
             <<<Displacing  19/coordinate 2 (+)>>>
             <<<Displacing  19/coordinate 2 (-)>>>
             <<<Displacing  19/coordinate 3 (+)>>>
             <<<Displacing  19/coordinate 3 (-)>>>
             <<<Displacing  20/coordinate 3 (+)>>>
             <<<Displacing  20/coordinate 2 (+)>>>
             <<<Displacing  20/coordinate 3 (-)>>>
             <<<Displacing  20/coordinate 1 (+)>>>
             <<<Displacing  20/coordinate 2 (-)>>>
             <<<Displacing  20/coordinate 1 (-)>>>
             <<<Displacing  21/coordinate 2 (+)>>>
             <<<Displacing  21/coordinate 1 (+)>>>
             <<<Displacing  21/coordinate 2 (-)>>>
             <<<Displacing  21/coordinate 1 (-)>>>
             <<<Displacing  21/coordinate 3 (+)>>>
             <<<Displacing  21/coordinate 3 (-)>>>
             <<<Displacing  22/coordinate 1 (+)>>>
             <<<Displacing  22/coordinate 1 (-)>>>
             <<<Displacing  23/coordinate 1 (+)>>>
             <<<Displacing  22/coordinate 2 (+)>>>
             <<<Displacing  23/coordinate 1 (-)>>>
             <<<Displacing  22/coordinate 3 (+)>>>
             <<<Displacing  22/coordinate 2 (-)>>>
             <<<Displacing  22/coordinate 3 (-)>>>
             <<<Displacing  23/coordinate 2 (+)>>>
             <<<Displacing  23/coordinate 2 (-)>>>
             <<<Displacing  24/coordinate 1 (+)>>>
             <<<Displacing  24/coordinate 1 (-)>>>
             <<<Displacing  23/coordinate 3 (+)>>>
             <<<Displacing  23/coordinate 3 (-)>>>
             <<<Displacing  24/coordinate 2 (+)>>>
             <<<Displacing  24/coordinate 2 (-)>>>
             <<<Displacing  24/coordinate 3 (+)>>>
             <<<Displacing  24/coordinate 3 (-)>>>
             <<<Displacing  25/coordinate 1 (+)>>>
             <<<Displacing  25/coordinate 1 (-)>>>
             <<<Displacing  25/coordinate 2 (+)>>>
             <<<Displacing  25/coordinate 3 (+)>>>
             <<<Displacing  25/coordinate 2 (-)>>>
             <<<Displacing  25/coordinate 3 (-)>>>
             <<<Displacing  26/coordinate 1 (+)>>>
             <<<Displacing  26/coordinate 1 (-)>>>
             <<<Displacing  26/coordinate 3 (+)>>>
             <<<Displacing  26/coordinate 3 (-)>>>
             <<<Displacing  26/coordinate 2 (+)>>>
             <<<Displacing  26/coordinate 2 (-)>>>
             <<<Displacing  27/coordinate 1 (+)>>>
             <<<Displacing  27/coordinate 1 (-)>>>
             <<<Displacing  27/coordinate 2 (+)>>>
             <<<Displacing  27/coordinate 2 (-)>>>
             <<<Displacing  27/coordinate 3 (+)>>>
             <<<Displacing  28/coordinate 1 (+)>>>
             <<<Displacing  28/coordinate 2 (+)>>>
             <<<Displacing  27/coordinate 3 (-)>>>
             <<<Displacing  28/coordinate 1 (-)>>>
             <<<Displacing  28/coordinate 2 (-)>>>
             <<<Displacing  28/coordinate 3 (+)>>>
             <<<Displacing  29/coordinate 1 (+)>>>
             <<<Displacing  28/coordinate 3 (-)>>>
             <<<Displacing  29/coordinate 1 (-)>>>
             <<<Displacing  29/coordinate 2 (+)>>>
             <<<Displacing  29/coordinate 2 (-)>>>
             <<<Displacing  29/coordinate 3 (+)>>>
             <<<Displacing  29/coordinate 3 (-)>>>
             <<<Displacing  30/coordinate 1 (+)>>>
             <<<Displacing  30/coordinate 1 (-)>>>
             <<<Displacing  30/coordinate 2 (+)>>>
             <<<Displacing  30/coordinate 2 (-)>>>
             <<<Displacing  31/coordinate 2 (+)>>>
             <<<Displacing  31/coordinate 2 (-)>>>
             <<<Displacing  30/coordinate 3 (+)>>>
             <<<Displacing  31/coordinate 1 (+)>>>
             <<<Displacing  32/coordinate 2 (+)>>>
             <<<Displacing  30/coordinate 3 (-)>>>
             <<<Displacing  31/coordinate 1 (-)>>>
             <<<Displacing  32/coordinate 2 (-)>>>
             <<<Displacing  31/coordinate 3 (+)>>>
             <<<Displacing  31/coordinate 3 (-)>>>
             <<<Displacing  32/coordinate 1 (+)>>>
             <<<Displacing  32/coordinate 1 (-)>>>
             <<<Displacing  32/coordinate 3 (+)>>>
             <<<Displacing  32/coordinate 3 (-)>>>
             <<<Displacing  33/coordinate 1 (+)>>>
             <<<Displacing  33/coordinate 1 (-)>>>
             <<<Displacing  33/coordinate 2 (+)>>>
             <<<Displacing  33/coordinate 2 (-)>>>
             <<<Displacing  33/coordinate 3 (+)>>>
             <<<Displacing  33/coordinate 3 (-)>>>

-----------------------
VIBRATIONAL FREQUENCIES
-----------------------

Scaling factor for frequencies =  1.000000000 (already applied!)

   0:         0.00 cm**-1
   1:         0.00 cm**-1
   2:         0.00 cm**-1
   3:         0.00 cm**-1
   4:         0.00 cm**-1
   5:         0.00 cm**-1
   6:      -726.62 cm**-1 ***imaginary mode***
   7:        36.04 cm**-1
   8:        59.81 cm**-1
   9:        60.21 cm**-1
  10:        83.15 cm**-1
  11:        89.64 cm**-1
  12:       104.09 cm**-1
  13:       121.54 cm**-1
  14:       134.02 cm**-1
  15:       150.56 cm**-1
  16:       173.96 cm**-1
  17:       212.71 cm**-1
  18:       263.28 cm**-1
  19:       272.78 cm**-1
  20:       275.18 cm**-1
  21:       324.89 cm**-1
  22:       374.41 cm**-1
  23:       402.22 cm**-1
  24:       426.90 cm**-1
  25:       452.38 cm**-1
  26:       470.23 cm**-1
  27:       495.21 cm**-1
  28:       534.53 cm**-1
  29:       586.34 cm**-1
  30:       590.68 cm**-1
  31:       612.50 cm**-1
  32:       625.56 cm**-1
  33:       662.79 cm**-1
  34:       749.09 cm**-1
  35:       778.11 cm**-1
  36:       793.69 cm**-1
  37:       815.17 cm**-1
  38:       824.72 cm**-1
  39:       859.02 cm**-1
  40:       868.36 cm**-1
  41:       907.42 cm**-1
  42:       927.17 cm**-1
  43:       934.25 cm**-1
  44:       938.39 cm**-1
  45:       946.31 cm**-1
  46:       949.22 cm**-1
  47:       985.64 cm**-1
  48:      1035.89 cm**-1
  49:      1069.65 cm**-1
  50:      1079.49 cm**-1
  51:      1106.12 cm**-1
  52:      1116.33 cm**-1
  53:      1128.74 cm**-1
  54:      1132.92 cm**-1
  55:      1179.49 cm**-1
  56:      1184.23 cm**-1
  57:      1206.94 cm**-1
  58:      1218.18 cm**-1
  59:      1238.35 cm**-1
  60:      1254.64 cm**-1
  61:      1259.48 cm**-1
  62:      1276.64 cm**-1
  63:      1277.32 cm**-1
  64:      1296.98 cm**-1
  65:      1308.75 cm**-1
  66:      1339.80 cm**-1
  67:      1349.27 cm**-1
  68:      1370.23 cm**-1
  69:      1419.93 cm**-1
  70:      1427.83 cm**-1
  71:      1450.55 cm**-1
  72:      1452.18 cm**-1
  73:      1500.12 cm**-1
  74:      1502.08 cm**-1
  75:      1506.76 cm**-1
  76:      1510.21 cm**-1
  77:      1551.52 cm**-1
  78:      1559.29 cm**-1
  79:      1564.99 cm**-1
  80:      1607.43 cm**-1
  81:      2716.76 cm**-1
  82:      2946.90 cm**-1
  83:      2959.64 cm**-1
  84:      2969.87 cm**-1
  85:      2970.60 cm**-1
  86:      2978.61 cm**-1
  87:      2982.96 cm**-1
  88:      2989.56 cm**-1
  89:      3001.38 cm**-1
  90:      3007.14 cm**-1
  91:      3060.86 cm**-1
  92:      3062.66 cm**-1
  93:      3064.85 cm**-1
  94:      3071.17 cm**-1
  95:      3078.47 cm**-1
  96:      3089.43 cm**-1
  97:      3614.34 cm**-1
  98:      3619.45 cm**-1


------------
NORMAL MODES
------------

These modes are the cartesian displacements weighted by the diagonal matrix
M(i,i)=1/sqrt(m[i]) where m[i] is the mass of the displaced atom
Thus, these vectors are normalized but *not* orthogonal

                  0          1          2          3          4          5    
      0       0.000000   0.000000   0.000000   0.000000   0.000000   0.000000
      1       0.000000   0.000000   0.000000   0.000000   0.000000   0.000000
      2       0.000000   0.000000   0.000000   0.000000   0.000000   0.000000
      3       0.000000   0.000000   0.000000   0.000000   0.000000   0.000000
      4       0.000000   0.000000   0.000000   0.000000   0.000000   0.000000
      5       0.000000   0.000000   0.000000   0.000000   0.000000   0.000000
      6       0.000000   0.000000   0.000000   0.000000   0.000000   0.000000
      7       0.000000   0.000000   0.000000   0.000000   0.000000   0.000000
      8       0.000000   0.000000   0.000000   0.000000   0.000000   0.000000
      9       0.000000   0.000000   0.000000   0.000000   0.000000   0.000000
     10       0.000000   0.000000   0.000000   0.000000   0.000000   0.000000
     11       0.000000   0.000000   0.000000   0.000000   0.000000   0.000000
     12       0.000000   0.000000   0.000000   0.000000   0.000000   0.000000
     13       0.000000   0.000000   0.000000   0.000000   0.000000   0.000000
     14       0.000000   0.000000   0.000000   0.000000   0.000000   0.000000
     15       0.000000   0.000000   0.000000   0.000000   0.000000   0.000000
     16       0.000000   0.000000   0.000000   0.000000   0.000000   0.000000
     17       0.000000   0.000000   0.000000   0.000000   0.000000   0.000000
     18       0.000000   0.000000   0.000000   0.000000   0.000000   0.000000
     19       0.000000   0.000000   0.000000   0.000000   0.000000   0.000000
     20       0.000000   0.000000   0.000000   0.000000   0.000000   0.000000
     21       0.000000   0.000000   0.000000   0.000000   0.000000   0.000000
     22       0.000000   0.000000   0.000000   0.000000   0.000000   0.000000
     23       0.000000   0.000000   0.000000   0.000000   0.000000   0.000000
     24       0.000000   0.000000   0.000000   0.000000   0.000000   0.000000
     25       0.000000   0.000000   0.000000   0.000000   0.000000   0.000000
     26       0.000000   0.000000   0.000000   0.000000   0.000000   0.000000
     27       0.000000   0.000000   0.000000   0.000000   0.000000   0.000000
     28       0.000000   0.000000   0.000000   0.000000   0.000000   0.000000
     29       0.000000   0.000000   0.000000   0.000000   0.000000   0.000000
     30       0.000000   0.000000   0.000000   0.000000   0.000000   0.000000
     31       0.000000   0.000000   0.000000   0.000000   0.000000   0.000000
     32       0.000000   0.000000   0.000000   0.000000   0.000000   0.000000
     33       0.000000   0.000000   0.000000   0.000000   0.000000   0.000000
     34       0.000000   0.000000   0.000000   0.000000   0.000000   0.000000
     35       0.000000   0.000000   0.000000   0.000000   0.000000   0.000000
     36       0.000000   0.000000   0.000000   0.000000   0.000000   0.000000
     37       0.000000   0.000000   0.000000   0.000000   0.000000   0.000000
     38       0.000000   0.000000   0.000000   0.000000   0.000000   0.000000
     39       0.000000   0.000000   0.000000   0.000000   0.000000   0.000000
     40       0.000000   0.000000   0.000000   0.000000   0.000000   0.000000
     41       0.000000   0.000000   0.000000   0.000000   0.000000   0.000000
     42       0.000000   0.000000   0.000000   0.000000   0.000000   0.000000
     43       0.000000   0.000000   0.000000   0.000000   0.000000   0.000000
     44       0.000000   0.000000   0.000000   0.000000   0.000000   0.000000
     45       0.000000   0.000000   0.000000   0.000000   0.000000   0.000000
     46       0.000000   0.000000   0.000000   0.000000   0.000000   0.000000
     47       0.000000   0.000000   0.000000   0.000000   0.000000   0.000000
     48       0.000000   0.000000   0.000000   0.000000   0.000000   0.000000
     49       0.000000   0.000000   0.000000   0.000000   0.000000   0.000000
     50       0.000000   0.000000   0.000000   0.000000   0.000000   0.000000
     51       0.000000   0.000000   0.000000   0.000000   0.000000   0.000000
     52       0.000000   0.000000   0.000000   0.000000   0.000000   0.000000
     53       0.000000   0.000000   0.000000   0.000000   0.000000   0.000000
     54       0.000000   0.000000   0.000000   0.000000   0.000000   0.000000
     55       0.000000   0.000000   0.000000   0.000000   0.000000   0.000000
     56       0.000000   0.000000   0.000000   0.000000   0.000000   0.000000
     57       0.000000   0.000000   0.000000   0.000000   0.000000   0.000000
     58       0.000000   0.000000   0.000000   0.000000   0.000000   0.000000
     59       0.000000   0.000000   0.000000   0.000000   0.000000   0.000000
     60       0.000000   0.000000   0.000000   0.000000   0.000000   0.000000
     61       0.000000   0.000000   0.000000   0.000000   0.000000   0.000000
     62       0.000000   0.000000   0.000000   0.000000   0.000000   0.000000
     63       0.000000   0.000000   0.000000   0.000000   0.000000   0.000000
     64       0.000000   0.000000   0.000000   0.000000   0.000000   0.000000
     65       0.000000   0.000000   0.000000   0.000000   0.000000   0.000000
     66       0.000000   0.000000   0.000000   0.000000   0.000000   0.000000
     67       0.000000   0.000000   0.000000   0.000000   0.000000   0.000000
     68       0.000000   0.000000   0.000000   0.000000   0.000000   0.000000
     69       0.000000   0.000000   0.000000   0.000000   0.000000   0.000000
     70       0.000000   0.000000   0.000000   0.000000   0.000000   0.000000
     71       0.000000   0.000000   0.000000   0.000000   0.000000   0.000000
     72       0.000000   0.000000   0.000000   0.000000   0.000000   0.000000
     73       0.000000   0.000000   0.000000   0.000000   0.000000   0.000000
     74       0.000000   0.000000   0.000000   0.000000   0.000000   0.000000
     75       0.000000   0.000000   0.000000   0.000000   0.000000   0.000000
     76       0.000000   0.000000   0.000000   0.000000   0.000000   0.000000
     77       0.000000   0.000000   0.000000   0.000000   0.000000   0.000000
     78       0.000000   0.000000   0.000000   0.000000   0.000000   0.000000
     79       0.000000   0.000000   0.000000   0.000000   0.000000   0.000000
     80       0.000000   0.000000   0.000000   0.000000   0.000000   0.000000
     81       0.000000   0.000000   0.000000   0.000000   0.000000   0.000000
     82       0.000000   0.000000   0.000000   0.000000   0.000000   0.000000
     83       0.000000   0.000000   0.000000   0.000000   0.000000   0.000000
     84       0.000000   0.000000   0.000000   0.000000   0.000000   0.000000
     85       0.000000   0.000000   0.000000   0.000000   0.000000   0.000000
     86       0.000000   0.000000   0.000000   0.000000   0.000000   0.000000
     87       0.000000   0.000000   0.000000   0.000000   0.000000   0.000000
     88       0.000000   0.000000   0.000000   0.000000   0.000000   0.000000
     89       0.000000   0.000000   0.000000   0.000000   0.000000   0.000000
     90       0.000000   0.000000   0.000000   0.000000   0.000000   0.000000
     91       0.000000   0.000000   0.000000   0.000000   0.000000   0.000000
     92       0.000000   0.000000   0.000000   0.000000   0.000000   0.000000
     93       0.000000   0.000000   0.000000   0.000000   0.000000   0.000000
     94       0.000000   0.000000   0.000000   0.000000   0.000000   0.000000
     95       0.000000   0.000000   0.000000   0.000000   0.000000   0.000000
     96       0.000000   0.000000   0.000000   0.000000   0.000000   0.000000
     97       0.000000   0.000000   0.000000   0.000000   0.000000   0.000000
     98       0.000000   0.000000   0.000000   0.000000   0.000000   0.000000
                  6          7          8          9         10         11    
      0       0.002049  -0.052622   0.034498  -0.007711   0.016106  -0.005334
      1       0.001187   0.102701   0.029547  -0.222870  -0.089969   0.016210
      2      -0.001947  -0.034970  -0.073127   0.004113   0.081684   0.012564
      3       0.002826  -0.057057   0.047908   0.005372   0.001602  -0.008007
      4      -0.000382   0.043769  -0.065527  -0.168340  -0.137596  -0.007488
      5      -0.001458  -0.029357   0.024237   0.037639   0.040218   0.010383
      6       0.004252  -0.044665   0.006743  -0.028386   0.042828  -0.000671
      7      -0.009758  -0.017980  -0.055349   0.016203  -0.033138  -0.016502
      8       0.004272  -0.018578   0.065653   0.006377  -0.041883   0.005780
      9       0.001633  -0.030465  -0.051940  -0.077863   0.095716   0.008759
     10      -0.000634  -0.013813   0.038387   0.160541   0.108115  -0.004813
     11       0.002076  -0.015489   0.014408  -0.060158  -0.073829   0.004726
     12       0.001374  -0.026145  -0.065524  -0.090513   0.111316   0.011666
     13       0.002239   0.048974   0.132471   0.108641   0.174228   0.017670
     14      -0.000306  -0.022517  -0.083236  -0.094926  -0.040545   0.007330
     15       0.001496  -0.037108  -0.021999  -0.056154   0.070980   0.004532
     16       0.000079   0.105263   0.131944  -0.086006   0.076130   0.029454
     17      -0.001179  -0.031293  -0.128273  -0.062011   0.035650   0.010509
     18       0.000936  -0.069239   0.091765   0.039532  -0.043146  -0.015643
     19      -0.004793   0.042195  -0.138440  -0.275430  -0.253647  -0.016352
     20      -0.000022  -0.032511   0.064750   0.087780   0.069523   0.011359
     21       0.008849  -0.023310  -0.088420  -0.104264   0.120532   0.013159
     22      -0.005254  -0.057356   0.040725   0.323005   0.180937  -0.010450
     23      -0.004055  -0.008484   0.050442  -0.086645  -0.123537   0.002199
     24       0.001806  -0.033740  -0.032763  -0.065885   0.081849   0.006574
     25      -0.003663   0.151561   0.210022  -0.126750   0.126714   0.048922
     26       0.001354  -0.035620  -0.204651  -0.086711   0.061152   0.011321
     27      -0.017479  -0.033357   0.000704  -0.016243   0.046570  -0.004190
     28       0.048555  -0.165433  -0.013351   0.003920  -0.052960  -0.009706
     29      -0.005089  -0.005415   0.123542   0.040627  -0.130331  -0.004564
     30      -0.179958   0.085427  -0.091243   0.127376  -0.145494   0.014552
     31      -0.244575  -0.087579  -0.047441   0.071745   0.058627  -0.010136
     32      -0.769130   0.098199   0.050531   0.083221   0.159544  -0.022671
     33      -0.012614  -0.045340   0.005849  -0.021596   0.047758   0.003158
     34       0.000021  -0.187073   0.060019   0.007030  -0.063786   0.033956
     35       0.001485  -0.038384   0.100859   0.017600  -0.105293   0.001942
     36      -0.009546  -0.092940  -0.035687  -0.025940   0.066176   0.024094
     37       0.002116  -0.230173   0.107838   0.015216  -0.074638   0.097206
     38       0.013555  -0.207408   0.184043   0.034444  -0.114684   0.193481
     39      -0.007199  -0.064463   0.014681  -0.036406   0.057848   0.023400
     40      -0.002526  -0.314270   0.143194   0.026525  -0.081491   0.187040
     41      -0.000005   0.069558   0.030198   0.000975  -0.089212  -0.127103
     42      -0.065513   0.015135  -0.054011   0.022950   0.021357  -0.014218
     43       0.398088  -0.185693  -0.028176  -0.024442  -0.163888  -0.025329
     44      -0.283540   0.036498   0.118357   0.079722  -0.007752   0.009747
     45       0.019028   0.112630  -0.207716   0.240898  -0.234665   0.044001
     46      -0.043859  -0.157225  -0.007929   0.049091  -0.054470  -0.001991
     47       0.016766   0.105552   0.052798   0.049924   0.142092  -0.035791
     48       0.006392   0.047149   0.044498  -0.026890  -0.093680  -0.027786
     49       0.100472   0.019803  -0.121287   0.140845   0.127602  -0.008810
     50       0.041183   0.102784  -0.066978   0.188741   0.023564   0.010304
     51       0.010046  -0.051395   0.018034  -0.021500   0.020485  -0.002790
     52      -0.089977  -0.075867  -0.088844   0.035030  -0.054989  -0.019611
     53       0.057492  -0.018815   0.133174   0.035018  -0.086886  -0.000843
     54      -0.000866  -0.082130   0.050614  -0.014347  -0.008649  -0.001813
     55      -0.077868  -0.043022  -0.121492   0.055422  -0.020494  -0.012593
     56       0.038175  -0.047529   0.162690   0.022846  -0.115352  -0.004746
     57       0.009878   0.046294   0.033616  -0.014432  -0.082245  -0.023689
     58       0.071468  -0.016262  -0.083564   0.099977   0.176285  -0.015479
     59      -0.002601   0.071946   0.018817   0.092496   0.017490  -0.014723
     60       0.008836   0.144868  -0.264234   0.329040  -0.254242   0.065954
     61      -0.151599  -0.106997  -0.037363   0.204136  -0.044592   0.041888
     62       0.087812   0.120417  -0.024306   0.076168   0.097079  -0.033745
     63      -0.004212   0.026962   0.064013  -0.002531  -0.000354  -0.041263
     64       0.000997   0.025389  -0.028615  -0.020062  -0.045115  -0.176736
     65       0.000640  -0.001786   0.020256  -0.008636  -0.060034  -0.055000
     66      -0.007907  -0.016661   0.104368   0.018192  -0.052381  -0.205376
     67       0.002590   0.113801  -0.099064  -0.034832  -0.035536  -0.397455
     68      -0.001272  -0.080542   0.083229   0.005868  -0.072753   0.115449
     69      -0.002353   0.121295   0.092966   0.000536  -0.010605   0.048311
     70       0.000629   0.028874  -0.062084  -0.024824  -0.044011  -0.314819
     71       0.002674   0.118244  -0.039529  -0.018494  -0.068831  -0.336085
     72       0.001859  -0.061270   0.067502   0.020317  -0.016507  -0.011115
     73       0.001637   0.147218   0.026737  -0.370294  -0.173852   0.025051
     74      -0.001220  -0.042427  -0.106308   0.029554   0.146474   0.015278
     75       0.001369  -0.014726  -0.110892  -0.127745   0.153239   0.019318
     76       0.002567   0.053077   0.209759   0.222500   0.299652   0.027579
     77      -0.000503  -0.020576  -0.124650  -0.147150  -0.073228   0.006028
     78      -0.002416   0.032929   0.042911  -0.011296   0.025774   0.018073
     79       0.000726   0.113142   0.019982  -0.017849  -0.038770   0.122095
     80      -0.000337  -0.016851  -0.085652  -0.043329   0.038516   0.045274
     81      -0.002182  -0.043561   0.005157  -0.019446   0.036264  -0.096945
     82       0.001069   0.123157   0.048230  -0.015561  -0.046057   0.250246
     83       0.000763  -0.075289  -0.049560  -0.046248   0.030644   0.272834
     84      -0.002211   0.070509  -0.001308  -0.030032   0.091348   0.199451
     85       0.000033   0.072444   0.076276  -0.012642  -0.068939   0.303234
     86       0.000187   0.019810  -0.135802  -0.049249   0.069573  -0.086566
     87      -0.001428   0.088123   0.129841   0.015068  -0.048052  -0.009713
     88       0.000347   0.235660  -0.040171  -0.023786   0.015154   0.024596
     89      -0.000213  -0.003289  -0.176976  -0.065584   0.117907   0.022466
     90      -0.001706   0.089743   0.110201   0.008522  -0.027660   0.020002
     91       0.001121   0.287505  -0.011723  -0.021851   0.010102   0.170672
     92      -0.001316  -0.015119  -0.254403  -0.088830   0.190336   0.075830
     93      -0.001007   0.157868   0.162896   0.022671  -0.062758   0.061250
     94       0.000398   0.230509  -0.063068  -0.025468   0.026067  -0.060372
     95       0.000311   0.053015  -0.208722  -0.062664   0.133982  -0.147932
     96      -0.001325   0.055916   0.181196   0.033295  -0.108141  -0.130081
     97       0.000484   0.277443  -0.089796  -0.028009   0.049186  -0.107765
     98      -0.000251  -0.038599  -0.134519  -0.061331   0.087622   0.124126
                 12         13         14         15         16         17    
      0       0.048642   0.018378   0.008829   0.016521  -0.028654   0.007897
      1       0.087021   0.020470  -0.051542  -0.019994  -0.003100  -0.008404
      2      -0.073569  -0.028691   0.023010  -0.014326   0.039017  -0.000872
      3       0.051366   0.024136   0.009879   0.025774  -0.050330  -0.005929
      4      -0.015747   0.026587   0.049604   0.102475  -0.003441  -0.089921
      5      -0.015647  -0.003253  -0.018856  -0.018821  -0.064824  -0.027309
      6       0.035255   0.006239   0.009284   0.002548   0.005322   0.009664
      7      -0.070945   0.006935   0.119396   0.132065  -0.010898  -0.077277
      8       0.020846   0.024322  -0.050798  -0.004045  -0.124135  -0.053055
      9       0.023031  -0.017670   0.017841  -0.029955   0.090071   0.071162
     10      -0.069939  -0.019703   0.122452   0.107614  -0.003088  -0.085851
     11       0.012769   0.026815  -0.054527  -0.006606  -0.100678  -0.036720
     12       0.018566  -0.024612   0.017346  -0.042351   0.119067   0.089002
     13       0.024012  -0.034475   0.050623  -0.016237   0.019406  -0.010078
     14      -0.041447   0.004222  -0.020312  -0.000419  -0.007818  -0.012247
     15       0.033558  -0.005961   0.012735  -0.018810   0.057701   0.062544
     16       0.118242  -0.013596  -0.049030  -0.102395   0.009702   0.061109
     17      -0.089649  -0.022873   0.022072   0.006275   0.060358  -0.009991
     18       0.067860   0.044499   0.005332   0.053192  -0.116440  -0.033721
     19      -0.026077   0.049738   0.049978   0.148045  -0.006289  -0.125252
     20      -0.006630  -0.005457  -0.020878  -0.027371  -0.083930  -0.022433
     21       0.016531  -0.031350   0.027165  -0.045203   0.133937   0.110464
     22      -0.131218  -0.030306   0.164558   0.156872  -0.010306  -0.140856
     23       0.039693   0.044353  -0.078402  -0.007283  -0.144039  -0.059342
     24       0.030777  -0.010852   0.013199  -0.026208   0.074201   0.071916
     25       0.211051  -0.022717  -0.124230  -0.223217   0.013010   0.151469
     26      -0.138028  -0.039777   0.054166   0.023225   0.128448  -0.005575
     27       0.046937   0.013413   0.000558   0.032862  -0.077312  -0.017854
     28       0.031977   0.024121   0.091024   0.021767  -0.046160   0.111615
     29      -0.019853   0.018536   0.012646   0.007197   0.034988  -0.051702
     30      -0.157698  -0.017195  -0.069612  -0.105082  -0.015836  -0.005281
     31      -0.043189   0.057915  -0.191602   0.020886  -0.018660   0.102075
     32       0.026002   0.008740  -0.099531  -0.065305  -0.027729   0.013840
     33       0.050475   0.009319  -0.004771   0.011588  -0.023759  -0.054677
     34       0.041122  -0.007492   0.064336  -0.220953   0.063817  -0.139932
     35      -0.024668   0.018168  -0.012210   0.026771   0.193886  -0.008701
     36       0.048240   0.061550   0.039433   0.118737  -0.041497   0.098441
     37       0.036122   0.011653   0.072899  -0.342890   0.127555  -0.271093
     38      -0.038909   0.126331   0.059017  -0.186044   0.340298  -0.192594
     39       0.061307  -0.018844  -0.023136  -0.098830   0.114854  -0.149623
     40       0.020791   0.082003   0.121621  -0.393054   0.156554  -0.304032
     41      -0.007587  -0.058381  -0.063967   0.169461   0.117498   0.127188
     42       0.049788   0.014915   0.010441   0.094764  -0.153128   0.022743
     43       0.089291   0.000496   0.310126   0.102715  -0.084483   0.273154
     44      -0.079160   0.037975  -0.190652  -0.072172   0.065410  -0.239570
     45       0.112471  -0.014772  -0.026824  -0.074994   0.021953  -0.004584
     46      -0.005471   0.065940  -0.145461   0.023765  -0.082060   0.282749
     47      -0.031967  -0.018207   0.077965  -0.048095  -0.025548   0.046363
     48      -0.481851  -0.045160   0.053061  -0.139540  -0.106821   0.123725
     49      -0.136835   0.047511  -0.237146  -0.017171   0.002531   0.018434
     50       0.344521   0.012804   0.012270   0.007359   0.046318   0.007459
     51       0.040131   0.006228   0.029088   0.004834   0.009944   0.010038
     52      -0.025187   0.003208   0.177232   0.080486   0.003760  -0.025460
     53       0.009058   0.039085  -0.074215   0.015211  -0.103857  -0.031015
     54       0.043937   0.007757   0.027937  -0.035671   0.084015   0.052325
     55      -0.043710  -0.000935   0.149227   0.023861   0.081798  -0.152784
     56       0.020396   0.042198  -0.059034   0.040883  -0.135180   0.059144
     57      -0.428963  -0.037587   0.025762  -0.119932  -0.074692   0.066473
     58      -0.099437   0.058706  -0.256847   0.033314   0.057673  -0.093889
     59       0.136530  -0.010948   0.118212  -0.034119  -0.047876   0.162305
     60       0.200793  -0.009120  -0.105145  -0.098896   0.089648  -0.105023
     61      -0.040259   0.093124  -0.489031  -0.091880   0.076238  -0.002476
     62       0.157857  -0.031243   0.231531   0.008082  -0.039543   0.111477
     63       0.039438  -0.015596  -0.032151   0.041522  -0.058762  -0.109852
     64       0.069747  -0.170345  -0.049864  -0.084090  -0.010285  -0.049393
     65      -0.002151  -0.031492  -0.045359   0.071814   0.192538   0.061878
     66       0.067753   0.019118  -0.037271  -0.018131   0.000309  -0.146579
     67       0.116361  -0.240837  -0.110334  -0.044717  -0.040129  -0.005735
     68      -0.038657   0.032057   0.005629   0.032216   0.221439   0.020301
     69      -0.004331  -0.053760  -0.059625   0.131182  -0.073444  -0.072587
     70       0.106066  -0.184128  -0.065923  -0.101387  -0.013947  -0.048156
     71       0.048881  -0.116747  -0.122650   0.125735   0.161584   0.104534
     72       0.058271   0.032891   0.006639   0.037972  -0.083068  -0.026141
     73       0.149144   0.039767  -0.129731  -0.063908  -0.008636   0.013791
     74      -0.106637  -0.050815   0.054035  -0.020279   0.097308   0.026240
     75       0.003106  -0.045005   0.024081  -0.068803   0.189079   0.120352
     76       0.034873  -0.060060   0.058546  -0.057303   0.033553   0.002619
     77      -0.049871   0.007342  -0.020960   0.006577   0.007784  -0.007601
     78       0.033844  -0.021089  -0.029214   0.057871  -0.095471  -0.119785
     79      -0.023539  -0.180624  -0.041302   0.040430  -0.019165   0.029628
     80       0.016439  -0.052022  -0.031003   0.056438   0.043717   0.010600
     81       0.093338  -0.097444  -0.052686  -0.003769  -0.154208  -0.195021
     82      -0.056208  -0.237620  -0.052575   0.103981  -0.021186   0.066184
     83      -0.007233  -0.299395  -0.090866   0.163211  -0.031467   0.024962
     84       0.003464  -0.008019  -0.008473   0.089179  -0.207064  -0.128913
     85      -0.053466  -0.380076  -0.093191   0.145920  -0.029431   0.070932
     86       0.038105   0.113571   0.013245  -0.027945   0.041076  -0.024982
     87      -0.010505   0.065783  -0.020689   0.125178   0.114526  -0.005947
     88      -0.040579   0.173750   0.062914  -0.049507   0.012710   0.034440
     89       0.042551   0.041638   0.008125  -0.031560  -0.100390  -0.079679
     90      -0.009511   0.055717  -0.018463   0.123943   0.059572  -0.013184
     91      -0.092600   0.150409   0.056583   0.069338   0.020529   0.165334
     92       0.063448   0.014856   0.017376  -0.076281  -0.293595  -0.149576
     93      -0.060218   0.137313  -0.005495   0.208910   0.189788   0.115814
     94      -0.018790   0.243469   0.083508  -0.120834   0.014575  -0.026859
     95       0.054219   0.313483   0.082628  -0.150117  -0.018438  -0.130692
     96       0.004645   0.069619  -0.034863   0.099269   0.263401  -0.027198
     97      -0.023143   0.393973   0.127823  -0.164944   0.027217  -0.032122
     98       0.029159  -0.136421  -0.044956   0.060630  -0.105476  -0.026763
                 18         19         20         21         22         23    
      0      -0.167571  -0.032281  -0.006716  -0.022169  -0.005628   0.006144
      1       0.021146  -0.035381   0.018367  -0.049316   0.174334   0.027389
      2       0.044824   0.025621  -0.003451   0.022702  -0.060266  -0.007827
      3      -0.175155  -0.025924  -0.010639  -0.036937  -0.010604   0.007408
      4       0.008036  -0.099577   0.041590  -0.045372  -0.198088  -0.018442
      5      -0.041923   0.063049  -0.031096  -0.058633   0.061264   0.019871
      6      -0.080867  -0.015064  -0.002799  -0.018947  -0.003331   0.007308
      7      -0.034449  -0.012778  -0.000477   0.002512   0.009610  -0.001137
      8      -0.105109   0.021913  -0.022270  -0.092711  -0.022301   0.012027
      9      -0.063525  -0.043584   0.012103   0.040859   0.005788  -0.004000
     10      -0.013818  -0.111969   0.044974  -0.086597   0.169193   0.042399
     11      -0.105507   0.051769  -0.034976  -0.048633  -0.078220  -0.003455
     12      -0.044885  -0.049053   0.017436   0.069400   0.008051  -0.007949
     13       0.001215  -0.017795   0.010964  -0.000065  -0.191369  -0.013511
     14      -0.013224   0.009008  -0.005119  -0.007509   0.069474   0.007758
     15      -0.119347  -0.049803   0.007727   0.040392   0.002596  -0.004586
     16       0.000724   0.118870  -0.046095   0.063958   0.020314  -0.010245
     17       0.067783  -0.038968   0.025813   0.001531   0.000566   0.002313
     18      -0.266805  -0.033278  -0.019970  -0.073933  -0.025183   0.011041
     19       0.009851  -0.162096   0.066974  -0.063354  -0.449935  -0.051830
     20      -0.072255   0.083200  -0.043231  -0.062916   0.149738   0.033481
     21      -0.031658  -0.053181   0.020241   0.083414   0.016360  -0.015596
     22      -0.015168  -0.181751   0.074095  -0.174354   0.410717   0.057328
     23      -0.135268   0.085505  -0.053049  -0.064995  -0.169117   0.004504
     24      -0.103768  -0.050002   0.009963   0.050844   0.004290  -0.005983
     25      -0.009206   0.281529  -0.112979   0.153225   0.048620  -0.029424
     26       0.134478  -0.105455   0.061865   0.010851  -0.003158   0.003018
     27      -0.001740   0.018711  -0.011495  -0.079471  -0.005995   0.006635
     28       0.022456   0.072794  -0.028786  -0.002392   0.031081  -0.084988
     29      -0.073132  -0.040915   0.019475   0.223197   0.013980   0.004506
     30      -0.021459   0.015355  -0.006541  -0.022964  -0.017915   0.057947
     31       0.017997   0.004700  -0.004934   0.017166  -0.014861   0.055598
     32      -0.054719  -0.035711   0.006916  -0.102003  -0.009890   0.043133
     33       0.075980   0.030109  -0.004347  -0.101592  -0.009904   0.020715
     34       0.068589   0.007119   0.026329  -0.070873  -0.008423   0.009987
     35       0.005808  -0.005797   0.010763   0.099880   0.011705   0.017951
     36       0.037895   0.088207  -0.048965  -0.130733   0.009160  -0.027888
     37       0.122532  -0.025768   0.052325  -0.109295  -0.027323   0.057226
     38       0.112385  -0.030736   0.032393  -0.039996  -0.018704   0.089625
     39       0.137261   0.016597   0.015884  -0.250243  -0.039252   0.093783
     40       0.149159  -0.024855   0.049607  -0.125216  -0.027934   0.062026
     41      -0.061226   0.020674  -0.008406   0.140305   0.026803  -0.023556
     42      -0.026200   0.044564  -0.032191  -0.045926  -0.011030   0.051523
     43       0.093724   0.095324  -0.038254   0.119810   0.049576  -0.078244
     44      -0.155420  -0.042297   0.018727   0.090559  -0.008033   0.001661
     45      -0.003137   0.015075  -0.004325  -0.008992  -0.011368   0.032992
     46       0.127989  -0.058298   0.025757   0.034399  -0.031294   0.069461
     47       0.014890  -0.015426   0.004758  -0.037368   0.012441  -0.034550
     48       0.061833   0.020219  -0.006748  -0.061350  -0.006014  -0.004912
     49       0.042187   0.027817  -0.013280  -0.101079  -0.042776   0.063442
     50      -0.008020  -0.052804   0.022077   0.065498  -0.000388   0.009876
     51      -0.021657   0.000513  -0.001132   0.010515   0.003922  -0.002886
     52      -0.058403   0.157998  -0.069891   0.123736   0.029487  -0.024606
     53      -0.044242  -0.068196   0.025242   0.022642  -0.001446  -0.015654
     54      -0.013563  -0.012053   0.011444   0.134689   0.017741  -0.022995
     55      -0.132935   0.238760  -0.101789   0.219771   0.000423   0.003016
     56       0.002139  -0.125035   0.049268  -0.011550   0.019781  -0.036781
     57       0.023477   0.021576  -0.007696  -0.013395   0.002571  -0.007834
     58      -0.053855   0.038971  -0.019318   0.043655  -0.002828   0.026372
     59       0.076162  -0.047867   0.020440  -0.015721  -0.001802  -0.012186
     60      -0.060743  -0.027679   0.016199  -0.055997   0.071996  -0.291175
     61      -0.045620  -0.235817   0.107804  -0.128717   0.208283  -0.883382
     62       0.060831   0.060678  -0.029025   0.019261  -0.044931   0.207090
     63       0.139200   0.004261   0.023241   0.130909   0.012895   0.001455
     64      -0.006117   0.006014   0.029401  -0.031943  -0.006287   0.004454
     65      -0.023700   0.029709  -0.009828  -0.066284  -0.003215   0.021007
     66       0.132558   0.027568   0.086962   0.200648   0.019414   0.013259
     67      -0.053007   0.043512   0.066769  -0.055078  -0.009616   0.000012
     68       0.015796   0.000365  -0.034544  -0.037757   0.000333   0.025478
     69       0.126738  -0.039289  -0.010989   0.237789   0.024338   0.001064
     70      -0.020825   0.037563   0.063196  -0.060816  -0.009535   0.003098
     71      -0.076227   0.064884   0.045008  -0.017930   0.001040   0.016339
     72      -0.201051  -0.020260  -0.016812  -0.067288  -0.013551   0.013535
     73       0.032542  -0.059438   0.030032  -0.089711   0.378453   0.052772
     74       0.074490   0.021738   0.002717   0.084291  -0.127910  -0.024748
     75       0.041055  -0.049537   0.029477   0.111990   0.018812  -0.013258
     76       0.009509  -0.015765   0.013571   0.006897  -0.410907  -0.039872
     77       0.009797   0.008460  -0.002574   0.002187   0.151662   0.015731
     78       0.189328   0.007827   0.008196   0.125164   0.013854  -0.015045
     79      -0.040544  -0.055175  -0.054017   0.016712   0.001064   0.005390
     80       0.066260   0.035908  -0.031952  -0.122630  -0.010153  -0.012437
     81       0.232735   0.003759   0.029244   0.159135   0.014981  -0.017750
     82      -0.053002  -0.069452  -0.084793   0.015562   0.002297   0.002653
     83       0.080952  -0.012951  -0.095269  -0.079013  -0.004727  -0.022409
     84       0.217272  -0.013482  -0.008649   0.186088   0.020423  -0.030853
     85      -0.046635  -0.085150  -0.112542   0.009066   0.001968   0.000275
     86       0.073268   0.058256   0.015844  -0.107685  -0.010002  -0.009389
     87       0.176816   0.082414  -0.014269  -0.107137  -0.004823  -0.026152
     88      -0.062820  -0.007471   0.011289   0.006183   0.000327   0.008489
     89       0.090892   0.008691   0.014265   0.044051   0.003891  -0.010822
     90       0.140095   0.138162   0.090898  -0.050301  -0.000012  -0.021170
     91      -0.252790   0.406072   0.518130  -0.101093  -0.009159   0.007577
     92       0.027942   0.060831   0.206814   0.279112   0.023909   0.007081
     93       0.050383   0.389567   0.321751  -0.267121  -0.018728  -0.032539
     94       0.023794  -0.193382  -0.215445   0.055274   0.004807   0.009071
     95       0.209184  -0.210161  -0.291729   0.021951   0.002541  -0.015309
     96       0.341254  -0.207590  -0.473839  -0.233581  -0.015611  -0.039958
     97       0.026676  -0.189058  -0.208850   0.053119   0.004672   0.009113
     98       0.025665   0.142415   0.171651   0.000760  -0.000080  -0.011838
                 24         25         26         27         28         29    
      0       0.062075   0.021076   0.021829   0.017112  -0.008537  -0.133381
      1      -0.015451  -0.022996  -0.063381   0.109303   0.014869  -0.009087
      2      -0.050804  -0.006700   0.003874  -0.055567   0.052732  -0.035155
      3       0.047274   0.021574   0.029394   0.021350   0.001838  -0.061206
      4      -0.023807   0.000562   0.021507  -0.018633   0.013520   0.067425
[...]
     17       0.001781  -0.000012  -0.000009
     18      -0.009117   0.000078  -0.000060
     19       0.012508  -0.000387   0.000011
     20       0.033718  -0.001104   0.000127
     21      -0.652311  -0.000276  -0.000621
     22      -0.212209  -0.000005  -0.000036
     23      -0.644621  -0.000854  -0.001106
     24       0.115502  -0.000003  -0.000128
     25      -0.010515  -0.000024  -0.000002
     26      -0.026236  -0.000103  -0.000038
     27      -0.000081   0.000024   0.000145
     28      -0.000020   0.000034  -0.000136
     29      -0.000334  -0.000114  -0.000032
     30      -0.000062   0.004238  -0.015286
     31      -0.000027  -0.001658   0.005361
     32       0.000866   0.000067   0.003440
     33      -0.000022  -0.000016   0.000007
     34      -0.000064  -0.000006  -0.000162
     35      -0.000014  -0.000074   0.000105
     36       0.000187  -0.000703   0.002208
     37       0.000529  -0.000680   0.001646
     38      -0.000028  -0.000151  -0.001112
     39       0.000492   0.000014   0.000160
     40      -0.000627   0.000724  -0.000448
     41      -0.000584   0.000616  -0.000770
     42      -0.003363  -0.001478  -0.004517
     43      -0.001160  -0.000205   0.001414
     44      -0.000806   0.000788   0.003942
     45       0.000172  -0.023473  -0.043981
     46       0.000027   0.011396   0.021430
     47      -0.000106   0.013138   0.024840
     48       0.000123  -0.845068   0.444971
     49       0.000233   0.172838  -0.090242
     50       0.000043  -0.188993   0.100763
     51       0.000071   0.000106  -0.000344
     52       0.001152  -0.000056   0.000059
     53       0.001831   0.000065  -0.000003
     54       0.004053   0.000275   0.000394
     55      -0.012035   0.000228  -0.000645
     56      -0.018575   0.000162  -0.000679
     57      -0.000016   0.052946  -0.027600
     58      -0.000052  -0.010804   0.005580
     59       0.000001   0.011952  -0.006317
     60      -0.001465   0.374124   0.708601
     61      -0.000019  -0.180396  -0.342727
     62       0.000419  -0.209315  -0.399948
     63      -0.000001  -0.000001   0.000022
     64      -0.000042  -0.000005  -0.000046
     65      -0.000000   0.000002  -0.000033
     66       0.000022   0.000020  -0.000132
     67       0.000014   0.000040   0.000426
     68       0.000082   0.000191   0.000680
     69       0.000077   0.000054  -0.000165
     70       0.000465  -0.000081   0.000349
     71      -0.000109   0.000126  -0.000258
     72       0.044013   0.000083  -0.000033
     73       0.015851  -0.000002  -0.000035
     74       0.042914  -0.000035  -0.000041
     75       0.079233   0.000017  -0.000016
     76      -0.096228  -0.000065  -0.000103
     77      -0.266935  -0.000084  -0.000091
     78       0.000033   0.000002  -0.000000
     79      -0.000015   0.000008  -0.000036
     80      -0.000077  -0.000002   0.000022
     81      -0.000158  -0.000039   0.000285
     82      -0.000430  -0.000084   0.000455
     83       0.000140   0.000029  -0.000179
     84      -0.000109  -0.000007  -0.000033
     85       0.000656   0.000070  -0.000089
     86       0.000812   0.000079  -0.000133
     87       0.000026  -0.000001   0.000001
     88      -0.000020   0.000010  -0.000014
     89      -0.000017   0.000002   0.000019
     90      -0.000387   0.000054  -0.000159
     91       0.000045  -0.000003   0.000046
     92       0.000116   0.000012  -0.000038
     93       0.000058  -0.000000  -0.000004
     94       0.000154  -0.000022   0.000158
     95      -0.000043   0.000033  -0.000095
     96       0.000019   0.000000  -0.000018
     97       0.000058   0.000014   0.000015
     98       0.000099   0.000029   0.000004


-----------
IR SPECTRUM  
-----------

 Mode    freq (cm**-1)   T**2         TX         TY         TZ
-------------------------------------------------------------------
   7:        36.04    0.000000  (  0.000000   0.000000   0.000000)
   8:        59.81    0.000000  (  0.000000   0.000000   0.000000)
   9:        60.21    0.000000  (  0.000000   0.000000   0.000000)
  10:        83.15    0.000000  (  0.000000   0.000000   0.000000)
  11:        89.64    0.000000  (  0.000000   0.000000   0.000000)
  12:       104.09    0.000000  (  0.000000   0.000000   0.000000)
  13:       121.54    0.000000  (  0.000000   0.000000   0.000000)
  14:       134.02    0.000000  (  0.000000   0.000000   0.000000)
  15:       150.56    0.000000  (  0.000000   0.000000   0.000000)
  16:       173.96    0.000000  (  0.000000   0.000000   0.000000)
  17:       212.71    0.000000  (  0.000000   0.000000   0.000000)
  18:       263.28    0.000000  (  0.000000   0.000000   0.000000)
  19:       272.78    0.000000  (  0.000000   0.000000   0.000000)
  20:       275.18    0.000000  (  0.000000   0.000000   0.000000)
  21:       324.89    0.000000  (  0.000000   0.000000   0.000000)
  22:       374.41    0.000000  (  0.000000   0.000000   0.000000)
  23:       402.22    0.000000  (  0.000000   0.000000   0.000000)
  24:       426.90    0.000000  (  0.000000   0.000000   0.000000)
  25:       452.38    0.000000  (  0.000000   0.000000   0.000000)
  26:       470.23    0.000000  (  0.000000   0.000000   0.000000)
  27:       495.21    0.000000  (  0.000000   0.000000   0.000000)
  28:       534.53    0.000000  (  0.000000   0.000000   0.000000)
  29:       586.34    0.000000  (  0.000000   0.000000   0.000000)
  30:       590.68    0.000000  (  0.000000   0.000000   0.000000)
  31:       612.50    0.000000  (  0.000000   0.000000   0.000000)
  32:       625.56    0.000000  (  0.000000   0.000000   0.000000)
  33:       662.79    0.000000  (  0.000000   0.000000   0.000000)
  34:       749.09    0.000000  (  0.000000   0.000000   0.000000)
  35:       778.11    0.000000  (  0.000000   0.000000   0.000000)
  36:       793.69    0.000000  (  0.000000   0.000000   0.000000)
  37:       815.17    0.000000  (  0.000000   0.000000   0.000000)
  38:       824.72    0.000000  (  0.000000   0.000000   0.000000)
  39:       859.02    0.000000  (  0.000000   0.000000   0.000000)
  40:       868.36    0.000000  (  0.000000   0.000000   0.000000)
  41:       907.42    0.000000  (  0.000000   0.000000   0.000000)
  42:       927.17    0.000000  (  0.000000   0.000000   0.000000)
  43:       934.25    0.000000  (  0.000000   0.000000   0.000000)
  44:       938.39    0.000000  (  0.000000   0.000000   0.000000)
  45:       946.31    0.000000  (  0.000000   0.000000   0.000000)
  46:       949.22    0.000000  (  0.000000   0.000000   0.000000)
  47:       985.64    0.000000  (  0.000000   0.000000   0.000000)
  48:      1035.89    0.000000  (  0.000000   0.000000   0.000000)
  49:      1069.65    0.000000  (  0.000000   0.000000   0.000000)
  50:      1079.49    0.000000  (  0.000000   0.000000   0.000000)
  51:      1106.12    0.000000  (  0.000000   0.000000   0.000000)
  52:      1116.33    0.000000  (  0.000000   0.000000   0.000000)
  53:      1128.74    0.000000  (  0.000000   0.000000   0.000000)
  54:      1132.92    0.000000  (  0.000000   0.000000   0.000000)
  55:      1179.49    0.000000  (  0.000000   0.000000   0.000000)
  56:      1184.23    0.000000  (  0.000000   0.000000   0.000000)
  57:      1206.94    0.000000  (  0.000000   0.000000   0.000000)
  58:      1218.18    0.000000  (  0.000000   0.000000   0.000000)
  59:      1238.35    0.000000  (  0.000000   0.000000   0.000000)
  60:      1254.64    0.000000  (  0.000000   0.000000   0.000000)
  61:      1259.48    0.000000  (  0.000000   0.000000   0.000000)
  62:      1276.64    0.000000  (  0.000000   0.000000   0.000000)
  63:      1277.32    0.000000  (  0.000000   0.000000   0.000000)
  64:      1296.98    0.000000  (  0.000000   0.000000   0.000000)
  65:      1308.75    0.000000  (  0.000000   0.000000   0.000000)
  66:      1339.80    0.000000  (  0.000000   0.000000   0.000000)
  67:      1349.27    0.000000  (  0.000000   0.000000   0.000000)
  68:      1370.23    0.000000  (  0.000000   0.000000   0.000000)
  69:      1419.93    0.000000  (  0.000000   0.000000   0.000000)
  70:      1427.83    0.000000  (  0.000000   0.000000   0.000000)
  71:      1450.55    0.000000  (  0.000000   0.000000   0.000000)
  72:      1452.18    0.000000  (  0.000000   0.000000   0.000000)
  73:      1500.12    0.000000  (  0.000000   0.000000   0.000000)
  74:      1502.08    0.000000  (  0.000000   0.000000   0.000000)
  75:      1506.76    0.000000  (  0.000000   0.000000   0.000000)
  76:      1510.21    0.000000  (  0.000000   0.000000   0.000000)
  77:      1551.52    0.000000  (  0.000000   0.000000   0.000000)
  78:      1559.29    0.000000  (  0.000000   0.000000   0.000000)
  79:      1564.99    0.000000  (  0.000000   0.000000   0.000000)
  80:      1607.43    0.000000  (  0.000000   0.000000   0.000000)
  81:      2716.76    0.000000  (  0.000000   0.000000   0.000000)
  82:      2946.90    0.000000  (  0.000000   0.000000   0.000000)
  83:      2959.64    0.000000  (  0.000000   0.000000   0.000000)
  84:      2969.87    0.000000  (  0.000000   0.000000   0.000000)
  85:      2970.60    0.000000  (  0.000000   0.000000   0.000000)
  86:      2978.61    0.000000  (  0.000000   0.000000   0.000000)
  87:      2982.96    0.000000  (  0.000000   0.000000   0.000000)
  88:      2989.56    0.000000  (  0.000000   0.000000   0.000000)
  89:      3001.38    0.000000  (  0.000000   0.000000   0.000000)
  90:      3007.14    0.000000  (  0.000000   0.000000   0.000000)
  91:      3060.86    0.000000  (  0.000000   0.000000   0.000000)
  92:      3062.66    0.000000  (  0.000000   0.000000   0.000000)
  93:      3064.85    0.000000  (  0.000000   0.000000   0.000000)
  94:      3071.17    0.000000  (  0.000000   0.000000   0.000000)
  95:      3078.47    0.000000  (  0.000000   0.000000   0.000000)
  96:      3089.43    0.000000  (  0.000000   0.000000   0.000000)
  97:      3614.34    0.000000  (  0.000000   0.000000   0.000000)
  98:      3619.45    0.000000  (  0.000000   0.000000   0.000000)

The first frequency considered to be a vibration is 7
The total number of vibrations considered is 92


--------------------------
THERMOCHEMISTRY AT 298.15K
--------------------------

Temperature         ... 298.15 K
Pressure            ... 1.00 atm
Total Mass          ... 197.28 AMU

Throughout the following assumptions are being made:
  (1) The electronic state is orbitally nondegenerate
  (2) There are no thermally accessible electronically excited states
  (3) Hindered rotations indicated by low frequency modes are not
      treated as such but are treated as vibrations and this may
      cause some error
  (4) All equations used are the standard statistical mechanics
      equations for an ideal gas
  (5) All vibrations are strictly harmonic

freq.      36.04  E(vib)   ...       0.54 
freq.      59.81  E(vib)   ...       0.51 
freq.      60.21  E(vib)   ...       0.51 
freq.      83.15  E(vib)   ...       0.48 
freq.      89.64  E(vib)   ...       0.47 
freq.     104.09  E(vib)   ...       0.46 
freq.     121.54  E(vib)   ...       0.44 
freq.     134.02  E(vib)   ...       0.42 
freq.     150.56  E(vib)   ...       0.40 
freq.     173.96  E(vib)   ...       0.38 
freq.     212.71  E(vib)   ...       0.34 
freq.     263.28  E(vib)   ...       0.29 
freq.     272.78  E(vib)   ...       0.29 
freq.     275.18  E(vib)   ...       0.28 
freq.     324.89  E(vib)   ...       0.24 
freq.     374.41  E(vib)   ...       0.21 
freq.     402.22  E(vib)   ...       0.19 
freq.     426.90  E(vib)   ...       0.18 
freq.     452.38  E(vib)   ...       0.16 
freq.     470.23  E(vib)   ...       0.16 
freq.     495.21  E(vib)   ...       0.14 
freq.     534.53  E(vib)   ...       0.13 
freq.     586.34  E(vib)   ...       0.11 
freq.     590.68  E(vib)   ...       0.10 
freq.     612.50  E(vib)   ...       0.10 
freq.     625.56  E(vib)   ...       0.09 
freq.     662.79  E(vib)   ...       0.08 
freq.     749.09  E(vib)   ...       0.06 
freq.     778.11  E(vib)   ...       0.05 
freq.     793.69  E(vib)   ...       0.05 
freq.     815.17  E(vib)   ...       0.05 
freq.     824.72  E(vib)   ...       0.04 
freq.     859.02  E(vib)   ...       0.04 
freq.     868.36  E(vib)   ...       0.04 
freq.     907.42  E(vib)   ...       0.03 
freq.     927.17  E(vib)   ...       0.03 
freq.     934.25  E(vib)   ...       0.03 
freq.     938.39  E(vib)   ...       0.03 
freq.     946.31  E(vib)   ...       0.03 
freq.     949.22  E(vib)   ...       0.03 
freq.     985.64  E(vib)   ...       0.02 
freq.    1035.89  E(vib)   ...       0.02 
freq.    1069.65  E(vib)   ...       0.02 
freq.    1079.49  E(vib)   ...       0.02 
freq.    1106.12  E(vib)   ...       0.02 
freq.    1116.33  E(vib)   ...       0.01 
freq.    1128.74  E(vib)   ...       0.01 
freq.    1132.92  E(vib)   ...       0.01 
freq.    1179.49  E(vib)   ...       0.01 
freq.    1184.23  E(vib)   ...       0.01 
freq.    1206.94  E(vib)   ...       0.01 
freq.    1218.18  E(vib)   ...       0.01 
freq.    1238.35  E(vib)   ...       0.01 
freq.    1254.64  E(vib)   ...       0.01 
freq.    1259.48  E(vib)   ...       0.01 
freq.    1276.64  E(vib)   ...       0.01 
freq.    1277.32  E(vib)   ...       0.01 
freq.    1296.98  E(vib)   ...       0.01 
freq.    1308.75  E(vib)   ...       0.01 
freq.    1339.80  E(vib)   ...       0.01 
freq.    1349.27  E(vib)   ...       0.01 
freq.    1370.23  E(vib)   ...       0.01 
freq.    1419.93  E(vib)   ...       0.00 
freq.    1427.83  E(vib)   ...       0.00 
freq.    1450.55  E(vib)   ...       0.00 
freq.    1452.18  E(vib)   ...       0.00 
freq.    1500.12  E(vib)   ...       0.00 
freq.    1502.08  E(vib)   ...       0.00 
freq.    1506.76  E(vib)   ...       0.00 
freq.    1510.21  E(vib)   ...       0.00 
freq.    1551.52  E(vib)   ...       0.00 
freq.    1559.29  E(vib)   ...       0.00 
freq.    1564.99  E(vib)   ...       0.00 
freq.    1607.43  E(vib)   ...       0.00 
freq.    2716.76  E(vib)   ...       0.00 
freq.    2946.90  E(vib)   ...       0.00 
freq.    2959.64  E(vib)   ...       0.00 
freq.    2969.87  E(vib)   ...       0.00 
freq.    2970.60  E(vib)   ...       0.00 
freq.    2978.61  E(vib)   ...       0.00 
freq.    2982.96  E(vib)   ...       0.00 
freq.    2989.56  E(vib)   ...       0.00 
freq.    3001.38  E(vib)   ...       0.00 
freq.    3007.14  E(vib)   ...       0.00 
freq.    3060.86  E(vib)   ...       0.00 
freq.    3062.66  E(vib)   ...       0.00 
freq.    3064.85  E(vib)   ...       0.00 
freq.    3071.17  E(vib)   ...       0.00 
freq.    3078.47  E(vib)   ...       0.00 
freq.    3089.43  E(vib)   ...       0.00 
freq.    3614.34  E(vib)   ...       0.00 
freq.    3619.45  E(vib)   ...       0.00 

------------
INNER ENERGY
------------

The inner energy is: U= E(el) + E(ZPE) + E(vib) + E(rot) + E(trans)
    E(el)   - is the total energy from the electronic structure calculation
              = E(kin-el) + E(nuc-el) + E(el-el) + E(nuc-nuc)
    E(ZPE)  - the the zero temperature vibrational energy from the frequency calculation
    E(vib)  - the the finite temperature correction to E(ZPE) due to population
              of excited vibrational states
    E(rot)  - is the rotational thermal energy
    E(trans)- is the translational thermal energy

Summary of contributions to the inner energy U:
Electronic energy                ...    -44.24304756 Eh
Zero point energy                ...      0.27233025 Eh     170.89 kcal/mol
Thermal vibrational correction   ...      0.01355789 Eh       8.51 kcal/mol
Thermal rotational correction    ...      0.00141627 Eh       0.89 kcal/mol
Thermal translational correction ...      0.00141627 Eh       0.89 kcal/mol
-----------------------------------------------------------------------
Total thermal energy                    -43.95432687 Eh


Summary of corrections to the electronic energy:
(perhaps to be used in another calculation)
Total thermal correction                  0.01639044 Eh      10.29 kcal/mol
Non-thermal (ZPE) correction              0.27233025 Eh     170.89 kcal/mol
-----------------------------------------------------------------------
Total correction                          0.28872069 Eh     181.17 kcal/mol


--------
ENTHALPY
--------

The enthalpy is H = U + kB*T
                kB is Boltzmann's constant
Total free energy                 ...    -43.95432687 Eh 
Thermal Enthalpy correction       ...      0.00094421 Eh       0.59 kcal/mol
-----------------------------------------------------------------------
Total Enthalpy                    ...    -43.95338266 Eh


Note: Only C1 symmetry has been detected, increase convergence thresholds 
      if your molecule has a higher symmetry. Symmetry factor of 1.0 is   
      used for the rotational entropy correction. 
 

Note: Rotational entropy computed according to Herzberg 
Infrared and Raman Spectra, Chapter V,1, Van Nostrand Reinhold, 1945 
Point Group:  C1, Symmetry Number:   1  
Rotational constants in cm-1:     0.042688     0.008789     0.008508 

Vibrational entropy computed according to the QRRHO of S. Grimme
Chem.Eur.J. 2012 18 9955


-------
ENTROPY
-------

The entropy contributions are T*S = T*(S(el)+S(vib)+S(rot)+S(trans))
     S(el)   - electronic entropy
     S(vib)  - vibrational entropy
     S(rot)  - rotational entropy
     S(trans)- translational entropy
The entropies will be listed as mutliplied by the temperature to get
units of energy

Electronic entropy                ...      0.00000000 Eh      0.00 kcal/mol
Vibrational entropy               ...      0.02398079 Eh     15.05 kcal/mol
Rotational entropy                ...      0.01548500 Eh      9.72 kcal/mol
Translational entropy             ...      0.01983352 Eh     12.45 kcal/mol
-----------------------------------------------------------------------
Final entropy term                ...      0.05929931 Eh     37.21 kcal/mol

In case the symmetry of your molecule has not been determined correctly
or in case you have a reason to use a different symmetry number we print 
out the resulting rotational entropy values for sn=1,12 :
 --------------------------------------------------------
|  sn= 1 | S(rot)=       0.01548500 Eh      9.72 kcal/mol|
|  sn= 2 | S(rot)=       0.01483054 Eh      9.31 kcal/mol|
|  sn= 3 | S(rot)=       0.01444771 Eh      9.07 kcal/mol|
|  sn= 4 | S(rot)=       0.01417608 Eh      8.90 kcal/mol|
|  sn= 5 | S(rot)=       0.01396540 Eh      8.76 kcal/mol|
|  sn= 6 | S(rot)=       0.01379325 Eh      8.66 kcal/mol|
|  sn= 7 | S(rot)=       0.01364771 Eh      8.56 kcal/mol|
|  sn= 8 | S(rot)=       0.01352163 Eh      8.48 kcal/mol|
|  sn= 9 | S(rot)=       0.01341042 Eh      8.42 kcal/mol|
|  sn=10 | S(rot)=       0.01331094 Eh      8.35 kcal/mol|
|  sn=11 | S(rot)=       0.01322095 Eh      8.30 kcal/mol|
|  sn=12 | S(rot)=       0.01313879 Eh      8.24 kcal/mol|
 --------------------------------------------------------


-------------------
GIBBS FREE ENERGY
-------------------

The Gibbs free energy is G = H - T*S

Total enthalpy                    ...    -43.95338266 Eh 
Total entropy correction          ...     -0.05929931 Eh    -37.21 kcal/mol
-----------------------------------------------------------------------
Final Gibbs free energy         ...    -44.01268196 Eh

For completeness - the Gibbs free energy minus the electronic energy
G-E(el)                           ...      0.23036559 Eh    144.56 kcal/mol


Total Time for Numerical Frequencies  :       214.472 sec
Time for Reference State(s)           :         0.418 sec
Time for Displacements                :       191.827 sec

Timings for individual modules:

Sum of individual times         ...        0.817 sec (=   0.014 min)
XTB module                      ...        0.817 sec (=   0.014 min) 100.0 %
                             ****ORCA TERMINATED NORMALLY****
TOTAL RUN TIME: 0 days 0 hours 3 minutes 35 seconds 987 msec
(SLURM) EXECUTION TIME: 216.058529602 seconds.
