(SLURM) JOB ID:         122

                                 *****************
                                 * O   R   C   A *
                                 *****************

           --- An Ab Initio, DFT and Semiempirical electronic structure package ---

                  #######################################################
                  #                        -***-                        #
                  #          Department of theory and spectroscopy      #
                  #               Directorship: Frank Neese             #
                  #        Max Planck Institute fuer Kohlenforschung    #
                  #                Kaiser Wilhelm Platz 1               #
                  #                 D-45470 Muelheim/Ruhr               #
                  #                      Germany                        #
                  #                                                     #
                  #                  All rights reserved                #
                  #                        -***-                        #
                  #######################################################


                         Program Version 4.2.1 -  RELEASE  -


 With contributions from (in alphabetic order):
   Daniel Aravena         : Magnetic Suceptibility
   Michael Atanasov       : Ab Initio Ligand Field Theory (pilot matlab implementation)
   Alexander A. Auer      : GIAO ZORA, VPT2
   Ute Becker             : Parallelization
   Giovanni Bistoni       : ED, misc. LED, open-shell LED, HFLD
   Martin Brehm           : Molecular dynamics
   Dmytro Bykov           : SCF Hessian
   Vijay G. Chilkuri      : MRCI spin determinant printing, contributions to CSF-ICE
   Dipayan Datta          : RHF DLPNO-CCSD density
   Achintya Kumar Dutta   : EOM-CC, STEOM-CC
   Dmitry Ganyushin       : Spin-Orbit,Spin-Spin,Magnetic field MRCI
   Miquel Garcia          : C-PCM Hessian, Gaussian charge scheme
   Yang Guo               : DLPNO-NEVPT2, CIM, IAO-localization
   Andreas Hansen         : Spin unrestricted coupled pair/coupled cluster methods
   Benjamin Helmich-Paris : CASSCF linear response (MC-RPA)
   Lee Huntington         : MR-EOM, pCC
   Robert Izsak           : Overlap fitted RIJCOSX, COSX-SCS-MP3, EOM
   Christian Kollmar      : KDIIS, OOCD, Brueckner-CCSD(T), CCSD density
   Simone Kossmann        : Meta GGA functionals, TD-DFT gradient, OOMP2, MP2 Hessian
   Martin Krupicka        : AUTO-CI
   Lucas Lang             : DCDCAS
   Dagmar Lenk            : GEPOL surface, SMD
   Dimitrios Liakos       : Extrapolation schemes; Compound Job, initial MDCI parallelization
   Dimitrios Manganas     : Further ROCIS development; embedding schemes
   Dimitrios Pantazis     : SARC Basis sets
   Taras Petrenko         : DFT Hessian,TD-DFT gradient, ASA, ECA, R-Raman, ABS, FL, XAS/XES, NRVS
   Peter Pinski           : DLPNO-MP2, DLPNO-MP2 Gradient
   Christoph Reimann      : Effective Core Potentials
   Marius Retegan         : Local ZFS, SOC
   Christoph Riplinger    : Optimizer, TS searches, QM/MM, DLPNO-CCSD(T), (RO)-DLPNO pert. Triples
   Tobias Risthaus        : Range-separated hybrids, TD-DFT gradient, RPA, STAB
   Michael Roemelt        : Original ROCIS implementation
   Masaaki Saitow         : Open-shell DLPNO-CCSD energy and density
   Barbara Sandhoefer     : DKH picture change effects
   Avijit Sen             : IP-ROCIS
   Kantharuban Sivalingam : CASSCF convergence, NEVPT2, FIC-MRCI
   Bernardo de Souza      : ESD, SOC TD-DFT
   Georgi Stoychev        : AutoAux, RI-MP2 NMR
   Willem Van den Heuvel  : Paramagnetic NMR
   Boris Wezisla          : Elementary symmetry handling
   Frank Wennmohs         : Technical directorship


 We gratefully acknowledge several colleagues who have allowed us to
 interface, adapt or use parts of their codes:
   Stefan Grimme, W. Hujo, H. Kruse,             : VdW corrections, initial TS optimization,
                  C. Bannwarth                     DFT functionals, gCP, sTDA/sTD-DF
   Ed Valeev, F. Pavosevic, A. Kumar             : LibInt (2-el integral package), F12 methods
   Garnet Chan, S. Sharma, J. Yang, R. Olivares  : DMRG
   Ulf Ekstrom                                   : XCFun DFT Library
   Mihaly Kallay                                 : mrcc  (arbitrary order and MRCC methods)
   Andreas Klamt, Michael Diedenhofen            : otool_cosmo (COSMO solvation model)
   Jiri Pittner, Ondrej Demel                    : Mk-CCSD
   Frank Weinhold                                : gennbo (NPA and NBO analysis)
   Christopher J. Cramer and Donald G. Truhlar   : smd solvation model
   Lars Goerigk                                  : TD-DFT with DH, B97 family of functionals
   V. Asgeirsson, H. Jonsson                     : NEB implementation
   FAccTs GmbH                                   : IRC, NEB, NEB-TS, Multilevel, MM, QM/MM, CI optimization
   S Lehtola, MJT Oliveira, MAL Marques          : LibXC Library


 Your calculation uses the libint2 library for the computation of 2-el integrals
 For citations please refer to: http://libint.valeyev.net

 Your ORCA version has been built with support for libXC version: 4.2.3
 For citations please refer to: https://tddft.org/programs/libxc/

 This ORCA versions uses:
   CBLAS   interface :  Fast vector & matrix operations
   LAPACKE interface :  Fast linear algebra routines
   SCALAPACK package :  Parallel linear algebra routines




***************************************
The coordinates will be read from file: init.xyz
***************************************


Your calculation utilizes the SMD solvation module
Please cite in your paper:
A.V. Marenich, C.J. Cramer, D.G. Truhlar J. Phys. Chem. B, 113, (2009), 6378 

Your calculation utilizes the semiempirical GFN2-xTB method
Please cite in your paper:
C. Bannwarth, Ehlert S., S. Grimme,  J. Chem. Theory Comput., 15, (2019), 1652.
   

----- Orbital basis set information -----
Your calculation utilizes the basis: def2-SVP
   F. Weigend and R. Ahlrichs, Phys. Chem. Chem. Phys. 7, 3297 (2005).

================================================================================
                                        WARNINGS
                       Please study these warnings very carefully!
================================================================================

WARNING: Gradients needed for Numerical Frequencies
  ===> : Setting RunTyp to EnGrad

WARNING: The environment variable RSH_COMMAND is not set!
  ===> : All Displacements for the Numerical Hessian calculation
         will be started on localhost

WARNING: Found dipole moment calculation with XTB calculation
  ===> : Switching off dipole moment calculation


INFO   : the flag for use of LIBINT has been found!

================================================================================
                                       INPUT FILE
================================================================================
NAME = /tmp/slurm-scratch/freq.122/freq.inp
|  1> ! XTB2 NumFreq
|  2> %maxcore 1450
|  3> 
|  4> * xyzfile 0 1 init.xyz
|  5> 
|  6> %cpcm
|  7>  smd true
|  8>  smdsolvent "ch2cl2"
|  9> end
| 10> %pal nprocs 8 end
| 11> 
| 12>                          ****END OF INPUT****
================================================================================

                     *******************************
                     * Energy+Gradient Calculation *
                     *******************************

      -----------------------------------------------------------      
     |                   =====================                   |     
     |                           x T B                           |     
     |                   =====================                   |     
     |                         S. Grimme                         |     
     |          Mulliken Center for Theoretical Chemistry        |     
     |                    University of Bonn                     |     
      -----------------------------------------------------------      

   * xtb version 6.3.0 (preview) compiled by 'ehlert@majestix' on 2020-01-15

   This program is distributed in the hope that it will be useful,
   but WITHOUT ANY WARRANTY; without even the implied warranty of
   MERCHANTABILITY or FITNESS FOR A PARTICULAR PURPOSE.
   
   FOR NON-COMMERCIAL, ACADEMIA USE ONLY.
   
   Cite this work as:
   * S. Grimme, C. Bannwarth, P. Shushkov, J. Chem. Theory Comput., 2017,
     13, 1989-2009. DOI: 10.1021/acs.jctc.7b00118
   * C. Bannwarth, S. Ehlert and S. Grimme., J. Chem. Theory Comput., 2019,
     15, 1652-1671. DOI: 10.1021/acs.jctc.8b01176
   * P. Pracht, E. Caldeweyher, S. Ehlert, S. Grimme, ChemRxiv, 2019, preprint.
     DOI: 10.26434/chemrxiv.8326202.v1
   * S. Grimme, S. Spicher unpublished
   
   for DFT-D4:
   * E. Caldeweyher, C. Bannwarth and S. Grimme, J. Chem. Phys., 2017,
     147, 034112. DOI: 10.1063/1.4993215
   * E. Caldeweyher, S. Ehlert, A. Hansen, H. Neugebauer, S. Spicher,
     C. Bannwarth and S. Grimme, J. Chem. Phys., 2019, 150, 154122.
     DOI: 10.1063/1.5090222
   
   for sTDA-xTB:
   * S. Grimme and C. Bannwarth, J. Chem. Phys., 2016, 145, 054103.
     DOI: 10.1063/1.4959605
   
   in the mass-spec context:
   * V. Asgeirsson, C. Bauer and S. Grimme, Chem. Sci., 2017, 8, 4879.
     DOI: 10.1039/c7sc00601b
   
   for metadynamics refer to:
   * S. Grimme, J. Chem. Theory Comput., 2019, 155, 2847-2862
     DOI: 10.1021/acs.jctc.9b00143
   
   with help from (in alphabetical order)
   C. Bannwarth, F. Bohle, G. Brandenburg, E. Caldeweyher, M. Checinski,
   S. Dohm, S. Ehlert, S. Ehrlich, F. März, H. Neugebauer, J. Pisarek,
   P. Pracht, P. Shushkov, and S. Spicher.
   
 * started run on 2020/08/22 at 12:25:25.082     

           -------------------------------------------------
          |                Calculation Setup                |
           -------------------------------------------------

          program call               : /opt/orca/otool_xtb /tmp/slurm-scratch/freq.122/freq_XTB.xyz --grad -c 0 -u 0 -P 8 --namespace /tmp/slurm-scratch/freq.122/freq --gbsa CH2Cl2
          hostname                   : headnode-pbs
          calculation namespace      : /tmp/slurm-scratch/freq.122/freq
          coordinate file            : /tmp/slurm-scratch/freq.122/freq_XTB.xyz
          omp threads                :                     8
          number of atoms            :                    30
          number of electrons        :                    72
          charge                     :                     0
          spin                       :                   0.0
          first test random number   :      0.45173950279032


molecular fragmentation (1/2 indicates fragments):
111111111111122112111111111111
# atoms in fragment 1/2:    27     3
 fragment masses (1/2) :      161.24       18.02
CMA distance (Bohr)    :   6.165
constraining FC (au)   :  0.0500

########################################################################
# WARNING! Please study the warnings concerning your input carefully
#  - Process number higher than OMP_NUM_THREADS, I hope you know what you are doing.
########################################################################

           ------------------------------------------------- 
          |                 G F N 2 - x T B                 |
          | Geometry, Frequencies, Noncovalent interactions |
          |            JCTC 2019 parametrisation            |
           ------------------------------------------------- 
             k(s)              :                1.8500
             k(p)              :                2.2300
             k(d)              :                2.2300
             k(f)              :                2.0000
             kEN (H0ij)        :               -2.0000
             D4 a1             :                0.5200
             D4 a2             :                5.0000
             D4 s6             :                1.0000
             D4 s8             :                2.7000
             D4 s9             :                5.0000
             alphaj            :                2.0000

  Z AO/shell   Hii/eV     exponent
  1     Wed Apr 25 08:07:45 CEST 2018   EN: 2.200 GM2: 0.406  GM3: 0.0800  RAES: 1.40
     1s    -10.707211    1.230000
  6     Wed Apr 25 08:07:45 CEST 2018   EN: 2.550 GM2: 0.538  GM3: 0.1500  RAES: 3.00
     2s    -13.970922    2.096432
     2p    -10.063292    1.800000
  7     Wed Apr 25 08:07:45 CEST 2018   EN: 3.040 GM2: 0.461  GM3:-0.0640  RAES: 1.90
     2s    -16.686243    2.339881
     2p    -12.523956    2.014332
  8     Wed Apr 25 08:07:45 CEST 2018   EN: 3.440 GM2: 0.452  GM3:-0.0517  RAES: 1.80
     2s    -20.229985    2.439742
     2p    -15.503117    2.137023

 Solvent             : CH2Cl2
 Using internal parameter file: .param_gbsa2_CH2Cl2
 Gsolv ref. state (COSMO-RS): gsolv [1 M gas/solution]
 temperature (mdtemp)       :    298.150000000000     
 dielectric constant        :    8.93000000000000     
 rho                        :    1.33000000000000     
 mass                       :    84.9300000000000     
 surface tension            :    15.5689454083859     
 probe radius               :   0.719875900000000     
 Gshift (Eh)                :   4.440829173451759E-003
 c1                         :    1.49173776000000     
 soset                      :   0.000000000000000E+000
 HB correction              :  F
           ------------------------------------------------- 
          |        Self-Consistent Charge Iterations        |
           ------------------------------------------------- 

          ...................................................
          :                      SETUP                      :
          :.................................................:
          :  # basis functions                  69          :
          :  # atomic orbitals                  69          :
          :  # shells                           43          :
          :  # electrons                        72          :
          :  max. iterations                   250          :
          :  Hamiltonian                  GFN2-xTB          :
          :  GBSA solvation                   true          :
          :  PC potential                    false          :
          :  electronic temp.          300.0000000     K    :
          :  accuracy                    1.0000000          :
          :  -> integral cutoff          0.2500000E+02      :
          :  -> integral neglect         0.1000000E-07      :
          :  -> SCF convergence          0.1000000E-05 Eh   :
          :  -> wf. convergence          0.1000000E-03 e    :
          :  Broyden damping             0.4000000          :
          ...................................................
  Checking positiv definite overlap ...  done.
 

 iter      E             dE          RMSdq      gap      omega  full diag
   1    -39.7346841 -0.397347E+02  0.400E+00    3.30       0.0  T
   2    -39.7704673 -0.357832E-01  0.244E+00    3.32       1.0  T
   3    -39.7646859  0.578146E-02  0.839E-01    2.94       1.0  T
   4    -39.7734403 -0.875447E-02  0.352E-01    3.11       1.0  T
   5    -39.7753294 -0.188903E-02  0.688E-02    3.05       1.0  T
   6    -39.7753421 -0.127471E-04  0.348E-02    3.06       1.0  T
   7    -39.7753493 -0.720955E-05  0.158E-02    3.06       1.2  T
   8    -39.7753510 -0.167570E-05  0.386E-03    3.06       4.7  T
   9    -39.7753511 -0.122927E-06  0.172E-03    3.06      10.6  T
  10    -39.7753511 -0.267481E-08  0.956E-04    3.06      19.1  T
  11    -39.7753511 -0.889587E-08  0.256E-04    3.06      71.3  T

   *** convergence criteria satisfied after 11 iterations ***

         #    Occupation            Energy/Eh            Energy/eV
      -------------------------------------------------------------
         1        2.0000           -0.6655211             -18.1098
       ...           ...                  ...                  ...
        30        2.0000           -0.4333657             -11.7925
        31        2.0000           -0.4308802             -11.7248
        32        2.0000           -0.4250871             -11.5672
        33        2.0000           -0.4229634             -11.5094
        34        2.0000           -0.4111439             -11.1878
        35        2.0000           -0.4032783             -10.9738
        36        2.0000           -0.3895913             -10.6013 (HOMO)
        37                         -0.2770398              -7.5386 (LUMO)
        38                         -0.2307406              -6.2788
        39                         -0.1937230              -5.2715
        40                         -0.0911625              -2.4807
        41                          0.0228263               0.6211
       ...                                ...                  ...
        69                          0.6503053              17.6957
      -------------------------------------------------------------
                  HL-Gap            0.1125515 Eh            3.0627 eV
             Fermi-level           -0.3333155 Eh           -9.0700 eV

 SCC (total)                   0 d,  0 h,  0 min,  0.052 sec
 SCC setup                      ...        0 min,  0.002 sec (  3.038%)
 Dispersion                     ...        0 min,  0.001 sec (  1.065%)
 integral evaluation            ...        0 min,  0.008 sec ( 15.206%)
 zeroth order Hamiltonian       ...        0 min,  0.000 sec (  0.043%)
 iterations                     ...        0 min,  0.032 sec ( 61.230%)
 molecular gradient             ...        0 min,  0.009 sec ( 18.205%)
 printout                       ...        0 min,  0.001 sec (  1.046%)

         :::::::::::::::::::::::::::::::::::::::::::::::::::::
         ::                     SUMMARY                     ::
         :::::::::::::::::::::::::::::::::::::::::::::::::::::
         :: total energy             -39.196271208814 Eh    ::
         :: total w/o Gsasa/hb       -39.179685651087 Eh    ::
         :: gradient norm              0.024067891153 Eh/a0 ::
         :: HOMO-LUMO gap              3.062682636140 eV    ::
         ::.................................................::
         :: SCC energy               -39.791936686034 Eh    ::
         :: -> isotropic ES            0.048653821472 Eh    ::
         :: -> anisotropic ES          0.000579754686 Eh    ::
         :: -> anisotropic XC          0.027424608731 Eh    ::
         :: -> dispersion             -0.022637120557 Eh    ::
         :: -> Gsolv                  -0.021170070037 Eh    ::
         ::    -> Gborn               -0.004584512310 Eh    ::
         ::    -> Gsasa               -0.021026386900 Eh    ::
         ::    -> Ghb                  0.000000000000 Eh    ::
         ::    -> Gshift               0.004440829173 Eh    ::
         :: repulsion energy           0.595735176828 Eh    ::
         :: add. restraining           0.000000000000 Eh    ::
         :::::::::::::::::::::::::::::::::::::::::::::::::::::

           -------------------------------------------------
          |                Property Printout                |
           -------------------------------------------------

    * Orbital Energies and Occupations

         #    Occupation            Energy/Eh            Energy/eV
      -------------------------------------------------------------
         1        2.0000           -0.6655211             -18.1098
       ...           ...                  ...                  ...
        24        2.0000           -0.4773594             -12.9896
        25        2.0000           -0.4743625             -12.9081
        26        2.0000           -0.4634852             -12.6121
        27        2.0000           -0.4474869             -12.1767
        28        2.0000           -0.4418206             -12.0225
        29        2.0000           -0.4388373             -11.9414
        30        2.0000           -0.4333657             -11.7925
        31        2.0000           -0.4308802             -11.7248
        32        2.0000           -0.4250871             -11.5672
        33        2.0000           -0.4229634             -11.5094
        34        2.0000           -0.4111439             -11.1878
        35        2.0000           -0.4032783             -10.9738
        36        2.0000           -0.3895913             -10.6013 (HOMO)
        37                         -0.2770398              -7.5386 (LUMO)
        38                         -0.2307406              -6.2788
        39                         -0.1937230              -5.2715
        40                         -0.0911625              -2.4807
        41                          0.0228263               0.6211
        42                          0.0822077               2.2370
        43                          0.0956246               2.6021
        44                          0.1002474               2.7279
        45                          0.1167169               3.1760
        46                          0.1211097               3.2956
        47                          0.1326281               3.6090
       ...                                ...                  ...
        69                          0.6503053              17.6957
      -------------------------------------------------------------
                  HL-Gap            0.1125515 Eh            3.0627 eV
             Fermi-level           -0.3333155 Eh           -9.0700 eV

     #   Z        covCN         q      C6AA      α(0)
     1   6 C      2.913    -0.028    28.711     8.786
     2   6 C      2.923    -0.029    28.734     8.791
     3   6 C      2.969     0.004    27.934     8.669
     4   6 C      2.917    -0.028    28.704     8.786
     5   6 C      2.914    -0.027    28.668     8.780
     6   6 C      2.916    -0.024    28.597     8.769
     7   1 H      0.925     0.038     2.481     2.463
     8   1 H      0.926     0.063     2.165     2.301
     9   1 H      0.925     0.044     2.403     2.424
    10   7 N      1.824    -0.265    27.719     7.801
    11   6 C      3.766     0.020    20.281     6.419
    12   1 H      0.924     0.012     2.858     2.644
    13   1 H      0.924     0.044     2.396     2.421
    14   1 H      0.802     0.310     0.693     1.308
    15   1 H      0.805     0.279     0.789     1.395
    16   6 C      2.857     0.079    26.228     8.394
    17   1 H      0.924     0.006     2.949     2.685
    18   8 O      1.607    -0.624    25.781     6.853
    19   6 C      3.802    -0.059    21.641     6.623
    20   1 H      0.924     0.033     2.539     2.492
    21   1 H      0.924     0.049     2.327     2.386
    22   6 C      3.800    -0.052    21.517     6.604
    23   1 H      0.924     0.033     2.539     2.492
    24   1 H      0.924     0.031     2.575     2.509
    25   1 H      0.925     0.042     2.427     2.436
    26   1 H      0.925     0.044     2.395     2.420
    27   6 C      3.750    -0.102    22.517     6.768
    28   1 H      0.924     0.037     2.483     2.464
    29   1 H      0.924     0.037     2.492     2.469
    30   1 H      0.924     0.035     2.518     2.481

 Mol. C6AA /au·bohr⁶  :       8342.895711
 Mol. C8AA /au·bohr⁸  :     189135.272173
 Mol. α(0) /au        :        141.833343


Wiberg/Mayer (AO) data.
largest (>0.10) Wiberg bond orders for each atom
          total WBO             WBO to atom ...
     1  C   3.991        C    2 1.452    C    6 1.436    H   25 0.970    C    4 0.106
     2  C   3.987        C    1 1.452    C    3 1.378    H    7 0.968    C    5 0.105
     3  C   3.988        C    2 1.378    C    4 1.365    C   16 1.087
     4  C   3.988        C    5 1.465    C    3 1.365    H    8 0.961    C    1 0.106
     5  C   3.991        C    4 1.465    C    6 1.423    H   26 0.970    C    2 0.105
     6  C   3.987        C    1 1.436    C    5 1.423    H    9 0.971
     7  H   0.999        C    2 0.968
     8  H   0.996        C    4 0.961
     9  H   0.998        C    6 0.971
    10  N   3.109        C   16 1.831    C   11 1.019
    11  C   3.983        N   10 1.019    C   19 0.987    H   12 0.966    H   13 0.959
    12  H   1.000        C   11 0.966
    13  H   0.995        C   11 0.959
    14  H   0.904        O   18 0.849
    15  H   0.922        O   18 0.922
    16  C   3.967        N   10 1.831    C    3 1.087    H   17 0.941
    17  H   1.000        C   16 0.941
    18  O   1.806        H   15 0.922    H   14 0.849
    19  C   3.990        C   22 1.006    C   11 0.987    H   20 0.977    H   21 0.975
    20  H   0.999        C   19 0.977
    21  H   0.998        C   19 0.975
    22  C   3.996        C   27 1.019    C   19 1.006    H   24 0.978    H   23 0.978
    23  H   0.999        C   22 0.978
    24  H   0.999        C   22 0.978
    25  H   0.998        C    1 0.970
    26  H   0.998        C    5 0.970
    27  C   3.995        C   22 1.019    H   30 0.988    H   29 0.988    H   28 0.987
    28  H   0.998        C   27 0.987
    29  H   0.999        C   27 0.988
    30  H   0.999        C   27 0.988

molecular dipole:
                 x           y           z       tot (Debye)
 q only:        0.376       0.772      -0.251
   full:        0.328       1.333      -0.394       3.631
molecular quadrupole (traceless):
                xx          xy          yy          xz          yz          zz
 q only:        7.647      -4.356      -8.002       1.300       2.597       0.355
  q+dip:        8.579      -7.685      -6.338       3.787       5.171      -2.241
   full:        7.348      -7.691      -8.616       2.983       4.107       1.268

           -------------------------------------------------
          |                Property Printout                |
           -------------------------------------------------

    * Orbital Energies and Occupations

         #    Occupation            Energy/Eh            Energy/eV
      -------------------------------------------------------------
         1        2.0000           -0.6655211             -18.1098
       ...           ...                  ...                  ...
        24        2.0000           -0.4773594             -12.9896
        25        2.0000           -0.4743625             -12.9081
        26        2.0000           -0.4634852             -12.6121
        27        2.0000           -0.4474869             -12.1767
        28        2.0000           -0.4418206             -12.0225
        29        2.0000           -0.4388373             -11.9414
        30        2.0000           -0.4333657             -11.7925
        31        2.0000           -0.4308802             -11.7248
        32        2.0000           -0.4250871             -11.5672
        33        2.0000           -0.4229634             -11.5094
        34        2.0000           -0.4111439             -11.1878
        35        2.0000           -0.4032783             -10.9738
        36        2.0000           -0.3895913             -10.6013 (HOMO)
        37                         -0.2770398              -7.5386 (LUMO)
        38                         -0.2307406              -6.2788
        39                         -0.1937230              -5.2715
        40                         -0.0911625              -2.4807
        41                          0.0228263               0.6211
        42                          0.0822077               2.2370
        43                          0.0956246               2.6021
        44                          0.1002474               2.7279
        45                          0.1167169               3.1760
        46                          0.1211097               3.2956
        47                          0.1326281               3.6090
       ...                                ...                  ...
        69                          0.6503053              17.6957
      -------------------------------------------------------------
                  HL-Gap            0.1125515 Eh            3.0627 eV
             Fermi-level           -0.3333155 Eh           -9.0700 eV

     #   Z        covCN         q      C6AA      α(0)
     1   6 C      2.913    -0.028    28.711     8.786
     2   6 C      2.923    -0.029    28.734     8.791
     3   6 C      2.969     0.004    27.934     8.669
     4   6 C      2.917    -0.028    28.704     8.786
     5   6 C      2.914    -0.027    28.668     8.780
     6   6 C      2.916    -0.024    28.597     8.769
     7   1 H      0.925     0.038     2.481     2.463
     8   1 H      0.926     0.063     2.165     2.301
     9   1 H      0.925     0.044     2.403     2.424
    10   7 N      1.824    -0.265    27.719     7.801
    11   6 C      3.766     0.020    20.281     6.419
    12   1 H      0.924     0.012     2.858     2.644
    13   1 H      0.924     0.044     2.396     2.421
    14   1 H      0.802     0.310     0.693     1.308
    15   1 H      0.805     0.279     0.789     1.395
    16   6 C      2.857     0.079    26.228     8.394
    17   1 H      0.924     0.006     2.949     2.685
    18   8 O      1.607    -0.624    25.781     6.853
    19   6 C      3.802    -0.059    21.641     6.623
    20   1 H      0.924     0.033     2.539     2.492
    21   1 H      0.924     0.049     2.327     2.386
    22   6 C      3.800    -0.052    21.517     6.604
    23   1 H      0.924     0.033     2.539     2.492
    24   1 H      0.924     0.031     2.575     2.509
    25   1 H      0.925     0.042     2.427     2.436
    26   1 H      0.925     0.044     2.395     2.420
    27   6 C      3.750    -0.102    22.517     6.768
    28   1 H      0.924     0.037     2.483     2.464
    29   1 H      0.924     0.037     2.492     2.469
    30   1 H      0.924     0.035     2.518     2.481

 Mol. C6AA /au·bohr⁶  :       8342.895711
 Mol. C8AA /au·bohr⁸  :     189135.272173
 Mol. α(0) /au        :        141.833343


Wiberg/Mayer (AO) data.
largest (>0.10) Wiberg bond orders for each atom
          total WBO             WBO to atom ...
     1  C   3.991        C    2 1.452    C    6 1.436    H   25 0.970    C    4 0.106
     2  C   3.987        C    1 1.452    C    3 1.378    H    7 0.968    C    5 0.105
     3  C   3.988        C    2 1.378    C    4 1.365    C   16 1.087
     4  C   3.988        C    5 1.465    C    3 1.365    H    8 0.961    C    1 0.106
     5  C   3.991        C    4 1.465    C    6 1.423    H   26 0.970    C    2 0.105
     6  C   3.987        C    1 1.436    C    5 1.423    H    9 0.971
     7  H   0.999        C    2 0.968
     8  H   0.996        C    4 0.961
     9  H   0.998        C    6 0.971
    10  N   3.109        C   16 1.831    C   11 1.019
    11  C   3.983        N   10 1.019    C   19 0.987    H   12 0.966    H   13 0.959
    12  H   1.000        C   11 0.966
    13  H   0.995        C   11 0.959
    14  H   0.904        O   18 0.849
    15  H   0.922        O   18 0.922
    16  C   3.967        N   10 1.831    C    3 1.087    H   17 0.941
    17  H   1.000        C   16 0.941
    18  O   1.806        H   15 0.922    H   14 0.849
    19  C   3.990        C   22 1.006    C   11 0.987    H   20 0.977    H   21 0.975
    20  H   0.999        C   19 0.977
    21  H   0.998        C   19 0.975
    22  C   3.996        C   27 1.019    C   19 1.006    H   24 0.978    H   23 0.978
    23  H   0.999        C   22 0.978
    24  H   0.999        C   22 0.978
    25  H   0.998        C    1 0.970
    26  H   0.998        C    5 0.970
    27  C   3.995        C   22 1.019    H   30 0.988    H   29 0.988    H   28 0.987
    28  H   0.998        C   27 0.987
    29  H   0.999        C   27 0.988
    30  H   0.999        C   27 0.988

molecular dipole:
                 x           y           z       tot (Debye)
 q only:        0.376       0.772      -0.251
   full:        0.328       1.333      -0.394       3.631
molecular quadrupole (traceless):
                xx          xy          yy          xz          yz          zz
 q only:        7.647      -4.356      -8.002       1.300       2.597       0.355
  q+dip:        8.579      -7.685      -6.338       3.787       5.171      -2.241
   full:        7.348      -7.691      -8.616       2.983       4.107       1.268


           -------------------------------------------------
          | TOTAL ENERGY              -39.196271208814 Eh   |
          | GRADIENT NORM               0.024067891153 Eh/α |
          | HOMO-LUMO GAP               3.062682636140 eV   |
           -------------------------------------------------

------------------------------------------------------------------------
 * finished run on 2020/08/22 at 12:25:25.198     
------------------------------------------------------------------------
 total:
 * wall-time:     0 d,  0 h,  0 min,  0.116 sec
 *  cpu-time:     0 d,  0 h,  0 min,  0.757 sec
 * ratio c/w:     6.501 speedup
 SCF:
 * wall-time:     0 d,  0 h,  0 min,  0.052 sec
 *  cpu-time:     0 d,  0 h,  0 min,  0.327 sec
 * ratio c/w:     6.272 speedup


-------------------------   --------------------
FINAL SINGLE POINT ENERGY       -39.196271208810
-------------------------   --------------------


----------------------------------------------------------------------------
                           ORCA NUMERICAL FREQUENCIES
                              (8-process run)
----------------------------------------------------------------------------

Number of atoms                ... 30
Central differences            ... used
Number of displacements        ... 180
Numerical increment            ... 5.000e-03 bohr
IR-spectrum generation         ... on
Raman-spectrum generation      ... off
Surface Crossing Hessian       ... off
List of participating nodes    ...  /tmp/slurm-scratch/freq.122/freq.hostnames

The output will be reduced. Please look at the following files:
SCF program output             ... >/tmp/slurm-scratch/freq.122/freq.lastscf
Integral program output        ... >/tmp/slurm-scratch/freq.122/freq.lastint
Gradient program output        ... >/tmp/slurm-scratch/freq.122/freq.lastgrad
Dipole moment program output   ... >/tmp/slurm-scratch/freq.122/freq.lastmom
AutoCI program output          ... >/tmp/slurm-scratch/freq.122/freq.lastautoci


         <<< Energy and Gradient at the input geometry >>>

        <<< Energy and Gradient at displaced geometries >>>
             <<<Displacing   3/coordinate 2 (+)>>>
             <<<Displacing   2/coordinate 1 (+)>>>
             <<<Displacing   3/coordinate 2 (-)>>>
             <<<Displacing   2/coordinate 1 (-)>>>
             <<<Displacing   1/coordinate 1 (+)>>>
             <<<Displacing   1/coordinate 2 (+)>>>
             <<<Displacing   1/coordinate 1 (-)>>>
             <<<Displacing   1/coordinate 2 (-)>>>
             <<<Displacing   2/coordinate 2 (+)>>>
             <<<Displacing   1/coordinate 3 (+)>>>
             <<<Displacing   2/coordinate 2 (-)>>>
             <<<Displacing   3/coordinate 1 (+)>>>
             <<<Displacing   2/coordinate 3 (+)>>>
             <<<Displacing   1/coordinate 3 (-)>>>
             <<<Displacing   3/coordinate 1 (-)>>>
             <<<Displacing   2/coordinate 3 (-)>>>
             <<<Displacing   4/coordinate 1 (+)>>>
             <<<Displacing   4/coordinate 1 (-)>>>
             <<<Displacing   4/coordinate 3 (+)>>>
             <<<Displacing   3/coordinate 3 (+)>>>
             <<<Displacing   4/coordinate 3 (-)>>>
             <<<Displacing   5/coordinate 3 (+)>>>
             <<<Displacing   3/coordinate 3 (-)>>>
             <<<Displacing   5/coordinate 3 (-)>>>
             <<<Displacing   5/coordinate 1 (+)>>>
             <<<Displacing   5/coordinate 1 (-)>>>
             <<<Displacing   4/coordinate 2 (+)>>>
             <<<Displacing   4/coordinate 2 (-)>>>
             <<<Displacing   6/coordinate 1 (+)>>>
             <<<Displacing   5/coordinate 2 (+)>>>
             <<<Displacing   6/coordinate 1 (-)>>>
             <<<Displacing   5/coordinate 2 (-)>>>
             <<<Displacing   6/coordinate 2 (+)>>>
             <<<Displacing   7/coordinate 1 (+)>>>
             <<<Displacing   6/coordinate 2 (-)>>>
             <<<Displacing   7/coordinate 1 (-)>>>
             <<<Displacing   6/coordinate 3 (+)>>>
             <<<Displacing   6/coordinate 3 (-)>>>
             <<<Displacing   7/coordinate 3 (+)>>>
             <<<Displacing   8/coordinate 1 (+)>>>
             <<<Displacing   7/coordinate 3 (-)>>>
             <<<Displacing   8/coordinate 1 (-)>>>
             <<<Displacing   7/coordinate 2 (+)>>>
             <<<Displacing   7/coordinate 2 (-)>>>
             <<<Displacing   8/coordinate 2 (+)>>>
             <<<Displacing   8/coordinate 3 (+)>>>
             <<<Displacing   8/coordinate 2 (-)>>>
             <<<Displacing   8/coordinate 3 (-)>>>
             <<<Displacing  10/coordinate 1 (+)>>>
             <<<Displacing   9/coordinate 2 (+)>>>
             <<<Displacing  10/coordinate 1 (-)>>>
             <<<Displacing   9/coordinate 2 (-)>>>
             <<<Displacing   9/coordinate 1 (+)>>>
             <<<Displacing   9/coordinate 1 (-)>>>
             <<<Displacing   9/coordinate 3 (+)>>>
             <<<Displacing   9/coordinate 3 (-)>>>
             <<<Displacing  10/coordinate 3 (+)>>>
             <<<Displacing  10/coordinate 3 (-)>>>
             <<<Displacing  10/coordinate 2 (+)>>>
             <<<Displacing  10/coordinate 2 (-)>>>
             <<<Displacing  11/coordinate 1 (+)>>>
             <<<Displacing  11/coordinate 1 (-)>>>
             <<<Displacing  11/coordinate 2 (+)>>>
             <<<Displacing  11/coordinate 2 (-)>>>
             <<<Displacing  12/coordinate 1 (+)>>>
             <<<Displacing  12/coordinate 1 (-)>>>
             <<<Displacing  12/coordinate 3 (+)>>>
             <<<Displacing  12/coordinate 3 (-)>>>
             <<<Displacing  13/coordinate 1 (+)>>>
             <<<Displacing  11/coordinate 3 (+)>>>
             <<<Displacing  12/coordinate 2 (+)>>>
             <<<Displacing  13/coordinate 1 (-)>>>
             <<<Displacing  11/coordinate 3 (-)>>>
             <<<Displacing  12/coordinate 2 (-)>>>
             <<<Displacing  13/coordinate 2 (+)>>>
             <<<Displacing  13/coordinate 2 (-)>>>
             <<<Displacing  13/coordinate 3 (+)>>>
             <<<Displacing  13/coordinate 3 (-)>>>
             <<<Displacing  14/coordinate 1 (+)>>>
             <<<Displacing  14/coordinate 1 (-)>>>
             <<<Displacing  15/coordinate 3 (+)>>>
             <<<Displacing  14/coordinate 2 (+)>>>
             <<<Displacing  15/coordinate 3 (-)>>>
             <<<Displacing  14/coordinate 2 (-)>>>
             <<<Displacing  14/coordinate 3 (+)>>>
             <<<Displacing  14/coordinate 3 (-)>>>
             <<<Displacing  15/coordinate 1 (+)>>>
             <<<Displacing  15/coordinate 2 (+)>>>
             <<<Displacing  15/coordinate 1 (-)>>>
             <<<Displacing  15/coordinate 2 (-)>>>
             <<<Displacing  16/coordinate 1 (+)>>>
             <<<Displacing  16/coordinate 1 (-)>>>
             <<<Displacing  16/coordinate 2 (+)>>>
             <<<Displacing  16/coordinate 2 (-)>>>
             <<<Displacing  16/coordinate 3 (+)>>>
             <<<Displacing  16/coordinate 3 (-)>>>
             <<<Displacing  17/coordinate 2 (+)>>>
             <<<Displacing  17/coordinate 2 (-)>>>
             <<<Displacing  17/coordinate 1 (+)>>>
             <<<Displacing  18/coordinate 1 (+)>>>
             <<<Displacing  17/coordinate 1 (-)>>>
             <<<Displacing  18/coordinate 1 (-)>>>
             <<<Displacing  17/coordinate 3 (+)>>>
             <<<Displacing  17/coordinate 3 (-)>>>
             <<<Displacing  18/coordinate 3 (+)>>>
             <<<Displacing  18/coordinate 2 (+)>>>
             <<<Displacing  18/coordinate 3 (-)>>>
             <<<Displacing  18/coordinate 2 (-)>>>
             <<<Displacing  19/coordinate 1 (+)>>>
             <<<Displacing  19/coordinate 1 (-)>>>
             <<<Displacing  19/coordinate 2 (+)>>>
             <<<Displacing  19/coordinate 2 (-)>>>
             <<<Displacing  19/coordinate 3 (+)>>>
             <<<Displacing  19/coordinate 3 (-)>>>
             <<<Displacing  20/coordinate 1 (+)>>>
             <<<Displacing  20/coordinate 1 (-)>>>
             <<<Displacing  21/coordinate 2 (+)>>>
             <<<Displacing  21/coordinate 2 (-)>>>
             <<<Displacing  20/coordinate 2 (+)>>>
             <<<Displacing  20/coordinate 2 (-)>>>
             <<<Displacing  20/coordinate 3 (+)>>>
             <<<Displacing  21/coordinate 1 (+)>>>
             <<<Displacing  21/coordinate 1 (-)>>>
             <<<Displacing  20/coordinate 3 (-)>>>
             <<<Displacing  22/coordinate 1 (+)>>>
             <<<Displacing  21/coordinate 3 (+)>>>
             <<<Displacing  22/coordinate 1 (-)>>>
             <<<Displacing  21/coordinate 3 (-)>>>
             <<<Displacing  22/coordinate 3 (+)>>>
             <<<Displacing  22/coordinate 2 (+)>>>
             <<<Displacing  22/coordinate 3 (-)>>>
             <<<Displacing  22/coordinate 2 (-)>>>
             <<<Displacing  23/coordinate 1 (+)>>>
             <<<Displacing  23/coordinate 1 (-)>>>
             <<<Displacing  24/coordinate 1 (+)>>>
             <<<Displacing  23/coordinate 3 (+)>>>
             <<<Displacing  24/coordinate 1 (-)>>>
             <<<Displacing  23/coordinate 3 (-)>>>
             <<<Displacing  23/coordinate 2 (+)>>>
             <<<Displacing  23/coordinate 2 (-)>>>
             <<<Displacing  24/coordinate 2 (+)>>>
             <<<Displacing  24/coordinate 2 (-)>>>
             <<<Displacing  24/coordinate 3 (+)>>>
             <<<Displacing  24/coordinate 3 (-)>>>
             <<<Displacing  25/coordinate 1 (+)>>>
             <<<Displacing  25/coordinate 2 (+)>>>
             <<<Displacing  25/coordinate 1 (-)>>>
             <<<Displacing  25/coordinate 2 (-)>>>
             <<<Displacing  25/coordinate 3 (+)>>>
             <<<Displacing  25/coordinate 3 (-)>>>
             <<<Displacing  26/coordinate 1 (+)>>>
             <<<Displacing  26/coordinate 1 (-)>>>
             <<<Displacing  26/coordinate 2 (+)>>>
             <<<Displacing  26/coordinate 2 (-)>>>
             <<<Displacing  26/coordinate 3 (+)>>>
             <<<Displacing  26/coordinate 3 (-)>>>
             <<<Displacing  27/coordinate 1 (+)>>>
             <<<Displacing  27/coordinate 1 (-)>>>
             <<<Displacing  27/coordinate 3 (+)>>>
             <<<Displacing  27/coordinate 3 (-)>>>
             <<<Displacing  27/coordinate 2 (+)>>>
             <<<Displacing  27/coordinate 2 (-)>>>
             <<<Displacing  28/coordinate 1 (+)>>>
             <<<Displacing  28/coordinate 1 (-)>>>
             <<<Displacing  28/coordinate 2 (+)>>>
             <<<Displacing  28/coordinate 2 (-)>>>
             <<<Displacing  29/coordinate 1 (+)>>>
             <<<Displacing  29/coordinate 1 (-)>>>
             <<<Displacing  28/coordinate 3 (+)>>>
             <<<Displacing  28/coordinate 3 (-)>>>
             <<<Displacing  29/coordinate 2 (+)>>>
             <<<Displacing  29/coordinate 2 (-)>>>
             <<<Displacing  30/coordinate 1 (+)>>>
             <<<Displacing  29/coordinate 3 (+)>>>
             <<<Displacing  30/coordinate 1 (-)>>>
             <<<Displacing  29/coordinate 3 (-)>>>
             <<<Displacing  30/coordinate 3 (+)>>>
             <<<Displacing  30/coordinate 3 (-)>>>
             <<<Displacing  30/coordinate 2 (+)>>>
             <<<Displacing  30/coordinate 2 (-)>>>

-----------------------
VIBRATIONAL FREQUENCIES
-----------------------

Scaling factor for frequencies =  1.000000000 (already applied!)

   0:         0.00 cm**-1
   1:         0.00 cm**-1
   2:         0.00 cm**-1
   3:         0.00 cm**-1
   4:         0.00 cm**-1
   5:         0.00 cm**-1
   6:        21.00 cm**-1
   7:        53.47 cm**-1
   8:        60.59 cm**-1
   9:        71.88 cm**-1
  10:        78.27 cm**-1
  11:       103.89 cm**-1
  12:       119.03 cm**-1
  13:       145.08 cm**-1
  14:       162.73 cm**-1
  15:       215.46 cm**-1
  16:       228.04 cm**-1
  17:       266.52 cm**-1
  18:       272.72 cm**-1
  19:       282.18 cm**-1
  20:       380.17 cm**-1
  21:       386.06 cm**-1
  22:       407.54 cm**-1
  23:       427.93 cm**-1
  24:       463.66 cm**-1
  25:       509.43 cm**-1
  26:       587.87 cm**-1
  27:       618.12 cm**-1
  28:       646.36 cm**-1
  29:       664.57 cm**-1
  30:       754.29 cm**-1
  31:       772.53 cm**-1
  32:       825.38 cm**-1
  33:       859.65 cm**-1
  34:       873.99 cm**-1
  35:       903.19 cm**-1
  36:       916.41 cm**-1
  37:       931.06 cm**-1
  38:       935.69 cm**-1
  39:       944.67 cm**-1
  40:       952.32 cm**-1
  41:       983.56 cm**-1
  42:      1020.61 cm**-1
  43:      1069.03 cm**-1
  44:      1072.15 cm**-1
  45:      1101.03 cm**-1
  46:      1117.77 cm**-1
  47:      1125.62 cm**-1
  48:      1145.27 cm**-1
  49:      1180.57 cm**-1
  50:      1188.40 cm**-1
  51:      1209.94 cm**-1
  52:      1219.62 cm**-1
  53:      1252.68 cm**-1
  54:      1269.34 cm**-1
  55:      1277.72 cm**-1
  56:      1278.07 cm**-1
  57:      1294.84 cm**-1
  58:      1325.74 cm**-1
  59:      1360.04 cm**-1
  60:      1370.06 cm**-1
  61:      1423.57 cm**-1
  62:      1427.62 cm**-1
  63:      1454.76 cm**-1
  64:      1471.78 cm**-1
  65:      1498.97 cm**-1
  66:      1504.42 cm**-1
  67:      1506.76 cm**-1
  68:      1511.93 cm**-1
  69:      1556.26 cm**-1
  70:      1559.93 cm**-1
  71:      1567.37 cm**-1
  72:      1666.45 cm**-1
  73:      2873.78 cm**-1
  74:      2891.71 cm**-1
  75:      2941.10 cm**-1
  76:      2947.46 cm**-1
  77:      2959.00 cm**-1
  78:      2965.61 cm**-1
  79:      2978.47 cm**-1
  80:      2981.19 cm**-1
  81:      2987.04 cm**-1
  82:      2998.67 cm**-1
  83:      3049.48 cm**-1
  84:      3057.63 cm**-1
  85:      3064.06 cm**-1
  86:      3073.45 cm**-1
  87:      3092.37 cm**-1
  88:      3163.05 cm**-1
  89:      3581.42 cm**-1


------------
NORMAL MODES
------------

These modes are the cartesian displacements weighted by the diagonal matrix
M(i,i)=1/sqrt(m[i]) where m[i] is the mass of the displaced atom
Thus, these vectors are normalized but *not* orthogonal

                  0          1          2          3          4          5    
      0       0.000000   0.000000   0.000000   0.000000   0.000000   0.000000
      1       0.000000   0.000000   0.000000   0.000000   0.000000   0.000000
      2       0.000000   0.000000   0.000000   0.000000   0.000000   0.000000
      3       0.000000   0.000000   0.000000   0.000000   0.000000   0.000000
      4       0.000000   0.000000   0.000000   0.000000   0.000000   0.000000
      5       0.000000   0.000000   0.000000   0.000000   0.000000   0.000000
      6       0.000000   0.000000   0.000000   0.000000   0.000000   0.000000
      7       0.000000   0.000000   0.000000   0.000000   0.000000   0.000000
      8       0.000000   0.000000   0.000000   0.000000   0.000000   0.000000
      9       0.000000   0.000000   0.000000   0.000000   0.000000   0.000000
     10       0.000000   0.000000   0.000000   0.000000   0.000000   0.000000
     11       0.000000   0.000000   0.000000   0.000000   0.000000   0.000000
     12       0.000000   0.000000   0.000000   0.000000   0.000000   0.000000
     13       0.000000   0.000000   0.000000   0.000000   0.000000   0.000000
     14       0.000000   0.000000   0.000000   0.000000   0.000000   0.000000
     15       0.000000   0.000000   0.000000   0.000000   0.000000   0.000000
     16       0.000000   0.000000   0.000000   0.000000   0.000000   0.000000
     17       0.000000   0.000000   0.000000   0.000000   0.000000   0.000000
     18       0.000000   0.000000   0.000000   0.000000   0.000000   0.000000
     19       0.000000   0.000000   0.000000   0.000000   0.000000   0.000000
     20       0.000000   0.000000   0.000000   0.000000   0.000000   0.000000
     21       0.000000   0.000000   0.000000   0.000000   0.000000   0.000000
     22       0.000000   0.000000   0.000000   0.000000   0.000000   0.000000
     23       0.000000   0.000000   0.000000   0.000000   0.000000   0.000000
     24       0.000000   0.000000   0.000000   0.000000   0.000000   0.000000
     25       0.000000   0.000000   0.000000   0.000000   0.000000   0.000000
     26       0.000000   0.000000   0.000000   0.000000   0.000000   0.000000
     27       0.000000   0.000000   0.000000   0.000000   0.000000   0.000000
     28       0.000000   0.000000   0.000000   0.000000   0.000000   0.000000
     29       0.000000   0.000000   0.000000   0.000000   0.000000   0.000000
     30       0.000000   0.000000   0.000000   0.000000   0.000000   0.000000
     31       0.000000   0.000000   0.000000   0.000000   0.000000   0.000000
     32       0.000000   0.000000   0.000000   0.000000   0.000000   0.000000
     33       0.000000   0.000000   0.000000   0.000000   0.000000   0.000000
     34       0.000000   0.000000   0.000000   0.000000   0.000000   0.000000
     35       0.000000   0.000000   0.000000   0.000000   0.000000   0.000000
     36       0.000000   0.000000   0.000000   0.000000   0.000000   0.000000
     37       0.000000   0.000000   0.000000   0.000000   0.000000   0.000000
     38       0.000000   0.000000   0.000000   0.000000   0.000000   0.000000
     39       0.000000   0.000000   0.000000   0.000000   0.000000   0.000000
     40       0.000000   0.000000   0.000000   0.000000   0.000000   0.000000
     41       0.000000   0.000000   0.000000   0.000000   0.000000   0.000000
     42       0.000000   0.000000   0.000000   0.000000   0.000000   0.000000
     43       0.000000   0.000000   0.000000   0.000000   0.000000   0.000000
     44       0.000000   0.000000   0.000000   0.000000   0.000000   0.000000
     45       0.000000   0.000000   0.000000   0.000000   0.000000   0.000000
     46       0.000000   0.000000   0.000000   0.000000   0.000000   0.000000
     47       0.000000   0.000000   0.000000   0.000000   0.000000   0.000000
     48       0.000000   0.000000   0.000000   0.000000   0.000000   0.000000
     49       0.000000   0.000000   0.000000   0.000000   0.000000   0.000000
     50       0.000000   0.000000   0.000000   0.000000   0.000000   0.000000
     51       0.000000   0.000000   0.000000   0.000000   0.000000   0.000000
     52       0.000000   0.000000   0.000000   0.000000   0.000000   0.000000
     53       0.000000   0.000000   0.000000   0.000000   0.000000   0.000000
     54       0.000000   0.000000   0.000000   0.000000   0.000000   0.000000
     55       0.000000   0.000000   0.000000   0.000000   0.000000   0.000000
     56       0.000000   0.000000   0.000000   0.000000   0.000000   0.000000
     57       0.000000   0.000000   0.000000   0.000000   0.000000   0.000000
     58       0.000000   0.000000   0.000000   0.000000   0.000000   0.000000
     59       0.000000   0.000000   0.000000   0.000000   0.000000   0.000000
     60       0.000000   0.000000   0.000000   0.000000   0.000000   0.000000
     61       0.000000   0.000000   0.000000   0.000000   0.000000   0.000000
     62       0.000000   0.000000   0.000000   0.000000   0.000000   0.000000
     63       0.000000   0.000000   0.000000   0.000000   0.000000   0.000000
     64       0.000000   0.000000   0.000000   0.000000   0.000000   0.000000
     65       0.000000   0.000000   0.000000   0.000000   0.000000   0.000000
     66       0.000000   0.000000   0.000000   0.000000   0.000000   0.000000
     67       0.000000   0.000000   0.000000   0.000000   0.000000   0.000000
     68       0.000000   0.000000   0.000000   0.000000   0.000000   0.000000
     69       0.000000   0.000000   0.000000   0.000000   0.000000   0.000000
     70       0.000000   0.000000   0.000000   0.000000   0.000000   0.000000
     71       0.000000   0.000000   0.000000   0.000000   0.000000   0.000000
     72       0.000000   0.000000   0.000000   0.000000   0.000000   0.000000
     73       0.000000   0.000000   0.000000   0.000000   0.000000   0.000000
     74       0.000000   0.000000   0.000000   0.000000   0.000000   0.000000
     75       0.000000   0.000000   0.000000   0.000000   0.000000   0.000000
     76       0.000000   0.000000   0.000000   0.000000   0.000000   0.000000
     77       0.000000   0.000000   0.000000   0.000000   0.000000   0.000000
     78       0.000000   0.000000   0.000000   0.000000   0.000000   0.000000
     79       0.000000   0.000000   0.000000   0.000000   0.000000   0.000000
     80       0.000000   0.000000   0.000000   0.000000   0.000000   0.000000
     81       0.000000   0.000000   0.000000   0.000000   0.000000   0.000000
     82       0.000000   0.000000   0.000000   0.000000   0.000000   0.000000
     83       0.000000   0.000000   0.000000   0.000000   0.000000   0.000000
     84       0.000000   0.000000   0.000000   0.000000   0.000000   0.000000
     85       0.000000   0.000000   0.000000   0.000000   0.000000   0.000000
     86       0.000000   0.000000   0.000000   0.000000   0.000000   0.000000
     87       0.000000   0.000000   0.000000   0.000000   0.000000   0.000000
     88       0.000000   0.000000   0.000000   0.000000   0.000000   0.000000
     89       0.000000   0.000000   0.000000   0.000000   0.000000   0.000000
                  6          7          8          9         10         11    
      0       0.058596   0.047734   0.001425  -0.034209   0.000506   0.013343
      1      -0.026868   0.001261   0.005015  -0.017565  -0.092779  -0.012250
      2      -0.036775  -0.202496   0.047868   0.024957   0.038308  -0.033039
      3       0.060272   0.050946   0.012416  -0.030149   0.013114   0.009535
      4      -0.000575   0.024437   0.033353  -0.009507  -0.029682  -0.001591
      5       0.001998  -0.194134  -0.045625  -0.011949   0.000726   0.042620
      6       0.034430   0.011621   0.005211  -0.030630  -0.025932  -0.010227
      7       0.020967   0.008174   0.042019  -0.005760   0.014436   0.006422
      8       0.002262   0.009483  -0.052896  -0.026062  -0.043981   0.079352
      9       0.007752  -0.030180  -0.017722  -0.034790  -0.075537  -0.028126
     10       0.015611  -0.032933   0.021527  -0.010851  -0.005217   0.001671
     11      -0.042264   0.204095   0.039864   0.001246  -0.050846   0.056323
     12       0.006209  -0.033269  -0.029515  -0.039151  -0.088477  -0.025475
     13      -0.011187  -0.056178  -0.007503  -0.019473  -0.068155  -0.009666
     14      -0.079577   0.196764   0.138535   0.042392  -0.015683  -0.013830
     15       0.031543   0.005092  -0.020931  -0.038792  -0.049799  -0.003815
     16      -0.032458  -0.040300  -0.015680  -0.023016  -0.111392  -0.015015
     17      -0.077116  -0.000158   0.145468   0.054748   0.029932  -0.065575
     18       0.081223   0.084334   0.027344  -0.026302   0.054175   0.023621
     19       0.003833   0.056423   0.047677  -0.005588  -0.014400   0.001436
     20       0.033694  -0.348287  -0.115411  -0.031582   0.008974   0.063375
     21      -0.011135  -0.059394  -0.029752  -0.032598  -0.099555  -0.044251
     22       0.031247  -0.045875   0.032181  -0.010603   0.022649   0.006375
     23      -0.043806   0.358279   0.031403  -0.003721  -0.078788   0.093057
     24       0.030062   0.001858  -0.030152  -0.042161  -0.059587  -0.000644
     25      -0.053324  -0.059485  -0.038210  -0.029593  -0.158067  -0.021727
     26      -0.106102   0.000153   0.223910   0.087679   0.059241  -0.127174
     27       0.015213  -0.005813   0.025769  -0.028679  -0.034145   0.005807
     28       0.077007   0.042395   0.045478   0.019202   0.085302   0.027695
     29       0.042433   0.076981  -0.138278  -0.101748  -0.040548  -0.026154
     30       0.023320  -0.000024   0.015622  -0.027472  -0.034023   0.000603
     31       0.104889   0.060842   0.012703   0.028883   0.083691   0.005838
     32       0.070501   0.089928  -0.109942  -0.058050  -0.024292  -0.029129
     33       0.035140   0.009130  -0.015845  -0.023974  -0.040525  -0.023822
     34       0.100937   0.059466   0.011140   0.025687   0.084665   0.001660
     35       0.269167   0.177990  -0.138722   0.087806  -0.113243   0.076381
     36       0.062409   0.015594  -0.022980  -0.027930  -0.074490   0.039249
     37       0.290156   0.145432  -0.031425   0.156913  -0.004787   0.089492
     38      -0.012515   0.052697  -0.077180  -0.102800   0.024424  -0.074846
     39      -0.057293   0.001101  -0.147214   0.054557   0.065951   0.001914
     40       0.084010   0.068245   0.042286   0.036360   0.111802   0.086846
     41       0.189846  -0.096960  -0.058000  -0.006335   0.043718  -0.024324
     42      -0.174734   0.113410  -0.376939   0.181536   0.231821   0.026653
     43       0.018618   0.131734  -0.001331  -0.022613   0.060913   0.059641
     44       0.258361  -0.164152  -0.007752   0.050250   0.089361   0.001784
     45       0.037608   0.014886   0.012739  -0.027089  -0.014450  -0.010138
     46       0.051792   0.031678   0.053018   0.003604   0.068886   0.014378
     47       0.047244   0.028376  -0.116219  -0.041521  -0.062708   0.102766
     48       0.061631   0.037481   0.006111  -0.025666   0.017274  -0.020701
     49       0.053389   0.040726   0.051593  -0.002379   0.078383  -0.000262
     50       0.089123  -0.005029  -0.121636   0.020565  -0.085502   0.216562
     51      -0.120643   0.040777  -0.322273   0.144949   0.199718   0.007555
     52       0.074568   0.076019   0.036354   0.028046   0.104475   0.081582
     53       0.250644  -0.156170  -0.013585   0.045083   0.084874  -0.000538
     54      -0.031892  -0.028699   0.110525  -0.016690   0.032932  -0.013505
     55      -0.095605  -0.027916   0.009892  -0.115446   0.155831  -0.116284
     56      -0.077244   0.021372  -0.040749  -0.126432   0.064127  -0.104263
     57      -0.053904  -0.054623   0.148266   0.110742  -0.037969  -0.048250
     58      -0.293703  -0.101086   0.069082  -0.381875   0.380773  -0.167677
     59       0.001224   0.057977  -0.077514  -0.088822   0.016610  -0.070561
     60      -0.063914  -0.026479   0.176061  -0.165600   0.208769   0.025630
     61      -0.092569  -0.025334   0.014382  -0.121195   0.165102  -0.110657
     62      -0.284082  -0.059928  -0.007189  -0.371052   0.246136  -0.176556
     63      -0.016664  -0.027033   0.080439   0.030633  -0.032384  -0.022567
     64      -0.031661  -0.022469  -0.090623   0.107924  -0.109770  -0.151370
     65      -0.044941   0.013543   0.038916   0.098119  -0.029686  -0.104708
     66      -0.015757  -0.006507   0.045417  -0.113514   0.056542  -0.088066
     67       0.110683   0.034087  -0.139447   0.351681  -0.297304  -0.385053
     68      -0.096595  -0.015635   0.071556   0.071912  -0.000095   0.008297
     69       0.021073  -0.027122   0.006360   0.182831  -0.222888  -0.025662
     70      -0.029025  -0.022552  -0.096071   0.118721  -0.123742  -0.150592
     71       0.100776   0.076647   0.020869   0.320528  -0.164261  -0.365801
     72       0.077910   0.077983   0.009282  -0.033942   0.029974   0.030248
     73      -0.042684   0.014353  -0.002014  -0.019964  -0.125149  -0.017385
     74      -0.036009  -0.360131   0.050547   0.034211   0.074655  -0.068761
     75      -0.014463  -0.066051  -0.044796  -0.043437  -0.130140  -0.039835
     76      -0.015363  -0.087967  -0.022717  -0.024161  -0.083781  -0.012965
     77      -0.111249   0.348310   0.212569   0.066561  -0.021547  -0.032582
     78      -0.051399  -0.052330   0.193949   0.069245   0.034928   0.064077
     79      -0.152295  -0.088479  -0.125952   0.001603  -0.121332   0.136568
     80      -0.130522  -0.037715   0.103422   0.072916   0.013807   0.102270
     81      -0.046193  -0.051679   0.170991   0.087995  -0.001931   0.054812
     82      -0.131726  -0.088584  -0.185918   0.100804  -0.256296   0.102793
     83      -0.121990  -0.046657   0.172338   0.196698  -0.014171   0.097457
     84      -0.061317  -0.046765   0.255404  -0.019854   0.168035   0.073622
     85      -0.152725  -0.088347  -0.123994  -0.001435  -0.116998   0.137162
     86      -0.247270  -0.093155   0.111886  -0.092389   0.099589   0.376830
     87      -0.071095  -0.077100   0.240320   0.169233  -0.011626   0.128180
     88      -0.259961  -0.136286  -0.094660  -0.172521   0.000291   0.384863
     89      -0.084137  -0.010930   0.074265   0.097008  -0.012005  -0.011836
                 12         13         14         15         16         17    
      0      -0.011669   0.054102  -0.032799   0.036137   0.000768   0.062086
      1       0.011240  -0.031254   0.042543  -0.010256  -0.001021  -0.007975
      2      -0.091822   0.012511   0.000658   0.018173  -0.007296  -0.030173
      3      -0.026443   0.070698  -0.045404   0.031742   0.001054   0.065268
      4      -0.006093   0.080474  -0.061366  -0.010744   0.002821   0.022862
      5       0.081716   0.002118  -0.021559   0.050073  -0.000894  -0.078412
      6      -0.039636   0.000404   0.015534   0.020001  -0.002650   0.025593
      7      -0.016027   0.143577  -0.115946  -0.000247   0.003950   0.033084
      8       0.172847  -0.006733  -0.022997   0.036478   0.006705  -0.011562
      9      -0.048085  -0.095071   0.105722   0.024332  -0.007890   0.037466
     10      -0.015839   0.109472  -0.082902  -0.001873   0.001991   0.045430
     11       0.145071  -0.019295  -0.005963   0.053387   0.002817  -0.090330
     12      -0.035021  -0.117186   0.124508   0.031570  -0.009002   0.027244
     13       0.000300  -0.002787   0.017180   0.002324  -0.002113   0.005142
     14      -0.018484  -0.009572   0.027669  -0.014060   0.006851  -0.004276
     15      -0.015185  -0.042673   0.054867   0.043673  -0.005077   0.041028
     16       0.018043  -0.069575   0.073746   0.001842  -0.004612  -0.032643
     17      -0.159210   0.012632   0.031972  -0.055306   0.002619   0.102120
     18      -0.024295   0.143695  -0.110821   0.038591   0.004514   0.097716
     19      -0.009606   0.108908  -0.084936  -0.010808   0.004606   0.041441
     20       0.117287   0.006679  -0.038265   0.075595  -0.003777  -0.120806
     21      -0.066306  -0.163257   0.168272   0.024783  -0.003983   0.036835
     22      -0.023094   0.168790  -0.134766  -0.006242   0.002461   0.057155
     23       0.238976  -0.030990  -0.009626   0.067630  -0.012289  -0.140789
     24      -0.001880  -0.056923   0.064095   0.050176  -0.005682   0.025138
     25       0.034870  -0.149516   0.140622   0.009924  -0.008352  -0.069845
     26      -0.309624   0.027689   0.058000  -0.131518   0.003019   0.237481
     27      -0.000211   0.032143  -0.079255  -0.012311   0.002141   0.008636
     28       0.004567   0.112190   0.031986  -0.008538   0.001750   0.004146
     29      -0.105462   0.042479  -0.090805   0.202411   0.005247  -0.042591
     30       0.001779   0.025555  -0.032934  -0.009605   0.001192  -0.029528
     31       0.004179   0.094076   0.232847  -0.015355  -0.000827  -0.053063
     32      -0.133693   0.053294   0.046229  -0.086109  -0.004638  -0.049617
     33       0.002332   0.001357   0.115826  -0.028299  -0.000772  -0.062883
     34       0.006332   0.091587   0.235268  -0.013165  -0.000883  -0.053682
     35      -0.253440   0.159231   0.277191  -0.239357  -0.008456  -0.144597
     36      -0.024996   0.055531  -0.112022   0.157570   0.007079   0.005826
     37      -0.114324   0.185438   0.483069  -0.141657  -0.001598  -0.151444
     38      -0.078124   0.007039  -0.008240  -0.113191  -0.006968  -0.028828
     39      -0.015444  -0.022761  -0.010355  -0.008208   0.167786   0.007556
     40      -0.053005  -0.406746  -0.091128  -0.037532  -0.010902   0.010352
     41      -0.065642  -0.081280  -0.076481   0.142710   0.008342  -0.050414
     42       0.064994   0.142313  -0.039227   0.037502  -0.981840   0.037731
     43      -0.152701  -0.442188  -0.167736   0.141087   0.005276  -0.054183
     44       0.036750  -0.038081   0.004459  -0.036400   0.013657   0.012600
     45      -0.038444   0.003259   0.014106   0.021965  -0.001756  -0.012975
     46      -0.021347   0.153472  -0.089376   0.024316   0.004896  -0.008062
     47       0.180840   0.006325   0.013604  -0.091631   0.008827   0.147163
     48      -0.066633  -0.014024   0.089428   0.072452  -0.004286  -0.046849
     49      -0.049124   0.151423  -0.085250   0.079359   0.004325  -0.042229
     50       0.381187  -0.008167   0.176040  -0.504895   0.008433   0.403208
     51      -0.005331   0.019516   0.003331  -0.005484   0.069689  -0.004988
     52      -0.063824  -0.394140  -0.098663  -0.014694  -0.009315   0.002394
     53       0.027623  -0.040245  -0.004432  -0.016843  -0.007135   0.006805
     54       0.058581   0.005616  -0.052121  -0.127868  -0.003044  -0.066880
     55       0.131194  -0.027967   0.099462   0.067481   0.003083   0.036545
     56      -0.026534  -0.027766  -0.038225  -0.131312  -0.006077  -0.014502
     57       0.103381  -0.021357  -0.102482  -0.121011  -0.002824  -0.080347
     58       0.240307  -0.111219   0.046521   0.057438   0.004963   0.129466
     59      -0.083528   0.013253   0.002730  -0.128712  -0.006833  -0.039682
     60       0.074143   0.016515   0.027132  -0.151775  -0.003800  -0.045427
     61       0.128538  -0.023832   0.107915   0.063489   0.002887   0.034873
     62       0.087367  -0.122230  -0.122924  -0.113195  -0.000317   0.087848
     63       0.046893   0.005153  -0.087772  -0.141008  -0.003124  -0.092892
     64       0.083719  -0.030545  -0.023192   0.043553   0.003016  -0.017239
     65       0.010789  -0.024856  -0.019493  -0.026800  -0.003633  -0.004935
     66       0.063135  -0.008358  -0.096045  -0.238139  -0.006993  -0.115497
     67       0.168671  -0.064051  -0.120216   0.051409   0.005352  -0.053725
     68      -0.026896  -0.006886   0.019609   0.013215  -0.002890   0.018592
     69      -0.004152   0.008633  -0.183032  -0.192114  -0.003533  -0.125322
     70       0.079155  -0.029876  -0.030230   0.038488   0.002860  -0.019517
     71       0.132623  -0.064656  -0.083456   0.026901  -0.000762  -0.027565
     72       0.004403   0.117462  -0.095209   0.035538   0.004968   0.070630
     73       0.020276  -0.084885   0.092992  -0.010533  -0.001958  -0.010979
     74      -0.184217   0.023989  -0.000202   0.021877  -0.017420  -0.045454
     75      -0.037934  -0.193011   0.193996   0.026591  -0.013684   0.001215
     76       0.003034  -0.031885   0.041452   0.004323  -0.004050  -0.006399
     77      -0.049626  -0.014723   0.050192  -0.046560   0.008311   0.005291
     78       0.084710   0.020140   0.019824   0.079730   0.003591  -0.037946
     79      -0.097095   0.020357  -0.027920  -0.066163  -0.000797  -0.013660
     80      -0.053239   0.011063   0.059064   0.085188  -0.000556   0.046063
     81       0.072368   0.017400  -0.015660   0.050783   0.003731   0.031443
     82      -0.123612   0.010027  -0.143643  -0.104218   0.002480   0.299236
     83       0.004294   0.007464   0.083924   0.310272   0.009620   0.309939
     84       0.125386   0.026114   0.133645   0.125842   0.000330  -0.346491
     85      -0.096001   0.020587  -0.024264  -0.064840  -0.000946  -0.023524
     86      -0.196921   0.064127   0.135796   0.000933  -0.005888  -0.171896
     87       0.087394   0.028392   0.025596   0.250679   0.012206   0.247888
     88      -0.209675   0.069710   0.080440  -0.120259  -0.006766  -0.306796
     89      -0.013684  -0.009814   0.017877   0.038748  -0.001752   0.041424
                 18         19         20         21         22         23    
      0       0.024439   0.115328  -0.013614   0.035617  -0.016045  -0.037318
      1      -0.004600  -0.034575  -0.029185  -0.003212   0.006768   0.046301
      2      -0.015076   0.038476   0.186698   0.015606  -0.022738  -0.021770
      3       0.026942   0.102315   0.022829   0.035531  -0.021072  -0.022942
      4       0.013845  -0.015016   0.038019   0.063441  -0.033821   0.071098
      5      -0.038703   0.106898  -0.192394   0.075670   0.011581   0.008578
      6       0.009110   0.041850   0.003084   0.029201  -0.006663   0.051856
      7       0.017530   0.042223   0.007473   0.090871  -0.036393   0.007258
      8      -0.002245   0.013100   0.000438  -0.061624  -0.000227   0.048842
      9       0.010053   0.060698  -0.019801  -0.024957   0.009916  -0.049486
     10       0.023133   0.030878  -0.023867   0.070294  -0.029812  -0.010696
     11      -0.047907   0.118859   0.182787   0.012927  -0.034628  -0.025316
     12       0.003921   0.069903   0.014222  -0.049924   0.014484  -0.069972
     13       0.001067   0.005191   0.031565  -0.008153  -0.003949  -0.024693
     14      -0.007463   0.035894  -0.193486   0.060130   0.013775  -0.025237
     15       0.010227   0.128641  -0.002362  -0.007969  -0.000228  -0.116751
     16      -0.018422  -0.011854  -0.002968  -0.014351   0.011022   0.005513
     17       0.050339  -0.102185   0.009222  -0.068091   0.009895   0.018719
     18       0.042533   0.149916   0.049751   0.062599  -0.043446  -0.068227
     19       0.022775  -0.002597   0.078646   0.061793  -0.045343   0.053456
     20      -0.060070   0.173147  -0.438991   0.173182   0.034764  -0.016622
     21       0.007085   0.056306  -0.051765  -0.083583   0.025994  -0.112474
     22       0.032099   0.016940  -0.056166   0.109459  -0.039069   0.051143
     23      -0.076132   0.181839   0.427016   0.048757  -0.051157  -0.055947
     24       0.002024   0.138730  -0.005106  -0.006418   0.001162  -0.118834
     25      -0.038548  -0.011096  -0.010468  -0.038578   0.024521  -0.007735
     26       0.118781  -0.255988   0.032188  -0.145755   0.023458   0.044018
     27       0.008937  -0.016472   0.004779   0.045169  -0.007155   0.124856
     28      -0.013702   0.082621  -0.014824  -0.153122   0.058469  -0.120164
     29       0.003259  -0.201180  -0.009155  -0.097063   0.073900   0.032929
     30      -0.005174  -0.097950   0.005033   0.048763  -0.013143   0.177110
     31      -0.037884  -0.037434  -0.005057  -0.037699  -0.013090   0.082250
     32      -0.029583  -0.080668   0.010327   0.121652  -0.011925  -0.089215
     33      -0.017291  -0.186279   0.019242   0.208663  -0.089988   0.362277
     34      -0.037915  -0.042881  -0.004325  -0.030926  -0.014906   0.089355
     35      -0.071902  -0.129734   0.022885   0.273420  -0.089643  -0.025440
     36       0.030022  -0.149547  -0.003657  -0.066650   0.048450   0.214313
     37      -0.078004  -0.124776   0.012079   0.167603  -0.109188   0.215009
     38      -0.030032  -0.026455   0.007767   0.096219  -0.004932  -0.150581
     39       0.004967   0.025590   0.001569  -0.020269   0.011231  -0.010139
     40       0.005481   0.008951   0.047195   0.108829   0.123780   0.049857
     41      -0.001700  -0.147111  -0.217266  -0.387999  -0.638078  -0.156770
     42       0.009689  -0.066619  -0.040328  -0.013226  -0.009372   0.011997
     43       0.005116  -0.161910  -0.227424  -0.389466  -0.696455  -0.161210
     44      -0.001485   0.020746   0.034587   0.062961   0.095023   0.025684
     45      -0.007518   0.007516  -0.000406   0.002645   0.007381   0.097028
     46      -0.008975   0.060927  -0.012719  -0.097513   0.047848  -0.084293
     47       0.073039  -0.141874   0.012462  -0.067024   0.011155  -0.003567
     48      -0.030107   0.031374  -0.012494  -0.125667   0.058183   0.038435
     49      -0.024079   0.066294  -0.016685  -0.142404   0.067204  -0.087471
     50       0.166123  -0.118436   0.025043   0.076110  -0.058172  -0.120911
     51      -0.002815  -0.001232   0.001166   0.001062  -0.001679   0.000445
     52       0.004931  -0.010075   0.016517   0.049782   0.038844   0.025440
     53      -0.001157   0.001058   0.003813   0.009010   0.005526   0.003020
     54      -0.040024  -0.034669  -0.009393  -0.092970   0.006103   0.064229
     55       0.000257  -0.039387   0.002275   0.022918  -0.015034   0.087223
     56      -0.031776   0.024608   0.003163   0.044780  -0.003733  -0.122281
     57      -0.002812   0.037203  -0.017494  -0.188316   0.018286   0.119737
     58      -0.047306  -0.017363   0.002394   0.013272  -0.011346   0.056706
     59      -0.031020  -0.014993   0.006594   0.089145  -0.010608  -0.132570
     60      -0.103964  -0.024399  -0.013512  -0.157978   0.016821   0.142311
     61      -0.005223  -0.038267   0.001854   0.015988  -0.013235   0.091911
     62      -0.055515   0.034554   0.007445   0.079075  -0.003646  -0.169649
     63      -0.031210  -0.074897  -0.008432  -0.082046   0.014802  -0.032987
     64       0.058260  -0.052522   0.006377   0.062773  -0.001027  -0.071525
     65       0.028188   0.131858  -0.006016  -0.069354   0.000906   0.113056
     66      -0.057278  -0.081749  -0.009533  -0.080833   0.010822  -0.075592
     67       0.120086  -0.015346   0.004847   0.031925   0.015377  -0.079769
     68       0.016945   0.119459  -0.004767  -0.056185  -0.003500   0.131280
     69      -0.022967  -0.052592  -0.010632  -0.110993   0.031046  -0.099979
     70       0.057632  -0.049537   0.005997   0.058145   0.000439  -0.073746
     71       0.100993   0.147882  -0.004765  -0.070505   0.011400   0.111856
     72       0.031469   0.115925  -0.032063   0.078723  -0.032254   0.019783
     73      -0.008339  -0.037772  -0.067890  -0.043261   0.025416   0.008741
     74      -0.022817   0.052799   0.412215   0.038625  -0.046759  -0.063416
     75      -0.009011   0.024179   0.032821  -0.100867   0.036102  -0.034057
     76      -0.004057  -0.013724   0.066211  -0.038155   0.001448  -0.006462
     77      -0.007182   0.039735  -0.413245   0.144855   0.035969  -0.046721
     78       0.000147  -0.228608   0.006513   0.070795   0.006830  -0.178602
     79      -0.022977  -0.001350  -0.001685  -0.015631   0.002968  -0.022443
     80       0.013420   0.071029   0.000327  -0.004591  -0.006433   0.092815
     81      -0.114296  -0.213235   0.002613   0.032088   0.007150  -0.130699
     82      -0.492775  -0.005389  -0.010915  -0.105507   0.001925   0.097266
     83      -0.252561  -0.137909   0.016022   0.160376  -0.015735  -0.081270
     84       0.468331  -0.232182   0.016674   0.168894   0.008380  -0.308000
     85      -0.008090  -0.001058  -0.001392  -0.012922   0.003061  -0.025587
     86       0.270991   0.155930  -0.003734  -0.048173  -0.002571   0.128485
     87      -0.328769  -0.398090   0.016752   0.180074  -0.000674  -0.288830
     88       0.360264   0.071930  -0.001994  -0.021765   0.006141  -0.030131
     89       0.002215   0.109604  -0.003497  -0.044257  -0.004704   0.137124
                 24         25         26         27         28         29    
      0       0.081753  -0.014623   0.280029  -0.033913  -0.040037  -0.025874
      1      -0.033253   0.061053   0.182095  -0.091413  -0.054931  -0.039838
      2      -0.096240  -0.119728   0.057847  -0.029342  -0.022275   0.187287
      3       0.059849  -0.021011   0.198768  -0.048665  -0.039709   0.007970
      4       0.033293  -0.008000  -0.234994  -0.133662  -0.043796   0.015379
      5       0.015540   0.040794  -0.019998  -0.014990  -0.001028  -0.158719
      6      -0.059422   0.023215  -0.022021  -0.151013  -0.059458  -0.033135
      7       0.055595  -0.082495  -0.109462  -0.000405   0.006487  -0.037889
      8       0.212461   0.250435  -0.021973  -0.011775  -0.011941   0.233549
      9       0.025912  -0.021913  -0.254355  -0.018088   0.012374   0.014676
     10       0.123790  -0.076656  -0.152264   0.056936   0.030334   0.029774
     11       0.003994   0.021960  -0.053404   0.020042   0.015912  -0.153482
     12       0.023377  -0.006219  -0.204872   0.004077   0.027310  -0.016153
     13       0.044305  -0.005004   0.271987   0.104038   0.029078  -0.023813
     14      -0.076619  -0.124485   0.026721   0.005526  -0.002352   0.189096
     15       0.083934  -0.085760   0.032449   0.132915   0.068992   0.024489
     16      -0.063322   0.000674   0.128561  -0.014590  -0.012304   0.022310
     17       0.123343   0.153138   0.021291   0.023252   0.014573  -0.146349
     18       0.174116  -0.069072   0.063224   0.033070   0.008287   0.049256
     19       0.093692  -0.002290  -0.273404  -0.099034  -0.025921   0.075262
     20      -0.093230  -0.173628  -0.033259  -0.014545   0.010601  -0.516902
     21       0.033899  -0.014148  -0.130875   0.131837   0.019069   0.056461
     22       0.150729  -0.029656  -0.239896  -0.056691   0.017077   0.077668
     23      -0.155098  -0.188636  -0.047404   0.001087   0.017440  -0.498814
     24       0.069757  -0.087746  -0.026229   0.126801   0.071809   0.056696
     25      -0.105258  -0.001120  -0.246916  -0.013903   0.027097   0.080202
     26       0.199481   0.204256  -0.042862   0.018677   0.027366  -0.479230
     27      -0.166625   0.125840  -0.015131   0.074245   0.045466   0.017548
     28      -0.125912   0.080548  -0.038700  -0.043349  -0.008609   0.002072
     29       0.042176  -0.151317   0.000945  -0.011758  -0.006722  -0.022893
     30      -0.093357   0.046616  -0.003391   0.113729   0.060050   0.013957
     31       0.082509  -0.076332   0.001267  -0.016663  -0.018357  -0.006488
     32      -0.028651   0.087240  -0.006407   0.025462   0.007287   0.006402
     33       0.033916  -0.016680   0.030579   0.219411   0.082302   0.023681
     34       0.085439  -0.078164   0.002182  -0.008966  -0.016072  -0.005918
     35       0.084342   0.120404   0.020005   0.111687   0.051857   0.038954
     36      -0.183018  -0.039351  -0.019428   0.087838   0.058258  -0.018741
     37       0.214942  -0.061897   0.039920   0.110746   0.048724   0.027482
     38      -0.034191   0.115780  -0.013249  -0.009131  -0.017873   0.008459
     39      -0.086884   0.039989  -0.343138   0.802027  -0.953108  -0.059287
     40       0.045604  -0.012559   0.000598   0.008046  -0.006732   0.002581
     41      -0.150419   0.033522   0.009602  -0.016267   0.011932  -0.010999
     42      -0.013967   0.022951  -0.033590   0.105377  -0.119819   0.004420
     43      -0.165696   0.036029   0.002527   0.006518  -0.007876  -0.019840
     44       0.025255  -0.005649   0.001016  -0.001614   0.003574   0.001805
     45      -0.116417   0.104728  -0.008578  -0.089625  -0.026896   0.000834
     46      -0.131909   0.091931  -0.031606   0.105169   0.056075   0.014994
     47      -0.075764  -0.119256  -0.002055  -0.009726   0.000001  -0.009344
     48      -0.147829   0.153704  -0.007902  -0.170665  -0.067586   0.006611
     49      -0.097495   0.111905  -0.030634   0.073318   0.040508   0.025520
     50      -0.438265  -0.218963  -0.016011   0.009749   0.017761  -0.107440
     51       0.004125  -0.002041   0.014747  -0.033198   0.037649   0.001919
     52       0.021037  -0.006551   0.001966   0.003861   0.002632   0.002104
     53       0.001768   0.000383   0.000063   0.001621  -0.001136  -0.000612
     54       0.055518  -0.079971   0.004255   0.010322   0.004859  -0.003834
     55      -0.000647  -0.031994   0.002711   0.030348   0.007590  -0.004121
     56      -0.000273   0.074195  -0.003948  -0.024966  -0.011710   0.009712
     57       0.106897  -0.172199   0.012544  -0.011631  -0.003940  -0.014222
     58      -0.018379  -0.032011   0.008818   0.020152   0.023116  -0.003492
     59      -0.017639   0.112248  -0.009541  -0.010225  -0.012478   0.013524
     60       0.119485  -0.177010   0.003784   0.005831  -0.022347  -0.017301
     61       0.007138  -0.040443   0.001997   0.029032   0.002866  -0.005254
     62      -0.062201   0.124196   0.004812  -0.025695   0.032735   0.018161
     63       0.077965  -0.083738   0.005699  -0.018078  -0.007980  -0.008673
     64      -0.027180   0.046403  -0.002667   0.004008   0.002305   0.004469
     65       0.010887  -0.040848   0.002349   0.004307   0.000658  -0.002657
     66       0.103907  -0.082387   0.006217  -0.029427  -0.016630  -0.007451
[...]
     31      -0.000010   0.000036   0.000093   0.000202  -0.001098  -0.000043
     32       0.000048  -0.000012  -0.000136  -0.000047   0.000440  -0.000074
     33      -0.000089   0.000045   0.000149   0.000011  -0.004227   0.000214
     34       0.000412  -0.000424  -0.001780  -0.002683   0.023465   0.000189
     35       0.000029  -0.000041  -0.000122  -0.000112   0.000405   0.000250
     36      -0.000340   0.000082   0.000890   0.000079  -0.000690   0.000432
     37      -0.000182   0.000091   0.000562   0.000359  -0.002446  -0.000147
     38      -0.000653   0.000188   0.001811   0.000566  -0.004539   0.000712
     39      -0.000353  -0.000631   0.000069  -0.004158  -0.005351  -0.000498
     40      -0.006879  -0.002978   0.017596  -0.065172   0.978857  -0.030614
     41      -0.001189  -0.000444   0.003059  -0.011124   0.171416  -0.035954
     42      -0.000130  -0.000204   0.000048  -0.000810   0.000667   0.021078
     43       0.000241   0.000067  -0.000749   0.002017  -0.033646   0.147927
     44       0.000091   0.000372  -0.000002   0.001984   0.022587   0.985792
     45       0.000128  -0.000011  -0.000420  -0.000049  -0.001529   0.000036
     46      -0.000108   0.000153   0.000337  -0.000161  -0.002234  -0.000051
     47       0.000003   0.000022  -0.000002  -0.000026  -0.000458  -0.000018
     48      -0.001526   0.000601   0.002097   0.000254  -0.004350  -0.000193
     49       0.002619  -0.000719  -0.004603  -0.002241   0.037775   0.000090
     50       0.000186  -0.000041  -0.000383  -0.000295   0.004752  -0.000148
     51       0.000005   0.000011   0.000033  -0.000013   0.000015  -0.001265
     52       0.000443   0.000180  -0.001121   0.004087  -0.061602  -0.007443
     53       0.000064  -0.000003  -0.000188   0.000527  -0.012414  -0.059860
     54      -0.000010   0.000012   0.000045   0.000047  -0.000076  -0.000037
     55       0.000016  -0.000030  -0.000047   0.000022  -0.000415   0.000080
     56      -0.000008   0.000019   0.000035   0.000112  -0.000183  -0.000074
     57       0.000041  -0.000065  -0.000257  -0.000581   0.001368   0.000343
     58       0.000020  -0.000063  -0.000118  -0.000610   0.000270   0.000477
     59       0.000094  -0.000240  -0.000406  -0.001415   0.001301   0.001086
     60       0.000020  -0.000072  -0.000159  -0.000003  -0.001115  -0.000260
     61      -0.000111   0.000433   0.000442   0.000383   0.004938  -0.001008
     62      -0.000013   0.000019   0.000063   0.000121   0.001053  -0.000439
     63       0.000007  -0.000008   0.000000  -0.000030   0.000094  -0.000017
     64      -0.000005   0.000001   0.000014   0.000078  -0.000191  -0.000013
     65       0.000017  -0.000012  -0.000030  -0.000035   0.000166  -0.000018
     66      -0.000065   0.000064   0.000043   0.000159  -0.000821   0.000212
     67      -0.000059   0.000078   0.000089   0.000198  -0.000522  -0.000015
     68      -0.000165   0.000162   0.000238   0.000456  -0.001930   0.000206
     69      -0.000003   0.000025  -0.000030   0.000065   0.000203   0.000155
     70       0.000118  -0.000117  -0.000235  -0.001120   0.002260  -0.000095
     71       0.000004  -0.000016  -0.000000  -0.000011  -0.000182   0.000046
     72       0.179421  -0.387228  -0.392835  -0.011681   0.004591  -0.000030
     73       0.223900  -0.477687  -0.486971  -0.014814   0.005794  -0.000001
     74       0.053154  -0.113855  -0.115902  -0.003497   0.001343  -0.000002
     75       0.213703   0.248448  -0.138395  -0.062820   0.000756  -0.000079
     76      -0.546404  -0.630484   0.355109   0.162042  -0.000929  -0.000033
     77      -0.068196  -0.078407   0.044285   0.020312  -0.000041   0.000011
     78       0.000009  -0.000011  -0.000006  -0.000010   0.000029  -0.000015
     79       0.000006  -0.000015   0.000001   0.000018  -0.000046   0.000021
     80      -0.000004   0.000006  -0.000011   0.000031  -0.000061  -0.000012
     81      -0.000184   0.000188   0.000197   0.000356  -0.001235   0.000105
     82       0.000053  -0.000052  -0.000065  -0.000112   0.000431  -0.000033
     83      -0.000013   0.000021   0.000029   0.000042  -0.000103   0.000003
     84       0.000009  -0.000016  -0.000046  -0.000018   0.000005  -0.000012
     85      -0.000126   0.000255   0.000011   0.000143  -0.000228  -0.000176
     86      -0.000003   0.000000   0.000013   0.000037   0.000020  -0.000017
     87       0.000036  -0.000037  -0.000021  -0.000182   0.000486   0.000052
     88       0.000028  -0.000022   0.000032  -0.000182   0.000484   0.000092
     89       0.000072  -0.000088   0.000078  -0.000443   0.000993   0.000227


-----------
IR SPECTRUM  
-----------

 Mode    freq (cm**-1)   T**2         TX         TY         TZ
-------------------------------------------------------------------
   6:        21.00    0.000000  (  0.000000   0.000000   0.000000)
   7:        53.47    0.000000  (  0.000000   0.000000   0.000000)
   8:        60.59    0.000000  (  0.000000   0.000000   0.000000)
   9:        71.88    0.000000  (  0.000000   0.000000   0.000000)
  10:        78.27    0.000000  (  0.000000   0.000000   0.000000)
  11:       103.89    0.000000  (  0.000000   0.000000   0.000000)
  12:       119.03    0.000000  (  0.000000   0.000000   0.000000)
  13:       145.08    0.000000  (  0.000000   0.000000   0.000000)
  14:       162.73    0.000000  (  0.000000   0.000000   0.000000)
  15:       215.46    0.000000  (  0.000000   0.000000   0.000000)
  16:       228.04    0.000000  (  0.000000   0.000000   0.000000)
  17:       266.52    0.000000  (  0.000000   0.000000   0.000000)
  18:       272.72    0.000000  (  0.000000   0.000000   0.000000)
  19:       282.18    0.000000  (  0.000000   0.000000   0.000000)
  20:       380.17    0.000000  (  0.000000   0.000000   0.000000)
  21:       386.06    0.000000  (  0.000000   0.000000   0.000000)
  22:       407.54    0.000000  (  0.000000   0.000000   0.000000)
  23:       427.93    0.000000  (  0.000000   0.000000   0.000000)
  24:       463.66    0.000000  (  0.000000   0.000000   0.000000)
  25:       509.43    0.000000  (  0.000000   0.000000   0.000000)
  26:       587.87    0.000000  (  0.000000   0.000000   0.000000)
  27:       618.12    0.000000  (  0.000000   0.000000   0.000000)
  28:       646.36    0.000000  (  0.000000   0.000000   0.000000)
  29:       664.57    0.000000  (  0.000000   0.000000   0.000000)
  30:       754.29    0.000000  (  0.000000   0.000000   0.000000)
  31:       772.53    0.000000  (  0.000000   0.000000   0.000000)
  32:       825.38    0.000000  (  0.000000   0.000000   0.000000)
  33:       859.65    0.000000  (  0.000000   0.000000   0.000000)
  34:       873.99    0.000000  (  0.000000   0.000000   0.000000)
  35:       903.19    0.000000  (  0.000000   0.000000   0.000000)
  36:       916.41    0.000000  (  0.000000   0.000000   0.000000)
  37:       931.06    0.000000  (  0.000000   0.000000   0.000000)
  38:       935.69    0.000000  (  0.000000   0.000000   0.000000)
  39:       944.67    0.000000  (  0.000000   0.000000   0.000000)
  40:       952.32    0.000000  (  0.000000   0.000000   0.000000)
  41:       983.56    0.000000  (  0.000000   0.000000   0.000000)
  42:      1020.61    0.000000  (  0.000000   0.000000   0.000000)
  43:      1069.03    0.000000  (  0.000000   0.000000   0.000000)
  44:      1072.15    0.000000  (  0.000000   0.000000   0.000000)
  45:      1101.03    0.000000  (  0.000000   0.000000   0.000000)
  46:      1117.77    0.000000  (  0.000000   0.000000   0.000000)
  47:      1125.62    0.000000  (  0.000000   0.000000   0.000000)
  48:      1145.27    0.000000  (  0.000000   0.000000   0.000000)
  49:      1180.57    0.000000  (  0.000000   0.000000   0.000000)
  50:      1188.40    0.000000  (  0.000000   0.000000   0.000000)
  51:      1209.94    0.000000  (  0.000000   0.000000   0.000000)
  52:      1219.62    0.000000  (  0.000000   0.000000   0.000000)
  53:      1252.68    0.000000  (  0.000000   0.000000   0.000000)
  54:      1269.34    0.000000  (  0.000000   0.000000   0.000000)
  55:      1277.72    0.000000  (  0.000000   0.000000   0.000000)
  56:      1278.07    0.000000  (  0.000000   0.000000   0.000000)
  57:      1294.84    0.000000  (  0.000000   0.000000   0.000000)
  58:      1325.74    0.000000  (  0.000000   0.000000   0.000000)
  59:      1360.04    0.000000  (  0.000000   0.000000   0.000000)
  60:      1370.06    0.000000  (  0.000000   0.000000   0.000000)
  61:      1423.57    0.000000  (  0.000000   0.000000   0.000000)
  62:      1427.62    0.000000  (  0.000000   0.000000   0.000000)
  63:      1454.76    0.000000  (  0.000000   0.000000   0.000000)
  64:      1471.78    0.000000  (  0.000000   0.000000   0.000000)
  65:      1498.97    0.000000  (  0.000000   0.000000   0.000000)
  66:      1504.42    0.000000  (  0.000000   0.000000   0.000000)
  67:      1506.76    0.000000  (  0.000000   0.000000   0.000000)
  68:      1511.93    0.000000  (  0.000000   0.000000   0.000000)
  69:      1556.26    0.000000  (  0.000000   0.000000   0.000000)
  70:      1559.93    0.000000  (  0.000000   0.000000   0.000000)
  71:      1567.37    0.000000  (  0.000000   0.000000   0.000000)
  72:      1666.45    0.000000  (  0.000000   0.000000   0.000000)
  73:      2873.78    0.000000  (  0.000000   0.000000   0.000000)
  74:      2891.71    0.000000  (  0.000000   0.000000   0.000000)
  75:      2941.10    0.000000  (  0.000000   0.000000   0.000000)
  76:      2947.46    0.000000  (  0.000000   0.000000   0.000000)
  77:      2959.00    0.000000  (  0.000000   0.000000   0.000000)
  78:      2965.61    0.000000  (  0.000000   0.000000   0.000000)
  79:      2978.47    0.000000  (  0.000000   0.000000   0.000000)
  80:      2981.19    0.000000  (  0.000000   0.000000   0.000000)
  81:      2987.04    0.000000  (  0.000000   0.000000   0.000000)
  82:      2998.67    0.000000  (  0.000000   0.000000   0.000000)
  83:      3049.48    0.000000  (  0.000000   0.000000   0.000000)
  84:      3057.63    0.000000  (  0.000000   0.000000   0.000000)
  85:      3064.06    0.000000  (  0.000000   0.000000   0.000000)
  86:      3073.45    0.000000  (  0.000000   0.000000   0.000000)
  87:      3092.37    0.000000  (  0.000000   0.000000   0.000000)
  88:      3163.05    0.000000  (  0.000000   0.000000   0.000000)
  89:      3581.42    0.000000  (  0.000000   0.000000   0.000000)

The first frequency considered to be a vibration is 6
The total number of vibrations considered is 84


--------------------------
THERMOCHEMISTRY AT 298.15K
--------------------------

Temperature         ... 298.15 K
Pressure            ... 1.00 atm
Total Mass          ... 179.26 AMU

Throughout the following assumptions are being made:
  (1) The electronic state is orbitally nondegenerate
  (2) There are no thermally accessible electronically excited states
  (3) Hindered rotations indicated by low frequency modes are not
      treated as such but are treated as vibrations and this may
      cause some error
  (4) All equations used are the standard statistical mechanics
      equations for an ideal gas
  (5) All vibrations are strictly harmonic

freq.      21.00  E(vib)   ...       0.56 
freq.      53.47  E(vib)   ...       0.52 
freq.      60.59  E(vib)   ...       0.51 
freq.      71.88  E(vib)   ...       0.50 
freq.      78.27  E(vib)   ...       0.49 
freq.     103.89  E(vib)   ...       0.46 
freq.     119.03  E(vib)   ...       0.44 
freq.     145.08  E(vib)   ...       0.41 
freq.     162.73  E(vib)   ...       0.39 
freq.     215.46  E(vib)   ...       0.34 
freq.     228.04  E(vib)   ...       0.33 
freq.     266.52  E(vib)   ...       0.29 
freq.     272.72  E(vib)   ...       0.29 
freq.     282.18  E(vib)   ...       0.28 
freq.     380.17  E(vib)   ...       0.21 
freq.     386.06  E(vib)   ...       0.20 
freq.     407.54  E(vib)   ...       0.19 
freq.     427.93  E(vib)   ...       0.18 
freq.     463.66  E(vib)   ...       0.16 
freq.     509.43  E(vib)   ...       0.14 
freq.     587.87  E(vib)   ...       0.10 
freq.     618.12  E(vib)   ...       0.09 
freq.     646.36  E(vib)   ...       0.09 
freq.     664.57  E(vib)   ...       0.08 
freq.     754.29  E(vib)   ...       0.06 
freq.     772.53  E(vib)   ...       0.05 
freq.     825.38  E(vib)   ...       0.04 
freq.     859.65  E(vib)   ...       0.04 
freq.     873.99  E(vib)   ...       0.04 
freq.     903.19  E(vib)   ...       0.03 
freq.     916.41  E(vib)   ...       0.03 
freq.     931.06  E(vib)   ...       0.03 
freq.     935.69  E(vib)   ...       0.03 
freq.     944.67  E(vib)   ...       0.03 
freq.     952.32  E(vib)   ...       0.03 
freq.     983.56  E(vib)   ...       0.02 
freq.    1020.61  E(vib)   ...       0.02 
freq.    1069.03  E(vib)   ...       0.02 
freq.    1072.15  E(vib)   ...       0.02 
freq.    1101.03  E(vib)   ...       0.02 
freq.    1117.77  E(vib)   ...       0.01 
freq.    1125.62  E(vib)   ...       0.01 
freq.    1145.27  E(vib)   ...       0.01 
freq.    1180.57  E(vib)   ...       0.01 
freq.    1188.40  E(vib)   ...       0.01 
freq.    1209.94  E(vib)   ...       0.01 
freq.    1219.62  E(vib)   ...       0.01 
freq.    1252.68  E(vib)   ...       0.01 
freq.    1269.34  E(vib)   ...       0.01 
freq.    1277.72  E(vib)   ...       0.01 
freq.    1278.07  E(vib)   ...       0.01 
freq.    1294.84  E(vib)   ...       0.01 
freq.    1325.74  E(vib)   ...       0.01 
freq.    1360.04  E(vib)   ...       0.01 
freq.    1370.06  E(vib)   ...       0.01 
freq.    1423.57  E(vib)   ...       0.00 
freq.    1427.62  E(vib)   ...       0.00 
freq.    1454.76  E(vib)   ...       0.00 
freq.    1471.78  E(vib)   ...       0.00 
freq.    1498.97  E(vib)   ...       0.00 
freq.    1504.42  E(vib)   ...       0.00 
freq.    1506.76  E(vib)   ...       0.00 
freq.    1511.93  E(vib)   ...       0.00 
freq.    1556.26  E(vib)   ...       0.00 
freq.    1559.93  E(vib)   ...       0.00 
freq.    1567.37  E(vib)   ...       0.00 
freq.    1666.45  E(vib)   ...       0.00 
freq.    2873.78  E(vib)   ...       0.00 
freq.    2891.71  E(vib)   ...       0.00 
freq.    2941.10  E(vib)   ...       0.00 
freq.    2947.46  E(vib)   ...       0.00 
freq.    2959.00  E(vib)   ...       0.00 
freq.    2965.61  E(vib)   ...       0.00 
freq.    2978.47  E(vib)   ...       0.00 
freq.    2981.19  E(vib)   ...       0.00 
freq.    2987.04  E(vib)   ...       0.00 
freq.    2998.67  E(vib)   ...       0.00 
freq.    3049.48  E(vib)   ...       0.00 
freq.    3057.63  E(vib)   ...       0.00 
freq.    3064.06  E(vib)   ...       0.00 
freq.    3073.45  E(vib)   ...       0.00 
freq.    3092.37  E(vib)   ...       0.00 
freq.    3163.05  E(vib)   ...       0.00 
freq.    3581.42  E(vib)   ...       0.00 

------------
INNER ENERGY
------------

The inner energy is: U= E(el) + E(ZPE) + E(vib) + E(rot) + E(trans)
    E(el)   - is the total energy from the electronic structure calculation
              = E(kin-el) + E(nuc-el) + E(el-el) + E(nuc-nuc)
    E(ZPE)  - the the zero temperature vibrational energy from the frequency calculation
    E(vib)  - the the finite temperature correction to E(ZPE) due to population
              of excited vibrational states
    E(rot)  - is the rotational thermal energy
    E(trans)- is the translational thermal energy

Summary of contributions to the inner energy U:
Electronic energy                ...    -39.19627121 Eh
Zero point energy                ...      0.25164443 Eh     157.91 kcal/mol
Thermal vibrational correction   ...      0.01260733 Eh       7.91 kcal/mol
Thermal rotational correction    ...      0.00141627 Eh       0.89 kcal/mol
Thermal translational correction ...      0.00141627 Eh       0.89 kcal/mol
-----------------------------------------------------------------------
Total thermal energy                    -38.92918691 Eh


Summary of corrections to the electronic energy:
(perhaps to be used in another calculation)
Total thermal correction                  0.01543987 Eh       9.69 kcal/mol
Non-thermal (ZPE) correction              0.25164443 Eh     157.91 kcal/mol
-----------------------------------------------------------------------
Total correction                          0.26708430 Eh     167.60 kcal/mol


--------
ENTHALPY
--------

The enthalpy is H = U + kB*T
                kB is Boltzmann's constant
Total free energy                 ...    -38.92918691 Eh 
Thermal Enthalpy correction       ...      0.00094421 Eh       0.59 kcal/mol
-----------------------------------------------------------------------
Total Enthalpy                    ...    -38.92824270 Eh


Note: Only C1 symmetry has been detected, increase convergence thresholds 
      if your molecule has a higher symmetry. Symmetry factor of 1.0 is   
      used for the rotational entropy correction. 
 

Note: Rotational entropy computed according to Herzberg 
Infrared and Raman Spectra, Chapter V,1, Van Nostrand Reinhold, 1945 
Point Group:  C1, Symmetry Number:   1  
Rotational constants in cm-1:     0.053307     0.009563     0.008542 

Vibrational entropy computed according to the QRRHO of S. Grimme
Chem.Eur.J. 2012 18 9955


-------
ENTROPY
-------

The entropy contributions are T*S = T*(S(el)+S(vib)+S(rot)+S(trans))
     S(el)   - electronic entropy
     S(vib)  - vibrational entropy
     S(rot)  - rotational entropy
     S(trans)- translational entropy
The entropies will be listed as mutliplied by the temperature to get
units of energy

Electronic entropy                ...      0.00000000 Eh      0.00 kcal/mol
Vibrational entropy               ...      0.02269285 Eh     14.24 kcal/mol
Rotational entropy                ...      0.01533843 Eh      9.62 kcal/mol
Translational entropy             ...      0.01969790 Eh     12.36 kcal/mol
-----------------------------------------------------------------------
Final entropy term                ...      0.05772917 Eh     36.23 kcal/mol

In case the symmetry of your molecule has not been determined correctly
or in case you have a reason to use a different symmetry number we print 
out the resulting rotational entropy values for sn=1,12 :
 --------------------------------------------------------
|  sn= 1 | S(rot)=       0.01533843 Eh      9.62 kcal/mol|
|  sn= 2 | S(rot)=       0.01468397 Eh      9.21 kcal/mol|
|  sn= 3 | S(rot)=       0.01430114 Eh      8.97 kcal/mol|
|  sn= 4 | S(rot)=       0.01402952 Eh      8.80 kcal/mol|
|  sn= 5 | S(rot)=       0.01381883 Eh      8.67 kcal/mol|
|  sn= 6 | S(rot)=       0.01364669 Eh      8.56 kcal/mol|
|  sn= 7 | S(rot)=       0.01350114 Eh      8.47 kcal/mol|
|  sn= 8 | S(rot)=       0.01337506 Eh      8.39 kcal/mol|
|  sn= 9 | S(rot)=       0.01326385 Eh      8.32 kcal/mol|
|  sn=10 | S(rot)=       0.01316437 Eh      8.26 kcal/mol|
|  sn=11 | S(rot)=       0.01307438 Eh      8.20 kcal/mol|
|  sn=12 | S(rot)=       0.01299223 Eh      8.15 kcal/mol|
 --------------------------------------------------------


-------------------
GIBBS FREE ENERGY
-------------------

The Gibbs free energy is G = H - T*S

Total enthalpy                    ...    -38.92824270 Eh 
Total entropy correction          ...     -0.05772917 Eh    -36.23 kcal/mol
-----------------------------------------------------------------------
Final Gibbs free energy         ...    -38.98597187 Eh

For completeness - the Gibbs free energy minus the electronic energy
G-E(el)                           ...      0.21029934 Eh    131.96 kcal/mol


Total Time for Numerical Frequencies  :        74.963 sec
Time for Reference State(s)           :         0.123 sec
Time for Displacements                :        68.495 sec

Timings for individual modules:

Sum of individual times         ...        0.267 sec (=   0.004 min)
XTB module                      ...        0.267 sec (=   0.004 min) 100.0 %
                             ****ORCA TERMINATED NORMALLY****
TOTAL RUN TIME: 0 days 0 hours 1 minutes 15 seconds 726 msec
(SLURM) EXECUTION TIME: 75.795801179 seconds.
