
                                 *****************
                                 * O   R   C   A *
                                 *****************

           --- An Ab Initio, DFT and Semiempirical electronic structure package ---

                  #######################################################
                  #                        -***-                        #
                  #          Department of theory and spectroscopy      #
                  #               Directorship: Frank Neese             #
                  #        Max Planck Institute fuer Kohlenforschung    #
                  #                Kaiser Wilhelm Platz 1               #
                  #                 D-45470 Muelheim/Ruhr               #
                  #                      Germany                        #
                  #                                                     #
                  #                  All rights reserved                #
                  #                        -***-                        #
                  #######################################################


                         Program Version 4.2.1 -  RELEASE  -


 With contributions from (in alphabetic order):
   Daniel Aravena         : Magnetic Suceptibility
   Michael Atanasov       : Ab Initio Ligand Field Theory (pilot matlab implementation)
   Alexander A. Auer      : GIAO ZORA, VPT2
   Ute Becker             : Parallelization
   Giovanni Bistoni       : ED, misc. LED, open-shell LED, HFLD
   Martin Brehm           : Molecular dynamics
   Dmytro Bykov           : SCF Hessian
   Vijay G. Chilkuri      : MRCI spin determinant printing, contributions to CSF-ICE
   Dipayan Datta          : RHF DLPNO-CCSD density
   Achintya Kumar Dutta   : EOM-CC, STEOM-CC
   Dmitry Ganyushin       : Spin-Orbit,Spin-Spin,Magnetic field MRCI
   Miquel Garcia          : C-PCM Hessian, Gaussian charge scheme
   Yang Guo               : DLPNO-NEVPT2, CIM, IAO-localization
   Andreas Hansen         : Spin unrestricted coupled pair/coupled cluster methods
   Benjamin Helmich-Paris : CASSCF linear response (MC-RPA)
   Lee Huntington         : MR-EOM, pCC
   Robert Izsak           : Overlap fitted RIJCOSX, COSX-SCS-MP3, EOM
   Christian Kollmar      : KDIIS, OOCD, Brueckner-CCSD(T), CCSD density
   Simone Kossmann        : Meta GGA functionals, TD-DFT gradient, OOMP2, MP2 Hessian
   Martin Krupicka        : AUTO-CI
   Lucas Lang             : DCDCAS
   Dagmar Lenk            : GEPOL surface, SMD
   Dimitrios Liakos       : Extrapolation schemes; Compound Job, initial MDCI parallelization
   Dimitrios Manganas     : Further ROCIS development; embedding schemes
   Dimitrios Pantazis     : SARC Basis sets
   Taras Petrenko         : DFT Hessian,TD-DFT gradient, ASA, ECA, R-Raman, ABS, FL, XAS/XES, NRVS
   Peter Pinski           : DLPNO-MP2, DLPNO-MP2 Gradient
   Christoph Reimann      : Effective Core Potentials
   Marius Retegan         : Local ZFS, SOC
   Christoph Riplinger    : Optimizer, TS searches, QM/MM, DLPNO-CCSD(T), (RO)-DLPNO pert. Triples
   Tobias Risthaus        : Range-separated hybrids, TD-DFT gradient, RPA, STAB
   Michael Roemelt        : Original ROCIS implementation
   Masaaki Saitow         : Open-shell DLPNO-CCSD energy and density
   Barbara Sandhoefer     : DKH picture change effects
   Avijit Sen             : IP-ROCIS
   Kantharuban Sivalingam : CASSCF convergence, NEVPT2, FIC-MRCI
   Bernardo de Souza      : ESD, SOC TD-DFT
   Georgi Stoychev        : AutoAux, RI-MP2 NMR
   Willem Van den Heuvel  : Paramagnetic NMR
   Boris Wezisla          : Elementary symmetry handling
   Frank Wennmohs         : Technical directorship


 We gratefully acknowledge several colleagues who have allowed us to
 interface, adapt or use parts of their codes:
   Stefan Grimme, W. Hujo, H. Kruse,             : VdW corrections, initial TS optimization,
                  C. Bannwarth                     DFT functionals, gCP, sTDA/sTD-DF
   Ed Valeev, F. Pavosevic, A. Kumar             : LibInt (2-el integral package), F12 methods
   Garnet Chan, S. Sharma, J. Yang, R. Olivares  : DMRG
   Ulf Ekstrom                                   : XCFun DFT Library
   Mihaly Kallay                                 : mrcc  (arbitrary order and MRCC methods)
   Andreas Klamt, Michael Diedenhofen            : otool_cosmo (COSMO solvation model)
   Jiri Pittner, Ondrej Demel                    : Mk-CCSD
   Frank Weinhold                                : gennbo (NPA and NBO analysis)
   Christopher J. Cramer and Donald G. Truhlar   : smd solvation model
   Lars Goerigk                                  : TD-DFT with DH, B97 family of functionals
   V. Asgeirsson, H. Jonsson                     : NEB implementation
   FAccTs GmbH                                   : IRC, NEB, NEB-TS, Multilevel, MM, QM/MM, CI optimization
   S Lehtola, MJT Oliveira, MAL Marques          : LibXC Library


 Your calculation uses the libint2 library for the computation of 2-el integrals
 For citations please refer to: http://libint.valeyev.net

 Your ORCA version has been built with support for libXC version: 4.2.3
 For citations please refer to: https://tddft.org/programs/libxc/

 This ORCA versions uses:
   CBLAS   interface :  Fast vector & matrix operations
   LAPACKE interface :  Fast linear algebra routines
   SCALAPACK package :  Parallel linear algebra routines




***************************************
The coordinates will be read from file: init.xyz
***************************************


Your calculation utilizes the SMD solvation module
Please cite in your paper:
A.V. Marenich, C.J. Cramer, D.G. Truhlar J. Phys. Chem. B, 113, (2009), 6378 

Your calculation utilizes the semiempirical GFN2-xTB method
Please cite in your paper:
C. Bannwarth, Ehlert S., S. Grimme,  J. Chem. Theory Comput., 15, (2019), 1652.
   

----- Orbital basis set information -----
Your calculation utilizes the basis: def2-SVP
   F. Weigend and R. Ahlrichs, Phys. Chem. Chem. Phys. 7, 3297 (2005).

================================================================================
                                        WARNINGS
                       Please study these warnings very carefully!
================================================================================

WARNING: Gradients needed for Numerical Frequencies
  ===> : Setting RunTyp to EnGrad

WARNING: The environment variable RSH_COMMAND is not set!
  ===> : All Displacements for the Numerical Hessian calculation
         will be started on localhost

WARNING: Found dipole moment calculation with XTB calculation
  ===> : Switching off dipole moment calculation


INFO   : the flag for use of LIBINT has been found!

================================================================================
                                       INPUT FILE
================================================================================
NAME = freq.inp
|  1> ! XTB2 NumFreq
|  2> %maxcore 1450
|  3> 
|  4> * xyzfile 0 1 init.xyz
|  5> 
|  6> %cpcm
|  7>  smd true
|  8>  smdsolvent "ch2cl2"
|  9> end
| 10> 
| 11> %pal
| 12>  nprocs 6
| 13> end
| 14> 
| 15>                          ****END OF INPUT****
================================================================================

                     *******************************
                     * Energy+Gradient Calculation *
                     *******************************

      -----------------------------------------------------------      
     |                   =====================                   |     
     |                           x T B                           |     
     |                   =====================                   |     
     |                         S. Grimme                         |     
     |          Mulliken Center for Theoretical Chemistry        |     
     |                    University of Bonn                     |     
      -----------------------------------------------------------      

   * xtb version 6.3.2 (30e43eb) compiled by 'schneider@apollo14' on 2020-08-08

   xtb is free software: you can redistribute it and/or modify it under
   the terms of the GNU Lesser General Public License as published by
   the Free Software Foundation, either version 3 of the License, or
   (at your option) any later version.
   
   xtb is distributed in the hope that it will be useful,
   but WITHOUT ANY WARRANTY; without even the implied warranty of
   MERCHANTABILITY or FITNESS FOR A PARTICULAR PURPOSE.  See the
   GNU Lesser General Public License for more details.
   
   Cite this work as:
   * S. Grimme, C. Bannwarth, P. Shushkov, J. Chem. Theory Comput., 2017,
     13, 1989-2009. DOI: 10.1021/acs.jctc.7b00118
   * C. Bannwarth, S. Ehlert and S. Grimme., J. Chem. Theory Comput., 2019,
     15, 1652-1671. DOI: 10.1021/acs.jctc.8b01176
   * P. Pracht, E. Caldeweyher, S. Ehlert, S. Grimme, ChemRxiv, 2019, preprint.
     DOI: 10.26434/chemrxiv.8326202.v1
   
   for GFN-FF:
   * S. Spicher and S. Grimme, Angew. Chem. Int. Ed., 2020,
     DOI: 10.1002/anie.202004239
   
   for DFT-D4:
   * E. Caldeweyher, C. Bannwarth and S. Grimme, J. Chem. Phys., 2017,
     147, 034112. DOI: 10.1063/1.4993215
   * E. Caldeweyher, S. Ehlert, A. Hansen, H. Neugebauer, S. Spicher,
     C. Bannwarth and S. Grimme, J. Chem. Phys., 2019, 150, 154122.
     DOI: 10.1063/1.5090222
   
   for sTDA-xTB:
   * S. Grimme and C. Bannwarth, J. Chem. Phys., 2016, 145, 054103.
     DOI: 10.1063/1.4959605
   
   in the mass-spec context:
   * V. Asgeirsson, C. Bauer and S. Grimme, Chem. Sci., 2017, 8, 4879.
     DOI: 10.1039/c7sc00601b
   * J. Koopman and S. Grimme, ACS Omega 2019, 4, 12, 15120-15133.
     DOI: 10.1021/acsomega.9b02011
   
   for metadynamics refer to:
   * S. Grimme, J. Chem. Theory Comput., 2019, 155, 2847-2862
     DOI: 10.1021/acs.jctc.9b00143
   
   with help from (in alphabetical order)
   C. Bannwarth, F. Bohle, G. Brandenburg, E. Caldeweyher, M. Checinski,
   S. Dohm, S. Ehlert, S. Ehrlich, F. März, H. Neugebauer, J. Pisarek,
   P. Pracht, P. Shushkov, and S. Spicher.
   
 * started run on 2020/12/20 at 16:31:03.872     

           -------------------------------------------------
          |                Calculation Setup                |
           -------------------------------------------------

          program call               : /opt/orca/otool_xtb freq_XTB.xyz --grad -c 0 -u 0 -P 6 --namespace freq --gbsa CH2Cl2
          calculation namespace      : freq
          coordinate file            : freq_XTB.xyz
          omp threads                :                     6
          number of atoms            :                    33
          number of electrons        :                    80
          charge                     :                     0
          spin                       :                   0.0
          first test random number   :      0.20469265751234

   ID    Z sym.   atoms
    1    6 C      1-7, 12, 14, 27, 30
    2    1 H      8-10, 13, 15-18, 20, 21, 23-26, 28, 29, 31-33
    3    7 N      11
    4    8 O      19, 22

molecular fragmentation (1/2 indicates fragments):
111111111111211111212222111111111
# atoms in fragment 1/2:    27     6
 fragment masses (1/2) :      161.24       36.03
CMA distance (Bohr)    :   7.149
constraining FC (au)   :  0.0500
########################################################################
[WARNING] Please study the warnings concerning your input carefully
-1- prog_main_parseArguments: Process number higher than OMP_NUM_THREADS, I hope you know what you are doing.
########################################################################

           -------------------------------------------------
          |                 G F N 2 - x T B                 |
           -------------------------------------------------

        Reference                      10.1021/acs.jctc.8b01176
      * Hamiltonian:
        H0-scaling (s, p, d)           1.850000    2.230000    2.230000
        zeta-weighting                 0.500000
      * Dispersion:
        s8                             2.700000
        a1                             0.520000
        a2                             5.000000
        s9                             5.000000
      * Repulsion:
        kExp                           1.500000    1.000000
        rExp                           1.000000
      * Coulomb:
        alpha                          2.000000
        third order                    shell-resolved
        anisotropic                    true
        a3                             3.000000
        a5                             4.000000
        cn-shift                       1.200000
        cn-exp                         4.000000
        max-rad                        5.000000

      * Solvation model:               GBSA
        Solvent                        CH2Cl2
        Parameter file                 internal GFN2-xTB/GBSA
        Dielectric constant                8.9300E+00
        Reference state                gsolv [1 M gas/solution]
        Free energy shift                  4.4408E-03 Eh       2.7867E+00 kcal/mol
        Temperature                        2.9815E+02 K
        Density                            1.3300E+00 kg/L
        Solvent mass                       8.4930E+01 g/mol
        Interaction kernel             Still
        Born radius scaling (c1)           1.4917E+00
        Born radii integrator          GBOBC
        Born offset                        0.0000E+00 a0       0.0000E+00 AA
        H-bond correction              false
        Ion screening                  false
        Surface tension                    1.0000E-05 Eh       1.5569E+01 dyn/cm
        Grid points                               230 per atom

          ...................................................
          :                      SETUP                      :
          :.................................................:
          :  # basis functions                  75          :
          :  # atomic orbitals                  75          :
          :  # shells                           47          :
          :  # electrons                        80          :
          :  max. iterations                   250          :
          :  Hamiltonian                  GFN2-xTB          :
          :  restarted?                      false          :
          :  GBSA solvation                   true          :
          :  PC potential                    false          :
          :  electronic temp.          300.0000000     K    :
          :  accuracy                    1.0000000          :
          :  -> integral cutoff          0.2500000E+02      :
          :  -> integral neglect         0.1000000E-07      :
          :  -> SCF convergence          0.1000000E-05 Eh   :
          :  -> wf. convergence          0.1000000E-03 e    :
          :  Broyden damping             0.4000000          :
          ...................................................

 iter      E             dE          RMSdq      gap      omega  full diag
   1    -44.8663560 -0.448664E+02  0.363E+00    3.27       0.0  T
   2    -44.9015453 -0.351894E-01  0.219E+00    3.35       1.0  T
   3    -44.8960686  0.547670E-02  0.792E-01    2.99       1.0  T
   4    -44.9050786 -0.900995E-02  0.324E-01    3.17       1.0  T
   5    -44.9068303 -0.175171E-02  0.695E-02    3.11       1.0  T
   6    -44.9068430 -0.126691E-04  0.345E-02    3.12       1.0  T
   7    -44.9068520 -0.904056E-05  0.161E-02    3.12       1.1  T
   8    -44.9068541 -0.206414E-05  0.405E-03    3.12       4.3  T
   9    -44.9068542 -0.144601E-06  0.179E-03    3.12       9.7  T
  10    -44.9068542 -0.464064E-08  0.989E-04    3.12      17.6  T
  11    -44.9068542 -0.107468E-07  0.292E-04    3.12      59.5  T

   *** convergence criteria satisfied after 11 iterations ***

         #    Occupation            Energy/Eh            Energy/eV
      -------------------------------------------------------------
         1        2.0000           -0.6778553             -18.4454
       ...           ...                  ...                  ...
        34        2.0000           -0.4321829             -11.7603
        35        2.0000           -0.4308839             -11.7249
        36        2.0000           -0.4257951             -11.5865
        37        2.0000           -0.4246707             -11.5559
        38        2.0000           -0.4113929             -11.1946
        39        2.0000           -0.4042987             -11.0015
        40        2.0000           -0.3933024             -10.7023 (HOMO)
        41                         -0.2786570              -7.5826 (LUMO)
        42                         -0.2309337              -6.2840
        43                         -0.1948913              -5.3033
        44                         -0.0916070              -2.4928
        45                          0.0170910               0.4651
       ...                                ...                  ...
        75                          0.6512749              17.7221
      -------------------------------------------------------------
                  HL-Gap            0.1146454 Eh            3.1197 eV
             Fermi-level           -0.3359797 Eh           -9.1425 eV

 SCC (total)                   0 d,  0 h,  0 min,  0.095 sec
 SCC setup                      ...        0 min,  0.006 sec (  6.250%)
 Dispersion                     ...        0 min,  0.002 sec (  2.030%)
 classical contributions        ...        0 min,  0.003 sec (  3.682%)
 integral evaluation            ...        0 min,  0.008 sec (  8.466%)
 iterations                     ...        0 min,  0.054 sec ( 57.347%)
 molecular gradient             ...        0 min,  0.020 sec ( 21.460%)
 printout                       ...        0 min,  0.001 sec (  0.743%)

         :::::::::::::::::::::::::::::::::::::::::::::::::::::
         ::                     SUMMARY                     ::
         :::::::::::::::::::::::::::::::::::::::::::::::::::::
         :: total energy             -44.280326489639 Eh    ::
         :: total w/o Gsasa/hb       -44.262206055529 Eh    ::
         :: gradient norm              0.025315596159 Eh/a0 ::
         :: HOMO-LUMO gap              3.119660964479 eV    ::
         ::.................................................::
         :: SCC energy               -44.906854242473 Eh    ::
         :: -> isotropic ES            0.083133002205 Eh    ::
         :: -> anisotropic ES         -0.002926988954 Eh    ::
         :: -> anisotropic XC          0.026745358979 Eh    ::
         :: -> dispersion             -0.024538074162 Eh    ::
         :: -> Gsolv                  -0.025577857151 Eh    ::
         ::    -> Gborn               -0.007457423042 Eh    ::
         ::    -> Gsasa               -0.022561263283 Eh    ::
         ::    -> Ghb                  0.000000000000 Eh    ::
         ::    -> Gshift               0.004440829173 Eh    ::
         :: repulsion energy           0.626541938292 Eh    ::
         :: add. restraining           0.000000000000 Eh    ::
         :: total charge               0.000000000000 e     ::
         :::::::::::::::::::::::::::::::::::::::::::::::::::::

           -------------------------------------------------
          |                Property Printout                |
           -------------------------------------------------

    * Orbital Energies and Occupations

         #    Occupation            Energy/Eh            Energy/eV
      -------------------------------------------------------------
         1        2.0000           -0.6778553             -18.4454
       ...           ...                  ...                  ...
        28        2.0000           -0.4752364             -12.9318
        29        2.0000           -0.4645817             -12.6419
        30        2.0000           -0.4482984             -12.1988
        31        2.0000           -0.4435008             -12.0683
        32        2.0000           -0.4429564             -12.0535
        33        2.0000           -0.4390368             -11.9468
        34        2.0000           -0.4321829             -11.7603
        35        2.0000           -0.4308839             -11.7249
        36        2.0000           -0.4257951             -11.5865
        37        2.0000           -0.4246707             -11.5559
        38        2.0000           -0.4113929             -11.1946
        39        2.0000           -0.4042987             -11.0015
        40        2.0000           -0.3933024             -10.7023 (HOMO)
        41                         -0.2786570              -7.5826 (LUMO)
        42                         -0.2309337              -6.2840
        43                         -0.1948913              -5.3033
        44                         -0.0916070              -2.4928
        45                          0.0170910               0.4651
        46                          0.0459740               1.2510
        47                          0.0927684               2.5244
        48                          0.0998611               2.7174
        49                          0.1117178               3.0400
        50                          0.1193843               3.2486
        51                          0.1306312               3.5547
       ...                                ...                  ...
        75                          0.6512749              17.7221
      -------------------------------------------------------------
                  HL-Gap            0.1146454 Eh            3.1197 eV
             Fermi-level           -0.3359797 Eh           -9.1425 eV

     #   Z          covCN         q      C6AA      α(0)
     1   6 C        2.969     0.003    27.949     8.672
     2   6 C        2.923    -0.029    28.735     8.791
     3   6 C        2.913    -0.028    28.710     8.786
     4   6 C        2.916    -0.023    28.590     8.768
     5   6 C        2.914    -0.027    28.677     8.781
     6   6 C        2.918    -0.030    28.738     8.791
     7   6 C        2.856     0.079    26.232     8.395
     8   1 H        0.925     0.038     2.478     2.462
     9   1 H        0.926     0.067     2.115     2.274
    10   1 H        0.925     0.043     2.406     2.426
    11   7 N        1.825    -0.263    27.693     7.798
    12   6 C        3.765     0.018    20.309     6.423
    13   1 H        0.801     0.318     0.669     1.285
    14   6 C        3.802    -0.060    21.661     6.626
    15   1 H        0.924     0.013     2.838     2.634
    16   1 H        0.924     0.044     2.394     2.420
    17   1 H        0.924     0.051     2.308     2.376
    18   1 H        0.924     0.034     2.527     2.486
    19   8 O        1.608    -0.629    25.888     6.867
    20   1 H        0.924     0.008     2.918     2.671
    21   1 H        0.805     0.284     0.771     1.379
    22   8 O        1.606    -0.621    25.699     6.842
    23   1 H        0.803     0.314     0.682     1.297
    24   1 H        0.805     0.288     0.757     1.367
    25   1 H        0.925     0.041     2.430     2.438
    26   1 H        0.925     0.048     2.346     2.395
    27   6 C        3.800    -0.053    21.520     6.605
    28   1 H        0.924     0.034     2.537     2.491
    29   1 H        0.924     0.031     2.574     2.509
    30   6 C        3.750    -0.103    22.525     6.769
    31   1 H        0.924     0.037     2.487     2.466
    32   1 H        0.924     0.037     2.486     2.466
    33   1 H        0.924     0.035     2.518     2.481

 Mol. C6AA /au·bohr⁶  :       9602.006730
 Mol. C8AA /au·bohr⁸  :     214513.442704
 Mol. α(0) /au        :        151.236846


Wiberg/Mayer (AO) data.
largest (>0.10) Wiberg bond orders for each atom

 ---------------------------------------------------------------------------
     #   Z sym  total        # sym  WBO       # sym  WBO       # sym  WBO
 ---------------------------------------------------------------------------
     1   6 C    3.988 --     2 C    1.376     6 C    1.365     7 C    1.089
     2   6 C    3.987 --     3 C    1.452     1 C    1.376     8 H    0.968
                             5 C    0.105
     3   6 C    3.991 --     2 C    1.452     4 C    1.436    25 H    0.970
                             6 C    0.106
     4   6 C    3.987 --     3 C    1.436     5 C    1.423    10 H    0.971
     5   6 C    3.991 --     6 C    1.465     4 C    1.423    26 H    0.969
                             2 C    0.105
     6   6 C    3.988 --     5 C    1.465     1 C    1.365     9 H    0.960
                             3 C    0.106
     7   6 C    3.967 --    11 N    1.827     1 C    1.089    20 H    0.941
     8   1 H    0.999 --     2 C    0.968
     9   1 H    0.995 --     6 C    0.960
    10   1 H    0.998 --     4 C    0.971
    11   7 N    3.119 --     7 C    1.827    12 C    1.018
    12   6 C    3.983 --    11 N    1.018    14 C    0.988    15 H    0.966
                            16 H    0.959
    13   1 H    0.899 --    22 O    0.831
    14   6 C    3.990 --    27 C    1.006    12 C    0.988    18 H    0.977
                            17 H    0.975
    15   1 H    1.000 --    12 C    0.966
    16   1 H    0.995 --    12 C    0.959
    17   1 H    0.997 --    14 C    0.975
    18   1 H    0.999 --    14 C    0.977
    19   8 O    1.802 --    21 H    0.918    23 H    0.855
    20   1 H    0.999 --     7 C    0.941
    21   1 H    0.919 --    19 O    0.918
    22   8 O    1.846 --    24 H    0.915    13 H    0.831
    23   1 H    0.902 --    19 O    0.855
    24   1 H    0.917 --    22 O    0.915
    25   1 H    0.998 --     3 C    0.970
    26   1 H    0.997 --     5 C    0.969
    27   6 C    3.996 --    30 C    1.019    14 C    1.006    29 H    0.978
                            28 H    0.978
    28   1 H    0.999 --    27 C    0.978
    29   1 H    0.999 --    27 C    0.978
    30   6 C    3.995 --    27 C    1.019    33 H    0.988    31 H    0.988
                            32 H    0.987
    31   1 H    0.999 --    30 C    0.988
    32   1 H    0.998 --    30 C    0.987
    33   1 H    0.999 --    30 C    0.988
 ---------------------------------------------------------------------------

Topologies differ in total number of bonds
Writing topology from bond orders to xtbtopo.mol

molecular dipole:
                 x           y           z       tot (Debye)
 q only:        0.200      -1.461       0.175
   full:        0.210      -2.248       0.328       5.798
molecular quadrupole (traceless):
                xx          xy          yy          xz          yz          zz
 q only:       10.984       7.210     -13.193      -1.531       6.021       2.208
  q+dip:       12.164      11.068     -15.156      -0.489       3.455       2.991
   full:       10.900      11.195     -15.506      -1.181       6.349       4.606


           -------------------------------------------------
          | TOTAL ENERGY              -44.280326489639 Eh   |
          | GRADIENT NORM               0.025315596159 Eh/α |
          | HOMO-LUMO GAP               3.119660964479 eV   |
           -------------------------------------------------

------------------------------------------------------------------------
 * finished run on 2020/12/20 at 16:31:04.064     
------------------------------------------------------------------------
 total:
 * wall-time:     0 d,  0 h,  0 min,  0.192 sec
 *  cpu-time:     0 d,  0 h,  0 min,  1.459 sec
 * ratio c/w:     7.593 speedup
 SCF:
 * wall-time:     0 d,  0 h,  0 min,  0.099 sec
 *  cpu-time:     0 d,  0 h,  0 min,  0.820 sec
 * ratio c/w:     8.254 speedup


-------------------------   --------------------
FINAL SINGLE POINT ENERGY       -44.280326489640
-------------------------   --------------------


----------------------------------------------------------------------------
                           ORCA NUMERICAL FREQUENCIES
                              (6-process run)
----------------------------------------------------------------------------

Number of atoms                ... 33
Central differences            ... used
Number of displacements        ... 198
Numerical increment            ... 5.000e-03 bohr
IR-spectrum generation         ... on
Raman-spectrum generation      ... off
Surface Crossing Hessian       ... off
List of participating nodes    ...  freq.hostnames

The output will be reduced. Please look at the following files:
SCF program output             ... >freq.lastscf
Integral program output        ... >freq.lastint
Gradient program output        ... >freq.lastgrad
Dipole moment program output   ... >freq.lastmom
AutoCI program output          ... >freq.lastautoci


         <<< Energy and Gradient at the input geometry >>>

        <<< Energy and Gradient at displaced geometries >>>
             <<<Displacing   1/coordinate 1 (+)>>>
             <<<Displacing   1/coordinate 2 (+)>>>
             <<<Displacing   2/coordinate 1 (+)>>>
             <<<Displacing   2/coordinate 2 (+)>>>
             <<<Displacing   2/coordinate 3 (+)>>>
             <<<Displacing   1/coordinate 3 (+)>>>
             <<<Displacing   2/coordinate 2 (-)>>>
             <<<Displacing   1/coordinate 3 (-)>>>
             <<<Displacing   1/coordinate 1 (-)>>>
             <<<Displacing   1/coordinate 2 (-)>>>
             <<<Displacing   2/coordinate 1 (-)>>>
             <<<Displacing   2/coordinate 3 (-)>>>
             <<<Displacing   3/coordinate 1 (+)>>>
             <<<Displacing   3/coordinate 2 (+)>>>
             <<<Displacing   4/coordinate 1 (+)>>>
             <<<Displacing   3/coordinate 3 (+)>>>
             <<<Displacing   4/coordinate 2 (+)>>>
             <<<Displacing   3/coordinate 2 (-)>>>
             <<<Displacing   4/coordinate 3 (+)>>>
             <<<Displacing   3/coordinate 1 (-)>>>
             <<<Displacing   4/coordinate 1 (-)>>>
             <<<Displacing   3/coordinate 3 (-)>>>
             <<<Displacing   4/coordinate 2 (-)>>>
             <<<Displacing   4/coordinate 3 (-)>>>
             <<<Displacing   6/coordinate 2 (+)>>>
             <<<Displacing   6/coordinate 1 (+)>>>
             <<<Displacing   5/coordinate 1 (+)>>>
             <<<Displacing   5/coordinate 3 (+)>>>
             <<<Displacing   5/coordinate 2 (+)>>>
             <<<Displacing   6/coordinate 3 (+)>>>
             <<<Displacing   6/coordinate 2 (-)>>>
             <<<Displacing   5/coordinate 1 (-)>>>
             <<<Displacing   6/coordinate 1 (-)>>>
             <<<Displacing   5/coordinate 2 (-)>>>
             <<<Displacing   5/coordinate 3 (-)>>>
             <<<Displacing   6/coordinate 3 (-)>>>
             <<<Displacing   7/coordinate 2 (+)>>>
             <<<Displacing   7/coordinate 3 (+)>>>
             <<<Displacing   7/coordinate 1 (+)>>>
             <<<Displacing   8/coordinate 2 (+)>>>
             <<<Displacing   7/coordinate 3 (-)>>>
             <<<Displacing   7/coordinate 2 (-)>>>
             <<<Displacing   8/coordinate 3 (+)>>>
             <<<Displacing   8/coordinate 1 (+)>>>
             <<<Displacing   8/coordinate 2 (-)>>>
             <<<Displacing   7/coordinate 1 (-)>>>
             <<<Displacing   8/coordinate 3 (-)>>>
             <<<Displacing   8/coordinate 1 (-)>>>
             <<<Displacing   9/coordinate 2 (+)>>>
             <<<Displacing  10/coordinate 3 (+)>>>
             <<<Displacing   9/coordinate 1 (+)>>>
             <<<Displacing  10/coordinate 2 (+)>>>
             <<<Displacing   9/coordinate 2 (-)>>>
             <<<Displacing  10/coordinate 3 (-)>>>
             <<<Displacing   9/coordinate 1 (-)>>>
             <<<Displacing  10/coordinate 2 (-)>>>
             <<<Displacing   9/coordinate 3 (+)>>>
             <<<Displacing  10/coordinate 1 (+)>>>
             <<<Displacing   9/coordinate 3 (-)>>>
             <<<Displacing  10/coordinate 1 (-)>>>
             <<<Displacing  12/coordinate 1 (+)>>>
             <<<Displacing  11/coordinate 1 (+)>>>
             <<<Displacing  12/coordinate 1 (-)>>>
             <<<Displacing  11/coordinate 3 (+)>>>
             <<<Displacing  11/coordinate 1 (-)>>>
             <<<Displacing  11/coordinate 3 (-)>>>
             <<<Displacing  11/coordinate 2 (+)>>>
             <<<Displacing  12/coordinate 2 (+)>>>
             <<<Displacing  12/coordinate 3 (+)>>>
             <<<Displacing  11/coordinate 2 (-)>>>
             <<<Displacing  12/coordinate 2 (-)>>>
             <<<Displacing  12/coordinate 3 (-)>>>
             <<<Displacing  13/coordinate 2 (+)>>>
             <<<Displacing  13/coordinate 2 (-)>>>
             <<<Displacing  13/coordinate 3 (+)>>>
             <<<Displacing  14/coordinate 3 (+)>>>
             <<<Displacing  13/coordinate 1 (+)>>>
             <<<Displacing  14/coordinate 3 (-)>>>
             <<<Displacing  13/coordinate 3 (-)>>>
             <<<Displacing  13/coordinate 1 (-)>>>
             <<<Displacing  14/coordinate 2 (+)>>>
             <<<Displacing  14/coordinate 2 (-)>>>
             <<<Displacing  14/coordinate 1 (+)>>>
             <<<Displacing  14/coordinate 1 (-)>>>
             <<<Displacing  15/coordinate 2 (+)>>>
             <<<Displacing  15/coordinate 1 (+)>>>
             <<<Displacing  15/coordinate 2 (-)>>>
             <<<Displacing  16/coordinate 1 (+)>>>
             <<<Displacing  15/coordinate 1 (-)>>>
             <<<Displacing  16/coordinate 1 (-)>>>
             <<<Displacing  16/coordinate 2 (+)>>>
             <<<Displacing  15/coordinate 3 (+)>>>
             <<<Displacing  16/coordinate 2 (-)>>>
             <<<Displacing  15/coordinate 3 (-)>>>
             <<<Displacing  16/coordinate 3 (+)>>>
             <<<Displacing  16/coordinate 3 (-)>>>
             <<<Displacing  17/coordinate 1 (+)>>>
             <<<Displacing  17/coordinate 1 (-)>>>
             <<<Displacing  17/coordinate 2 (+)>>>
             <<<Displacing  17/coordinate 3 (+)>>>
             <<<Displacing  17/coordinate 2 (-)>>>
             <<<Displacing  17/coordinate 3 (-)>>>
             <<<Displacing  18/coordinate 2 (+)>>>
             <<<Displacing  18/coordinate 1 (+)>>>
             <<<Displacing  18/coordinate 1 (-)>>>
             <<<Displacing  18/coordinate 2 (-)>>>
             <<<Displacing  18/coordinate 3 (+)>>>
             <<<Displacing  18/coordinate 3 (-)>>>
             <<<Displacing  19/coordinate 2 (+)>>>
             <<<Displacing  19/coordinate 1 (+)>>>
             <<<Displacing  19/coordinate 2 (-)>>>
             <<<Displacing  19/coordinate 1 (-)>>>
             <<<Displacing  20/coordinate 1 (+)>>>
             <<<Displacing  19/coordinate 3 (+)>>>
             <<<Displacing  20/coordinate 1 (-)>>>
             <<<Displacing  19/coordinate 3 (-)>>>
             <<<Displacing  20/coordinate 2 (+)>>>
             <<<Displacing  20/coordinate 2 (-)>>>
             <<<Displacing  20/coordinate 3 (+)>>>
             <<<Displacing  20/coordinate 3 (-)>>>
             <<<Displacing  21/coordinate 1 (+)>>>
             <<<Displacing  21/coordinate 2 (+)>>>
             <<<Displacing  21/coordinate 1 (-)>>>
             <<<Displacing  21/coordinate 3 (+)>>>
             <<<Displacing  21/coordinate 2 (-)>>>
             <<<Displacing  21/coordinate 3 (-)>>>
             <<<Displacing  22/coordinate 1 (+)>>>
             <<<Displacing  22/coordinate 1 (-)>>>
             <<<Displacing  22/coordinate 2 (+)>>>
             <<<Displacing  22/coordinate 2 (-)>>>
             <<<Displacing  22/coordinate 3 (+)>>>
             <<<Displacing  22/coordinate 3 (-)>>>
             <<<Displacing  23/coordinate 1 (+)>>>
             <<<Displacing  23/coordinate 1 (-)>>>
             <<<Displacing  23/coordinate 2 (+)>>>
             <<<Displacing  23/coordinate 2 (-)>>>
             <<<Displacing  23/coordinate 3 (+)>>>
             <<<Displacing  23/coordinate 3 (-)>>>
             <<<Displacing  24/coordinate 2 (+)>>>
             <<<Displacing  24/coordinate 1 (+)>>>
             <<<Displacing  24/coordinate 1 (-)>>>
             <<<Displacing  24/coordinate 2 (-)>>>
             <<<Displacing  24/coordinate 3 (+)>>>
             <<<Displacing  24/coordinate 3 (-)>>>
             <<<Displacing  25/coordinate 1 (+)>>>
             <<<Displacing  25/coordinate 1 (-)>>>
             <<<Displacing  25/coordinate 2 (+)>>>
             <<<Displacing  25/coordinate 3 (+)>>>
             <<<Displacing  25/coordinate 2 (-)>>>
             <<<Displacing  25/coordinate 3 (-)>>>
             <<<Displacing  26/coordinate 1 (+)>>>
             <<<Displacing  26/coordinate 2 (+)>>>
             <<<Displacing  26/coordinate 1 (-)>>>
             <<<Displacing  26/coordinate 2 (-)>>>
             <<<Displacing  26/coordinate 3 (+)>>>
             <<<Displacing  26/coordinate 3 (-)>>>
             <<<Displacing  27/coordinate 1 (+)>>>
             <<<Displacing  27/coordinate 1 (-)>>>
             <<<Displacing  27/coordinate 2 (+)>>>
             <<<Displacing  27/coordinate 2 (-)>>>
             <<<Displacing  27/coordinate 3 (+)>>>
             <<<Displacing  27/coordinate 3 (-)>>>
             <<<Displacing  28/coordinate 2 (+)>>>
             <<<Displacing  28/coordinate 1 (+)>>>
             <<<Displacing  28/coordinate 2 (-)>>>
             <<<Displacing  28/coordinate 1 (-)>>>
             <<<Displacing  28/coordinate 3 (+)>>>
             <<<Displacing  28/coordinate 3 (-)>>>
             <<<Displacing  29/coordinate 1 (+)>>>
             <<<Displacing  29/coordinate 1 (-)>>>
             <<<Displacing  29/coordinate 2 (+)>>>
             <<<Displacing  29/coordinate 3 (+)>>>
             <<<Displacing  29/coordinate 2 (-)>>>
             <<<Displacing  29/coordinate 3 (-)>>>
             <<<Displacing  30/coordinate 1 (+)>>>
             <<<Displacing  30/coordinate 1 (-)>>>
             <<<Displacing  30/coordinate 2 (+)>>>
             <<<Displacing  30/coordinate 2 (-)>>>
             <<<Displacing  30/coordinate 3 (+)>>>
             <<<Displacing  30/coordinate 3 (-)>>>
             <<<Displacing  31/coordinate 1 (+)>>>
             <<<Displacing  31/coordinate 2 (+)>>>
             <<<Displacing  31/coordinate 1 (-)>>>
             <<<Displacing  31/coordinate 2 (-)>>>
             <<<Displacing  31/coordinate 3 (+)>>>
             <<<Displacing  31/coordinate 3 (-)>>>
             <<<Displacing  32/coordinate 1 (+)>>>
             <<<Displacing  32/coordinate 1 (-)>>>
             <<<Displacing  32/coordinate 2 (+)>>>
             <<<Displacing  32/coordinate 2 (-)>>>
             <<<Displacing  32/coordinate 3 (+)>>>
             <<<Displacing  32/coordinate 3 (-)>>>
             <<<Displacing  33/coordinate 2 (+)>>>
             <<<Displacing  33/coordinate 2 (-)>>>
             <<<Displacing  33/coordinate 1 (+)>>>
             <<<Displacing  33/coordinate 3 (+)>>>
             <<<Displacing  33/coordinate 1 (-)>>>
             <<<Displacing  33/coordinate 3 (-)>>>

-----------------------
VIBRATIONAL FREQUENCIES
-----------------------

Scaling factor for frequencies =  1.000000000 (already applied!)

   0:         0.00 cm**-1
   1:         0.00 cm**-1
   2:         0.00 cm**-1
   3:         0.00 cm**-1
   4:         0.00 cm**-1
   5:         0.00 cm**-1
   6:       -25.69 cm**-1 ***imaginary mode***
   7:        32.11 cm**-1
   8:        39.97 cm**-1
   9:        49.03 cm**-1
  10:        63.84 cm**-1
  11:        65.89 cm**-1
  12:        73.01 cm**-1
  13:       107.38 cm**-1
  14:       118.75 cm**-1
  15:       139.45 cm**-1
  16:       154.55 cm**-1
  17:       160.10 cm**-1
  18:       220.21 cm**-1
  19:       225.99 cm**-1
  20:       266.45 cm**-1
  21:       273.33 cm**-1
  22:       281.36 cm**-1
  23:       294.35 cm**-1
  24:       376.95 cm**-1
  25:       385.25 cm**-1
  26:       404.05 cm**-1
  27:       428.28 cm**-1
  28:       453.15 cm**-1
  29:       470.29 cm**-1
  30:       507.31 cm**-1
  31:       587.80 cm**-1
  32:       622.20 cm**-1
  33:       639.75 cm**-1
  34:       663.23 cm**-1
  35:       709.65 cm**-1
  36:       754.73 cm**-1
  37:       768.74 cm**-1
  38:       824.09 cm**-1
  39:       859.38 cm**-1
  40:       873.06 cm**-1
  41:       902.41 cm**-1
  42:       916.10 cm**-1
  43:       928.73 cm**-1
  44:       938.88 cm**-1
  45:       943.47 cm**-1
  46:       951.41 cm**-1
  47:       984.15 cm**-1
  48:      1021.42 cm**-1
  49:      1066.75 cm**-1
  50:      1070.71 cm**-1
  51:      1100.59 cm**-1
  52:      1114.36 cm**-1
  53:      1124.96 cm**-1
  54:      1143.92 cm**-1
  55:      1176.43 cm**-1
  56:      1184.06 cm**-1
  57:      1209.64 cm**-1
  58:      1218.60 cm**-1
  59:      1256.04 cm**-1
  60:      1266.98 cm**-1
  61:      1274.08 cm**-1
  62:      1276.07 cm**-1
  63:      1296.20 cm**-1
  64:      1324.76 cm**-1
  65:      1358.41 cm**-1
  66:      1369.36 cm**-1
  67:      1421.87 cm**-1
  68:      1428.02 cm**-1
  69:      1453.45 cm**-1
  70:      1470.26 cm**-1
  71:      1497.87 cm**-1
  72:      1503.34 cm**-1
  73:      1506.58 cm**-1
  74:      1511.26 cm**-1
  75:      1536.03 cm**-1
  76:      1557.69 cm**-1
  77:      1560.37 cm**-1
  78:      1566.71 cm**-1
  79:      1665.19 cm**-1
  80:      2882.40 cm**-1
  81:      2898.75 cm**-1
  82:      2941.50 cm**-1
  83:      2944.12 cm**-1
  84:      2958.64 cm**-1
  85:      2966.31 cm**-1
  86:      2980.23 cm**-1
  87:      2981.00 cm**-1
  88:      2986.76 cm**-1
  89:      2996.92 cm**-1
  90:      3019.68 cm**-1
  91:      3050.55 cm**-1
  92:      3058.85 cm**-1
  93:      3066.02 cm**-1
  94:      3074.25 cm**-1
  95:      3117.45 cm**-1
  96:      3282.09 cm**-1
  97:      3577.96 cm**-1
  98:      3591.82 cm**-1


------------
NORMAL MODES
------------

These modes are the cartesian displacements weighted by the diagonal matrix
M(i,i)=1/sqrt(m[i]) where m[i] is the mass of the displaced atom
Thus, these vectors are normalized but *not* orthogonal

                  0          1          2          3          4          5    
      0       0.000000   0.000000   0.000000   0.000000   0.000000   0.000000
      1       0.000000   0.000000   0.000000   0.000000   0.000000   0.000000
      2       0.000000   0.000000   0.000000   0.000000   0.000000   0.000000
      3       0.000000   0.000000   0.000000   0.000000   0.000000   0.000000
      4       0.000000   0.000000   0.000000   0.000000   0.000000   0.000000
      5       0.000000   0.000000   0.000000   0.000000   0.000000   0.000000
      6       0.000000   0.000000   0.000000   0.000000   0.000000   0.000000
      7       0.000000   0.000000   0.000000   0.000000   0.000000   0.000000
      8       0.000000   0.000000   0.000000   0.000000   0.000000   0.000000
      9       0.000000   0.000000   0.000000   0.000000   0.000000   0.000000
     10       0.000000   0.000000   0.000000   0.000000   0.000000   0.000000
     11       0.000000   0.000000   0.000000   0.000000   0.000000   0.000000
     12       0.000000   0.000000   0.000000   0.000000   0.000000   0.000000
     13       0.000000   0.000000   0.000000   0.000000   0.000000   0.000000
     14       0.000000   0.000000   0.000000   0.000000   0.000000   0.000000
     15       0.000000   0.000000   0.000000   0.000000   0.000000   0.000000
     16       0.000000   0.000000   0.000000   0.000000   0.000000   0.000000
     17       0.000000   0.000000   0.000000   0.000000   0.000000   0.000000
     18       0.000000   0.000000   0.000000   0.000000   0.000000   0.000000
     19       0.000000   0.000000   0.000000   0.000000   0.000000   0.000000
     20       0.000000   0.000000   0.000000   0.000000   0.000000   0.000000
     21       0.000000   0.000000   0.000000   0.000000   0.000000   0.000000
     22       0.000000   0.000000   0.000000   0.000000   0.000000   0.000000
     23       0.000000   0.000000   0.000000   0.000000   0.000000   0.000000
     24       0.000000   0.000000   0.000000   0.000000   0.000000   0.000000
     25       0.000000   0.000000   0.000000   0.000000   0.000000   0.000000
     26       0.000000   0.000000   0.000000   0.000000   0.000000   0.000000
     27       0.000000   0.000000   0.000000   0.000000   0.000000   0.000000
     28       0.000000   0.000000   0.000000   0.000000   0.000000   0.000000
     29       0.000000   0.000000   0.000000   0.000000   0.000000   0.000000
     30       0.000000   0.000000   0.000000   0.000000   0.000000   0.000000
     31       0.000000   0.000000   0.000000   0.000000   0.000000   0.000000
     32       0.000000   0.000000   0.000000   0.000000   0.000000   0.000000
     33       0.000000   0.000000   0.000000   0.000000   0.000000   0.000000
     34       0.000000   0.000000   0.000000   0.000000   0.000000   0.000000
     35       0.000000   0.000000   0.000000   0.000000   0.000000   0.000000
     36       0.000000   0.000000   0.000000   0.000000   0.000000   0.000000
     37       0.000000   0.000000   0.000000   0.000000   0.000000   0.000000
     38       0.000000   0.000000   0.000000   0.000000   0.000000   0.000000
     39       0.000000   0.000000   0.000000   0.000000   0.000000   0.000000
     40       0.000000   0.000000   0.000000   0.000000   0.000000   0.000000
     41       0.000000   0.000000   0.000000   0.000000   0.000000   0.000000
     42       0.000000   0.000000   0.000000   0.000000   0.000000   0.000000
     43       0.000000   0.000000   0.000000   0.000000   0.000000   0.000000
     44       0.000000   0.000000   0.000000   0.000000   0.000000   0.000000
     45       0.000000   0.000000   0.000000   0.000000   0.000000   0.000000
     46       0.000000   0.000000   0.000000   0.000000   0.000000   0.000000
     47       0.000000   0.000000   0.000000   0.000000   0.000000   0.000000
     48       0.000000   0.000000   0.000000   0.000000   0.000000   0.000000
     49       0.000000   0.000000   0.000000   0.000000   0.000000   0.000000
     50       0.000000   0.000000   0.000000   0.000000   0.000000   0.000000
     51       0.000000   0.000000   0.000000   0.000000   0.000000   0.000000
     52       0.000000   0.000000   0.000000   0.000000   0.000000   0.000000
     53       0.000000   0.000000   0.000000   0.000000   0.000000   0.000000
     54       0.000000   0.000000   0.000000   0.000000   0.000000   0.000000
     55       0.000000   0.000000   0.000000   0.000000   0.000000   0.000000
     56       0.000000   0.000000   0.000000   0.000000   0.000000   0.000000
     57       0.000000   0.000000   0.000000   0.000000   0.000000   0.000000
     58       0.000000   0.000000   0.000000   0.000000   0.000000   0.000000
     59       0.000000   0.000000   0.000000   0.000000   0.000000   0.000000
     60       0.000000   0.000000   0.000000   0.000000   0.000000   0.000000
     61       0.000000   0.000000   0.000000   0.000000   0.000000   0.000000
     62       0.000000   0.000000   0.000000   0.000000   0.000000   0.000000
     63       0.000000   0.000000   0.000000   0.000000   0.000000   0.000000
     64       0.000000   0.000000   0.000000   0.000000   0.000000   0.000000
     65       0.000000   0.000000   0.000000   0.000000   0.000000   0.000000
     66       0.000000   0.000000   0.000000   0.000000   0.000000   0.000000
     67       0.000000   0.000000   0.000000   0.000000   0.000000   0.000000
     68       0.000000   0.000000   0.000000   0.000000   0.000000   0.000000
     69       0.000000   0.000000   0.000000   0.000000   0.000000   0.000000
     70       0.000000   0.000000   0.000000   0.000000   0.000000   0.000000
     71       0.000000   0.000000   0.000000   0.000000   0.000000   0.000000
     72       0.000000   0.000000   0.000000   0.000000   0.000000   0.000000
     73       0.000000   0.000000   0.000000   0.000000   0.000000   0.000000
     74       0.000000   0.000000   0.000000   0.000000   0.000000   0.000000
     75       0.000000   0.000000   0.000000   0.000000   0.000000   0.000000
     76       0.000000   0.000000   0.000000   0.000000   0.000000   0.000000
     77       0.000000   0.000000   0.000000   0.000000   0.000000   0.000000
     78       0.000000   0.000000   0.000000   0.000000   0.000000   0.000000
     79       0.000000   0.000000   0.000000   0.000000   0.000000   0.000000
     80       0.000000   0.000000   0.000000   0.000000   0.000000   0.000000
     81       0.000000   0.000000   0.000000   0.000000   0.000000   0.000000
     82       0.000000   0.000000   0.000000   0.000000   0.000000   0.000000
     83       0.000000   0.000000   0.000000   0.000000   0.000000   0.000000
     84       0.000000   0.000000   0.000000   0.000000   0.000000   0.000000
     85       0.000000   0.000000   0.000000   0.000000   0.000000   0.000000
     86       0.000000   0.000000   0.000000   0.000000   0.000000   0.000000
     87       0.000000   0.000000   0.000000   0.000000   0.000000   0.000000
     88       0.000000   0.000000   0.000000   0.000000   0.000000   0.000000
     89       0.000000   0.000000   0.000000   0.000000   0.000000   0.000000
     90       0.000000   0.000000   0.000000   0.000000   0.000000   0.000000
     91       0.000000   0.000000   0.000000   0.000000   0.000000   0.000000
     92       0.000000   0.000000   0.000000   0.000000   0.000000   0.000000
     93       0.000000   0.000000   0.000000   0.000000   0.000000   0.000000
     94       0.000000   0.000000   0.000000   0.000000   0.000000   0.000000
     95       0.000000   0.000000   0.000000   0.000000   0.000000   0.000000
     96       0.000000   0.000000   0.000000   0.000000   0.000000   0.000000
     97       0.000000   0.000000   0.000000   0.000000   0.000000   0.000000
     98       0.000000   0.000000   0.000000   0.000000   0.000000   0.000000
                  6          7          8          9         10         11    
      0      -0.033613   0.010992   0.043765  -0.032341  -0.001412   0.003652
      1       0.025198   0.018290  -0.004643   0.020927   0.015487  -0.040820
      2      -0.011161  -0.000257   0.011128   0.015544  -0.026316  -0.016942
      3      -0.036274   0.027250   0.039724  -0.041149  -0.022915  -0.005926
      4      -0.001734  -0.023235   0.017031   0.043415   0.040669  -0.094191
      5      -0.046952  -0.107274   0.056498   0.074662   0.069214  -0.075152
      6      -0.034908   0.016767   0.043146  -0.034390  -0.008943   0.000249
      7       0.012472  -0.020351  -0.003798   0.006322   0.023904  -0.067603
      8      -0.018600  -0.148735   0.037627   0.044788   0.104329  -0.003201
      9      -0.031073  -0.009625   0.051378  -0.017648   0.026180   0.015116
     10       0.051492   0.024244  -0.048683  -0.053810  -0.018015   0.016647
     11       0.044843  -0.082797  -0.032723  -0.048180   0.044350   0.135370
     12      -0.028837  -0.025659   0.056119  -0.007865   0.047454   0.024509
     13       0.077821   0.062744  -0.069508  -0.072959  -0.040161   0.061407
     14       0.080773   0.019891  -0.078215  -0.103121  -0.045346   0.181769
     15      -0.030067  -0.015709   0.052882  -0.014596   0.033583   0.017588
     16       0.066228   0.060178  -0.046896  -0.035343  -0.023729   0.030954
     17       0.056037   0.061887  -0.055697  -0.071440  -0.080384   0.102089
     18      -0.037376   0.022863   0.041832  -0.035436  -0.015153  -0.000672
     19       0.008935   0.017281   0.005252   0.042950   0.033827  -0.049261
     20      -0.053647   0.047883   0.019930   0.038743  -0.056455  -0.050259
     21      -0.039009   0.047843   0.033833  -0.053528  -0.050566  -0.019074
     22      -0.032577  -0.057402   0.049653   0.087843   0.073021  -0.153894
     23      -0.097157  -0.157728   0.107681   0.143421   0.115202  -0.174093
     24      -0.029627  -0.028945   0.058532  -0.003855   0.047890   0.025312
     25       0.086060   0.093216  -0.063763  -0.048045  -0.042097   0.063435
     26       0.088076   0.149917  -0.097386  -0.117451  -0.145666   0.131485
     27      -0.029909  -0.017623   0.053855  -0.012498   0.036931   0.019670
     28       0.060388   0.027890  -0.066607  -0.083482  -0.031181   0.042931
     29       0.064850  -0.112271  -0.051418  -0.074565   0.070246   0.199388
     30      -0.030518   0.006399   0.039709  -0.039447  -0.004810   0.001940
     31       0.044541   0.000228   0.027154   0.024037   0.016433  -0.029936
     32      -0.032047   0.072107   0.049229   0.026574  -0.104758  -0.034680
     33      -0.040200   0.026601   0.039119  -0.026620  -0.006100   0.000039
     34       0.029372  -0.012603   0.009505   0.005017   0.024361  -0.016288
     35      -0.083625   0.112871   0.022532   0.039574  -0.093424  -0.021089
     36      -0.016867   0.001113  -0.025741   0.091567  -0.109637   0.029686
     37       0.095905  -0.004139   0.152886   0.072424   0.059053   0.013283
     38       0.011911   0.058406   0.240410   0.006322  -0.030146   0.016683
     39       0.031260  -0.083000   0.000548  -0.095211  -0.027685  -0.021118
     40      -0.051486   0.046017  -0.013889  -0.001388   0.053730   0.036953
     41       0.097575  -0.083712   0.008388  -0.029467  -0.154278  -0.111569
     42      -0.057512   0.060376   0.037384   0.001634  -0.000217  -0.000030
     43      -0.073508   0.097055   0.005076   0.049010   0.064487   0.034113
     44      -0.231491   0.265699   0.016179   0.096680  -0.035039   0.054377
     45      -0.087770   0.093615   0.066319   0.007780   0.011123   0.022012
     46       0.195873  -0.198503   0.009415  -0.074806  -0.040413  -0.096435
     47      -0.112465   0.136338   0.005548   0.046431  -0.080905  -0.006458
     48       0.081602  -0.173012   0.054716  -0.234171  -0.195167  -0.145787
     49       0.060882  -0.083171   0.017590  -0.088393  -0.055075  -0.071840
     50       0.248258  -0.248342   0.040309  -0.119575  -0.268430  -0.237172
     51       0.061921  -0.124850  -0.057870  -0.083443   0.037503   0.025398
     52      -0.236770   0.269129  -0.063144   0.162169   0.248398   0.223705
     53       0.144383  -0.137157   0.061040  -0.094299  -0.262255  -0.205550
     54       0.185661   0.107180  -0.103282   0.137744   0.027285  -0.134859
     55      -0.205884  -0.104173  -0.061982   0.139745  -0.120980   0.056610
     56      -0.151688   0.065942  -0.141039  -0.132578   0.133133  -0.206488
     57      -0.047126   0.049667   0.042234  -0.033382  -0.037947  -0.007277
     58      -0.039249   0.029402  -0.015003   0.065891   0.060676  -0.066171
     59      -0.118683   0.064108  -0.007605   0.070020  -0.019546  -0.072741
     60       0.268779   0.190480  -0.277515   0.067940   0.030234  -0.170548
     61      -0.387732  -0.188776  -0.123832   0.171226  -0.185398   0.067029
     62       0.100953   0.222547  -0.232651  -0.224962   0.199099  -0.247643
     63      -0.007221   0.006818  -0.086293   0.180805  -0.166052   0.016823
     64       0.111069   0.001144   0.193396   0.097684   0.068963   0.028010
     65       0.023386   0.060733   0.314696  -0.014725   0.011570   0.038499
     66       0.106418   0.059193  -0.081751   0.177287  -0.063177  -0.061001
     67      -0.088025  -0.057040   0.012333   0.123508  -0.039802   0.023179
     68      -0.126567   0.038718   0.039663  -0.075671   0.072792  -0.096253
     69      -0.071239   0.003892  -0.212720   0.155290  -0.164994  -0.021791
     70       0.130105   0.006456   0.234711   0.126966   0.077430   0.042763
     71       0.048298   0.058662   0.360745  -0.020152   0.004732   0.051077
     72      -0.036391   0.029508   0.039042  -0.042528  -0.025773  -0.006885
     73      -0.007332  -0.051639   0.012768   0.022558   0.043431  -0.107750
     74      -0.046120  -0.230263   0.074065   0.090862   0.177526  -0.048739
     75      -0.027152  -0.046626   0.062131   0.005113   0.075391   0.036370
     76       0.107006   0.096424  -0.104763  -0.115982  -0.068714   0.116582
     77       0.128637   0.070579  -0.134635  -0.170678  -0.086248   0.274152
     78      -0.004421  -0.020266  -0.037373   0.001261   0.088014   0.064818
     79      -0.031464  -0.024963  -0.012228  -0.121740  -0.038208  -0.012917
     80       0.007035   0.021329  -0.116186   0.116386   0.095050   0.100870
     81      -0.007820  -0.004764   0.022686  -0.017482   0.017700   0.015049
     82       0.102290  -0.201028   0.035923  -0.276887  -0.236144  -0.206456
     83      -0.038235   0.074318  -0.168826   0.182240   0.206612   0.198665
     84      -0.059084   0.075103  -0.095132   0.149194   0.262711   0.194075
     85      -0.111149   0.074770  -0.041593  -0.041031   0.072611   0.100328
     86      -0.097206   0.144094  -0.143941   0.195653   0.211908   0.234138
     87       0.032290  -0.098105  -0.079010  -0.067658   0.071261   0.050349
     88      -0.078320   0.000145  -0.033487  -0.150762  -0.018396   0.041421
     89       0.106019  -0.095980  -0.135825   0.076451   0.051529   0.017189
     90       0.059257  -0.157294  -0.045002  -0.172721  -0.045508  -0.032801
     91      -0.016610  -0.078535  -0.015975  -0.211300  -0.101090  -0.047349
     92       0.190549  -0.194982  -0.121178   0.021370  -0.033191  -0.088713
     93       0.017962  -0.067351  -0.094640  -0.015237   0.128530   0.091387
     94      -0.072009  -0.038291  -0.038843  -0.223255  -0.063751   0.021776
     95       0.066028  -0.051359  -0.199625   0.140859   0.177812   0.128921
     96       0.046101  -0.126425  -0.127508  -0.066309   0.118475   0.082022
     97      -0.180602   0.135802  -0.060825  -0.039205   0.124702   0.190145
     98       0.133189  -0.126617  -0.100356   0.037920  -0.022487  -0.050335
                 12         13         14         15         16         17    
      0      -0.037332  -0.003967   0.024081   0.024246  -0.006542  -0.025285
      1      -0.073556   0.034250  -0.081559  -0.056778   0.006604   0.113572
      2      -0.040000   0.084427  -0.140794   0.025238  -0.019458  -0.088626
      3       0.008320   0.003813   0.028870   0.042414  -0.013718  -0.080392
      4       0.040716   0.021507  -0.032793  -0.026850   0.009564   0.045961
      5       0.018189   0.042954  -0.073521   0.022620   0.002175  -0.043906
      6      -0.024804  -0.001731   0.026636   0.028285  -0.008906  -0.033702
      7       0.146779  -0.010503   0.057287   0.006555   0.003632  -0.044314
      8       0.043754  -0.034652   0.062656   0.010239   0.013987   0.029649
      9      -0.104205  -0.016122   0.023432  -0.009518   0.002283   0.079002
     10       0.138088  -0.025787   0.091887   0.006486  -0.008206  -0.042597
     11       0.012602  -0.062319   0.117343   0.002628  -0.001717   0.058148
     12      -0.151182  -0.024438   0.020149  -0.030311   0.009131   0.141604
     13       0.026790  -0.001518   0.015932  -0.024786  -0.008314   0.023740
     14      -0.043680  -0.002006   0.004962   0.003965  -0.020899   0.002623
     15      -0.116204  -0.018839   0.023188  -0.014790   0.003501   0.087178
     16      -0.080103   0.027961  -0.071482  -0.058179   0.002037   0.104064
     17      -0.069163   0.070772  -0.125226   0.014549  -0.026867  -0.079901
     18      -0.008794  -0.001186   0.025619   0.025878  -0.008692  -0.017398
     19      -0.144321   0.037043  -0.084588  -0.053832   0.004722   0.109236
     20      -0.041969   0.100633  -0.131019   0.035875  -0.030343  -0.042363
     21       0.071417   0.014172   0.035149   0.068704  -0.022949  -0.164748
     22       0.048941   0.029739  -0.050275  -0.025125   0.017241   0.049642
     23       0.045187   0.058323  -0.100011   0.031052   0.012043  -0.056065
     24      -0.151737  -0.025206   0.023893  -0.045061   0.003160   0.143848
     25      -0.162239   0.044265  -0.119159  -0.094476   0.001643   0.167561
     26      -0.106646   0.113296  -0.202424   0.028818  -0.025878  -0.123699
     27      -0.129136  -0.020121   0.021259  -0.021188   0.005321   0.112253
     28       0.218229  -0.053720   0.170442   0.033368  -0.013733  -0.093994
     29       0.034986  -0.126574   0.238435  -0.004382   0.003335   0.121293
     30      -0.021064   0.010818   0.001377   0.030927  -0.004069  -0.088073
     31      -0.184988  -0.047572   0.046442  -0.032352   0.030436  -0.072727
     32      -0.053564  -0.023546   0.075679   0.044531  -0.011159  -0.059860
     33      -0.016989  -0.000076   0.008823   0.035666  -0.021276   0.011977
     34      -0.155463  -0.032187   0.059087  -0.027932   0.044608  -0.166395
     35      -0.005549  -0.037023   0.121157   0.066118  -0.047216   0.126413
     36       0.052390   0.043336   0.005872  -0.131512   0.106708  -0.023226
     37      -0.042317  -0.046605  -0.002800   0.086251  -0.060982  -0.035715
     38       0.098316   0.020657   0.056055  -0.133554   0.102697  -0.023873
     39       0.045594  -0.051883  -0.082947   0.005259  -0.004007  -0.027545
     40      -0.067578   0.033803   0.099963   0.000881   0.026216  -0.127091
     41      -0.044805  -0.177987  -0.028944  -0.005061  -0.003464   0.032587
     42      -0.022590  -0.016626   0.027581   0.041953  -0.047332   0.169663
     43      -0.123311   0.035988   0.137858   0.011467   0.009244  -0.042801
     44       0.043064   0.069667   0.233325   0.124177  -0.092105   0.256764
     45      -0.044288   0.059588   0.052414   0.053865  -0.025133  -0.013656
     46      -0.191721  -0.136266  -0.081743  -0.095657   0.105009  -0.372638
     47       0.023926  -0.036123   0.141529   0.077952  -0.065633   0.214145
     48       0.085286  -0.049079  -0.083222   0.020341  -0.021687   0.038876
     49      -0.094670  -0.027453   0.041421  -0.023304   0.039699  -0.152092
     50      -0.095317  -0.267400  -0.113195  -0.044291   0.021229  -0.023376
     51       0.084729  -0.083839  -0.158683  -0.026591   0.013863  -0.067713
     52      -0.041850   0.130606   0.197833   0.038526   0.005938  -0.093836
     53      -0.077308  -0.191933  -0.018048   0.001035  -0.007304   0.045799
     54       0.110901  -0.021872   0.019962   0.015795  -0.103230   0.000208
     55       0.022994  -0.013763  -0.033644   0.107786   0.003919   0.014797
     56       0.018795  -0.021343   0.016996  -0.085737  -0.018378  -0.014183
     57       0.023761  -0.009444   0.048424   0.022712  -0.015505   0.072556
     58      -0.124925   0.112258  -0.176490  -0.053832  -0.017055   0.202085
     59      -0.017377   0.201365  -0.254434   0.036770  -0.061188   0.084498
     60       0.076632  -0.019485  -0.076501   0.517694   0.454935   0.157762
     61       0.000374  -0.021730   0.019247  -0.153579  -0.274032  -0.061156
     62       0.010876  -0.011287  -0.120036   0.612909   0.746237   0.198901
     63       0.107834   0.036077   0.022312  -0.145098   0.118114  -0.000624
     64       0.043893  -0.019288  -0.041024   0.093857  -0.066130   0.008241
     65       0.158093   0.050830   0.004051  -0.098744   0.078832   0.006303
     66       0.122618  -0.001012   0.022150  -0.051642  -0.111117  -0.017133
     67       0.040902  -0.022175  -0.035298   0.149535  -0.000186   0.021323
     68       0.072206   0.013011   0.019080  -0.180053  -0.037497  -0.041801
     69       0.030429   0.019230   0.046229  -0.196422   0.130676  -0.057610
     70       0.137131   0.007579  -0.083266   0.115462  -0.076517   0.053675
     71       0.139043   0.042124   0.019222  -0.083579   0.079408   0.008547
     72       0.012832   0.005475   0.027748   0.046169  -0.014584  -0.090779
     73       0.235701  -0.025273   0.105052   0.033640   0.007460  -0.108169
     74       0.089827  -0.076220   0.135633   0.007904   0.033690   0.071725
     75      -0.216301  -0.034980   0.011970  -0.047892   0.028626   0.233000
     76       0.023513  -0.008208   0.030096  -0.020687  -0.010868   0.023433
     77      -0.062135  -0.015100   0.026560   0.006527  -0.021636   0.020199
     78       0.014985  -0.048093  -0.079027  -0.004221   0.009649  -0.086676
     79       0.052394   0.050435   0.058356   0.008490   0.003231  -0.018410
     80       0.027638  -0.144421  -0.067373  -0.026236   0.009103   0.000614
     81      -0.020937  -0.173741  -0.114327  -0.007985   0.015087  -0.114126
     82       0.009852   0.253800   0.194508   0.044983  -0.021002   0.062214
     83       0.063999  -0.141061  -0.094440  -0.036860   0.014363  -0.011027
     84      -0.036377  -0.039905  -0.060998  -0.017996   0.032661  -0.187520
     85       0.094039  -0.072455  -0.033106  -0.013564   0.014746  -0.049788
     86       0.104271  -0.330117  -0.208503  -0.055059   0.019850  -0.018568
     87       0.098790   0.118455  -0.051148   0.010708  -0.015583   0.024813
     88       0.185552  -0.037423  -0.067891  -0.005443  -0.010271   0.069307
     89      -0.045103   0.148769   0.122026   0.007200  -0.002099   0.018573
     90       0.151759   0.146090  -0.051696   0.031493  -0.046303   0.149592
     91       0.149162   0.106172   0.037096   0.021742  -0.026285   0.114541
     92      -0.119415   0.357916   0.282385   0.041263  -0.015597   0.043207
     93       0.071871   0.100810  -0.052115   0.000184  -0.000200  -0.037940
     94       0.276543  -0.005324  -0.104005   0.002867  -0.035503   0.185192
     95       0.010543   0.139979   0.059311  -0.015885   0.010120  -0.010545
     96       0.135811   0.234038  -0.030074   0.011905  -0.020570   0.050639
     97       0.229847  -0.278286  -0.234279  -0.051391   0.020008  -0.023740
     98      -0.080116   0.167967   0.166970   0.022166  -0.009686   0.036180
                 18         19         20         21         22         23    
      0       0.027927   0.010783  -0.015412  -0.030525   0.048036   0.003684
      1       0.013661  -0.025252   0.013276   0.032662  -0.018489   0.000166
      2       0.026024   0.014855  -0.000424  -0.009506   0.018805  -0.000415
      3       0.042160   0.024271  -0.028827  -0.057957   0.100029   0.008997
      4       0.033616  -0.007342   0.016786   0.047086   0.074959   0.006102
      5       0.030462   0.010789   0.031986   0.070419   0.068721  -0.000733
      6       0.042442   0.015631  -0.026855  -0.049922   0.100695   0.010536
      7       0.023864   0.013852  -0.003275  -0.004701   0.059859   0.003387
      8       0.003442   0.001188   0.020377   0.046806  -0.001369  -0.004539
      9       0.042204  -0.004349  -0.022913  -0.032587   0.103282   0.015101
     10      -0.013948   0.008715  -0.035253  -0.080120  -0.012932   0.001824
     11      -0.056885  -0.011927  -0.030059  -0.069948  -0.117508  -0.005854
     12       0.033784  -0.017272  -0.014171  -0.012355   0.071957   0.013049
     13      -0.001778  -0.007247   0.000366   0.006390   0.023450   0.002914
     14      -0.015936  -0.002176   0.002801   0.013022   0.025523   0.001237
     15       0.034706  -0.006004  -0.018247  -0.025845   0.076481   0.012413
     16       0.025684  -0.021967   0.032255   0.081380   0.037404   0.001612
     17       0.042652   0.018208   0.030982   0.071508   0.105598   0.002386
     18       0.021411   0.006280  -0.000966   0.003110   0.007469  -0.001323
     19      -0.063325  -0.025515  -0.031724  -0.081465  -0.106891  -0.004119
     20      -0.075917   0.001726  -0.064440  -0.141533  -0.096264   0.001960
     21       0.056348   0.043414  -0.043411  -0.091014   0.151296   0.013151
     22       0.043253  -0.007650   0.028641   0.074926   0.098111   0.006736
     23       0.049828   0.014728   0.047301   0.107142   0.119831   0.001405
     24       0.034999  -0.011689  -0.016394  -0.016054   0.080115   0.013082
     25       0.034480  -0.024649   0.046216   0.122666   0.077446   0.005460
     26       0.053628   0.031727   0.049728   0.114533   0.153992   0.005612
     27       0.040100  -0.010879  -0.019456  -0.023445   0.095186   0.015040
     28      -0.047939   0.017735  -0.072848  -0.170541  -0.076369  -0.000587
     29      -0.122046  -0.026026  -0.077904  -0.180857  -0.255882  -0.009368
     30       0.003819   0.003851  -0.003800  -0.016084  -0.018929  -0.005318
     31       0.115854   0.004692   0.028519   0.005644  -0.170245  -0.032428
     32       0.163147   0.032776   0.017772   0.020222  -0.133029  -0.023256
     33      -0.025157   0.018246   0.021907   0.041841  -0.097787  -0.016644
     34      -0.022195  -0.034814   0.001304  -0.026084  -0.034211  -0.008218
     35      -0.082927   0.036914   0.022236   0.084466  -0.048301  -0.009736
     36      -0.026748   0.052607  -0.006402  -0.013342   0.027738  -0.095940
     37       0.074352   0.204799   0.018953   0.025595  -0.089358   0.064433
     38       0.104822  -0.139472   0.035184   0.027145  -0.139772   0.145262
     39      -0.126979  -0.021732   0.018099   0.069856  -0.033603   0.003306
     40      -0.136486  -0.045277   0.020852   0.041792   0.037972   0.007484
     41      -0.052197   0.003174  -0.019294   0.013319   0.014123   0.002707
     42      -0.062120   0.047229   0.044909   0.092582  -0.159753  -0.029244
     43      -0.115462  -0.013725   0.028038   0.037333  -0.049796  -0.014191
     44      -0.210666   0.059110   0.055187   0.163359  -0.053709  -0.015190
     45       0.101628   0.038978   0.022463   0.007960  -0.169291  -0.033270
     46       0.101339  -0.077391  -0.047224  -0.131273   0.021033   0.012323
     47      -0.202507   0.038910   0.038145   0.140253  -0.023175  -0.006091
     48      -0.160292  -0.020355  -0.034165   0.130810  -0.015195   0.008631
     49      -0.129368  -0.059726  -0.029123   0.032250   0.043735   0.007304
     50      -0.035335  -0.019321  -0.078516  -0.015112   0.018572   0.001015
     51      -0.120996  -0.040587   0.025776   0.035664   0.029898   0.014096
     52      -0.119682  -0.017298   0.105383   0.037946   0.010172  -0.001170
     53      -0.059475   0.005240  -0.054496   0.034289  -0.015393  -0.000751
     54       0.023553  -0.166966   0.002441   0.000585  -0.012764   0.031585
     55       0.021380  -0.139501   0.001216  -0.001316  -0.006090   0.024341
     56      -0.010651   0.069171  -0.003552  -0.000175   0.004461  -0.029386
     57       0.044772   0.005770   0.003314   0.033645   0.032315   0.004433
     58      -0.310939  -0.052857  -0.113255  -0.227640  -0.086656   0.018394
     59      -0.408905  -0.034628  -0.174649  -0.338732  -0.065829   0.032032
     60       0.037905  -0.274531  -0.001733  -0.011706   0.008271  -0.060072
     61       0.039249  -0.268193   0.003974   0.003758   0.029243  -0.110756
     62      -0.015768   0.102881  -0.009922  -0.015888  -0.011771   0.023244
     63      -0.035674   0.152079  -0.005063  -0.000580   0.017839  -0.080181
     64      -0.033269   0.237361  -0.008481   0.002294   0.015387  -0.014635
     65      -0.002825  -0.151010   0.004146  -0.004567  -0.020601   0.048976
     66       0.020644  -0.214314   0.002548  -0.000403   0.009816  -0.000250
     67       0.012033  -0.029978   0.001068  -0.000492  -0.044067   0.138778
     68      -0.039257   0.185593  -0.003762  -0.000573  -0.011433   0.105200
     69       0.033147   0.496299   0.050484   0.051528  -0.310569   0.840629
     70      -0.154074   0.279721  -0.043258  -0.025802   0.155973  -0.165308
     71       0.040676  -0.388432  -0.004751  -0.016115   0.077801  -0.397322
     72       0.042543   0.026328  -0.029345  -0.060211   0.100508   0.008418
     73       0.026099   0.030008  -0.001677  -0.005756   0.064234   0.000042
     74       0.006972   0.000199   0.028751   0.070215   0.007294  -0.004443
     75       0.024530  -0.038628  -0.000683   0.019737   0.029968   0.010738
     76      -0.015169  -0.009079  -0.004156  -0.000060   0.034563   0.004665
     77      -0.039929  -0.009688  -0.001690   0.009152   0.034205   0.003348
     78      -0.133559  -0.032385   0.056337   0.056330  -0.070798  -0.003258
     79      -0.070694  -0.021067  -0.018686   0.040249   0.100928   0.018113
     80       0.033701   0.006555   0.029019  -0.069849   0.089324   0.008037
     81      -0.225287  -0.047371   0.073309   0.079944  -0.064596   0.000572
     82      -0.080070  -0.009888  -0.081116   0.099804   0.067679   0.020678
     83       0.092875   0.011877   0.039852  -0.104603   0.095111   0.004707
     84      -0.171158  -0.057745   0.086523   0.049983  -0.051515  -0.002923
     85      -0.039708  -0.020562   0.016671  -0.004284   0.108130   0.014694
     86       0.088722   0.013986   0.072181  -0.132681   0.097045   0.003547
     87       0.053572   0.015139   0.022444   0.027788  -0.209000  -0.025874
     88       0.109496   0.025373  -0.007040  -0.038954   0.003139  -0.002057
     89       0.027378   0.003634  -0.029664  -0.014868   0.092730   0.011928
     90       0.084894   0.068420   0.470152  -0.333093  -0.204736  -0.043681
     91       0.065263   0.037255   0.199690  -0.181831   0.050030  -0.002634
     92      -0.051221   0.002811   0.126253  -0.104328   0.163206   0.017521
     93       0.034891  -0.011784  -0.195393   0.204510  -0.208662  -0.016626
     94       0.251676   0.080389   0.170254  -0.222707  -0.102756  -0.028251
     95       0.195766  -0.000007  -0.499957   0.301455  -0.080173   0.001243
     96       0.200447   0.029039  -0.235548   0.188671  -0.351288  -0.039712
     97       0.160119  -0.002709  -0.374487   0.224874  -0.061540   0.001752
     98      -0.069058   0.005714   0.233919  -0.190947   0.190979   0.018117
                 24         25         26         27         28         29    
      0       0.010223   0.050941  -0.000563  -0.059013   0.007567  -0.017317
      1      -0.027577  -0.114158   0.006567  -0.019090   0.010484   0.031183
      2      -0.008433  -0.016666  -0.000129  -0.034760  -0.026398   0.212849
      3       0.012298   0.073410  -0.004447   0.003334  -0.014278   0.057742
      4       0.100811  -0.073023   0.001277   0.070505   0.003842  -0.012959
      5       0.193258   0.023035  -0.001318  -0.035176   0.003736   0.015695
      6       0.006928   0.044330  -0.003380   0.028442  -0.012489   0.048944
      7      -0.095140   0.057588  -0.002369   0.053494  -0.011783   0.001189
      8      -0.158696   0.068723   0.001540  -0.011369   0.011701  -0.107773
      9      -0.007424  -0.021470  -0.001004   0.111388  -0.019007   0.071291
     10      -0.010450  -0.012279  -0.001901   0.018222  -0.017881   0.112909
     11      -0.028073  -0.067364   0.002755  -0.041651   0.001283   0.070392
     12      -0.013189  -0.048802   0.002371   0.078316  -0.004655   0.020471
     13       0.111852  -0.018813   0.002418   0.001709   0.010940  -0.065009
     14       0.184062   0.000323  -0.000980   0.022436   0.003441  -0.062972
     15      -0.000074  -0.004928   0.000483   0.053267  -0.011120   0.050133
     16      -0.112121  -0.032296   0.007303   0.004747   0.017257  -0.088378
     17      -0.142646   0.123785   0.000220   0.006555  -0.020221   0.047541
     18      -0.006342  -0.039354   0.004643  -0.074058   0.032921  -0.136610
     19       0.006398   0.088215  -0.004742  -0.090974  -0.006931   0.061031
     20      -0.040918  -0.099748  -0.001459   0.055411   0.004718  -0.091469
     21       0.021783   0.120935  -0.009194   0.053618  -0.040594   0.159164
     22       0.244281  -0.084685  -0.000735   0.078390   0.017786  -0.092731
     23       0.425498   0.013391  -0.005617  -0.006409   0.019541  -0.087458
     24      -0.010435  -0.056265  -0.000905   0.103137  -0.024554   0.038428
     25      -0.252492  -0.021130  -0.000180   0.081953   0.012899  -0.182887
     26      -0.340715   0.269627  -0.007448  -0.003234   0.008577  -0.084560
     27      -0.010148  -0.038829   0.000424   0.113397  -0.015373   0.059223
     28      -0.031669  -0.013931  -0.006185  -0.002424  -0.024654   0.170507
     29      -0.075821  -0.148006   0.001794  -0.058141   0.003581   0.120984
     30      -0.001903  -0.009215   0.003738  -0.099293   0.033972  -0.166922
     31       0.027313   0.086217   0.003793  -0.128026   0.010017   0.108665
     32      -0.038569  -0.224197   0.013448   0.078758   0.031866   0.000768
     33       0.013593   0.051967  -0.000494  -0.187572   0.020764  -0.055556
     34       0.025416   0.110679   0.005629   0.086404   0.012310  -0.094179
     35       0.019389   0.078232  -0.001663   0.064945  -0.013423   0.025224
     36      -0.014255  -0.020994   0.006131  -0.052068  -0.190123  -0.182186
     37       0.000975  -0.139932  -0.173587  -0.086190  -0.455752  -0.202021
     38       0.025674  -0.049603  -0.150792  -0.084565  -0.329836  -0.063113
     39      -0.019173  -0.085098  -0.002734  -0.072094  -0.003120   0.053996
     40      -0.003795  -0.015058   0.001809   0.130812  -0.007413  -0.002831
     41       0.016522   0.077052  -0.000308   0.065828  -0.006732  -0.015775
     42       0.059531   0.261666  -0.010485  -0.383107  -0.004454   0.080104
     43       0.052181   0.239435  -0.002029   0.018617  -0.012953  -0.017205
     44       0.044486   0.202363  -0.009430   0.032611  -0.041666   0.091579
     45      -0.000933  -0.030525   0.005041  -0.243096   0.045260  -0.099360
     46      -0.027887  -0.132673   0.016931   0.236460   0.049400  -0.219482
     47       0.045939   0.210406  -0.009266   0.044437  -0.042110   0.098096
     48      -0.035334  -0.154542  -0.002903  -0.139047   0.000567   0.112778
     49      -0.000738   0.002064   0.002722   0.144827  -0.004953  -0.029453
     50       0.024849   0.118650   0.001420   0.110125  -0.003923  -0.069891
     51      -0.042404  -0.183251  -0.003571  -0.116314  -0.003476   0.101179
     52       0.001629  -0.000521   0.001054   0.106607  -0.007668   0.007933
     53       0.028551   0.130915   0.000358   0.097520  -0.006218  -0.048953
     54       0.001571   0.004958   0.036744  -0.005555  -0.013173  -0.005646
     55      -0.001280   0.009727   0.029256  -0.002864  -0.004664   0.002297
     56       0.000148  -0.010634  -0.018674  -0.000531  -0.009499  -0.007474
     57      -0.037073  -0.188483   0.009892   0.000169   0.047875  -0.201801
     58       0.027633   0.233719  -0.016497  -0.050886  -0.015847  -0.135029
     59      -0.011612   0.100096  -0.017254   0.110286  -0.007823  -0.347422
     60      -0.007841   0.006682  -0.431037   0.039771   0.136110   0.055058
     61      -0.018093   0.000635  -0.515420   0.044069   0.140179   0.031945
     62       0.008310   0.000017   0.106507  -0.006842  -0.020704   0.016724
     63       0.004955  -0.000951   0.010854  -0.004511  -0.007044   0.007661
     64      -0.005899  -0.035488  -0.039005   0.008225  -0.023153  -0.022393
     65       0.004133   0.036536  -0.005536  -0.002257   0.040684   0.019310
     66      -0.011424   0.054626  -0.165223   0.041025   0.202178   0.109285
     67       0.018608  -0.014742   0.510720  -0.059269  -0.215902  -0.084540
     68       0.005313   0.064041   0.360731   0.007266   0.115757   0.104218
     69       0.009135   0.038240  -0.191224  -0.006459   0.026545  -0.022607
     70      -0.017231   0.078305   0.150599   0.139021   0.569476   0.231799
     71       0.009541  -0.065342  -0.014892  -0.092705  -0.392231  -0.138837
     72       0.017700   0.086316  -0.004945  -0.014515  -0.012818   0.056021
     73      -0.202262   0.166710  -0.006070   0.019985  -0.004789  -0.090568
     74      -0.355053   0.136069  -0.000410   0.046953   0.022435  -0.265636
     75      -0.030576  -0.104421   0.005690   0.043525   0.023765  -0.072874
     76       0.236911  -0.012165  -0.003445   0.023768   0.020345  -0.148956
     77       0.385217   0.001044  -0.010060   0.048480   0.024717  -0.219946
     78      -0.016467  -0.077310  -0.000086   0.045156  -0.008857   0.062279
     79      -0.025852  -0.109757  -0.003012  -0.113173   0.002157   0.043790
     80      -0.003497  -0.008355  -0.000739  -0.063653   0.006143  -0.014424
     81      -0.017344  -0.081243  -0.000574   0.088368  -0.015793   0.080371
     82      -0.016169  -0.066295  -0.005969  -0.122437  -0.003617   0.048489
     83      -0.005684  -0.018164   0.000612  -0.082580   0.012266  -0.028552
     84      -0.025692  -0.119027   0.002627   0.111573  -0.008960   0.065997
     85      -0.027054  -0.115406  -0.001278  -0.104941   0.006320   0.031326
[...]
     16      -0.000364  -0.000030  -0.000065
     17       0.000266   0.000057  -0.000034
     18       0.000002  -0.000025  -0.000025
     19      -0.000137   0.000038  -0.000009
     20       0.000120  -0.000045   0.000012
     21       0.000157  -0.000075  -0.000008
     22      -0.000471   0.000132   0.000160
     23       0.000291  -0.000085  -0.000091
     24      -0.003131   0.000178  -0.000767
     25       0.006350  -0.000119  -0.000381
     26      -0.004377  -0.000626   0.001433
     27       0.001280  -0.000188  -0.000074
     28       0.000443   0.000009   0.000022
     29      -0.000274  -0.000006  -0.000028
     30      -0.000042   0.000019   0.000010
     31       0.000272  -0.000086  -0.000010
     32      -0.000246   0.000176   0.000003
     33       0.000016  -0.000068   0.000000
     34      -0.000159   0.000002   0.000002
     35       0.000128  -0.000126   0.000007
     36       0.035831  -0.020465  -0.000965
     37      -0.049304  -0.000152   0.001120
     38       0.052939  -0.036388  -0.000405
     39       0.000073  -0.000035   0.000004
     40       0.000083  -0.000073   0.000032
     41       0.000006  -0.000034  -0.000001
     42      -0.000733   0.000447   0.000022
     43       0.001026  -0.000086   0.000016
     44      -0.000904   0.000380  -0.000060
     45      -0.000298   0.000900   0.000024
     46      -0.000744   0.000881   0.000004
     47      -0.000142   0.001110   0.000028
     48      -0.000658  -0.000210   0.000049
     49      -0.000142   0.000169  -0.000121
     50       0.001103  -0.000864   0.000085
     51      -0.000504   0.000524  -0.000072
     52      -0.000147   0.000176  -0.000054
     53      -0.000678   0.001113  -0.000120
     54      -0.048093   0.000425  -0.031708
     55      -0.032371   0.001054   0.036110
     56       0.022770   0.000182   0.036222
     57       0.000325  -0.000097   0.000092
     58       0.000921  -0.000233   0.000147
     59      -0.000533  -0.000025  -0.000119
     60      -0.007009   0.005883   0.546595
     61      -0.042071  -0.006927  -0.571460
     62      -0.010607  -0.007309  -0.606580
     63      -0.002220  -0.026738   0.000481
     64       0.002813  -0.030723   0.000305
     65      -0.004119  -0.044703   0.000519
     66       0.758562  -0.014191  -0.044195
     67       0.541514  -0.011546  -0.001134
     68      -0.344172   0.003617   0.031543
     69       0.011230   0.445514  -0.005951
     70       0.016286   0.490261  -0.006243
     71       0.007929   0.745164  -0.008665
     72       0.000347  -0.000088  -0.000090
     73      -0.000072   0.000055   0.000118
     74       0.000051  -0.000033  -0.000086
     75      -0.000637   0.000045   0.000901
     76       0.000383   0.000225   0.000204
     77      -0.000322  -0.000145  -0.000136
     78       0.000015  -0.000023   0.000004
     79       0.000004  -0.000003   0.000009
     80      -0.000010  -0.000030  -0.000001
     81      -0.000101   0.000297  -0.000019
     82      -0.000069   0.000230  -0.000010
     83       0.000208   0.000289   0.000004
     84      -0.000112   0.000092  -0.000021
     85       0.000221   0.000005  -0.000085
     86      -0.000178   0.000070   0.000054
     87       0.000010  -0.000009   0.000003
     88       0.000022  -0.000013   0.000019
     89      -0.000028  -0.000006  -0.000004
     90      -0.000101   0.000021   0.000034
     91      -0.000040   0.000041  -0.000078
     92       0.000171  -0.000063   0.000043
     93       0.000016   0.000027  -0.000025
     94       0.000092   0.000010  -0.000016
     95       0.000068   0.000008   0.000013
     96      -0.000047   0.000072  -0.000021
     97       0.000044   0.000071  -0.000007
     98       0.000131   0.000203  -0.000045


-----------
IR SPECTRUM  
-----------

 Mode    freq (cm**-1)   T**2         TX         TY         TZ
-------------------------------------------------------------------
   7:        32.11    0.000000  (  0.000000   0.000000   0.000000)
   8:        39.97    0.000000  (  0.000000   0.000000   0.000000)
   9:        49.03    0.000000  (  0.000000   0.000000   0.000000)
  10:        63.84    0.000000  (  0.000000   0.000000   0.000000)
  11:        65.89    0.000000  (  0.000000   0.000000   0.000000)
  12:        73.01    0.000000  (  0.000000   0.000000   0.000000)
  13:       107.38    0.000000  (  0.000000   0.000000   0.000000)
  14:       118.75    0.000000  (  0.000000   0.000000   0.000000)
  15:       139.45    0.000000  (  0.000000   0.000000   0.000000)
  16:       154.55    0.000000  (  0.000000   0.000000   0.000000)
  17:       160.10    0.000000  (  0.000000   0.000000   0.000000)
  18:       220.21    0.000000  (  0.000000   0.000000   0.000000)
  19:       225.99    0.000000  (  0.000000   0.000000   0.000000)
  20:       266.45    0.000000  (  0.000000   0.000000   0.000000)
  21:       273.33    0.000000  (  0.000000   0.000000   0.000000)
  22:       281.36    0.000000  (  0.000000   0.000000   0.000000)
  23:       294.35    0.000000  (  0.000000   0.000000   0.000000)
  24:       376.95    0.000000  (  0.000000   0.000000   0.000000)
  25:       385.25    0.000000  (  0.000000   0.000000   0.000000)
  26:       404.05    0.000000  (  0.000000   0.000000   0.000000)
  27:       428.28    0.000000  (  0.000000   0.000000   0.000000)
  28:       453.15    0.000000  (  0.000000   0.000000   0.000000)
  29:       470.29    0.000000  (  0.000000   0.000000   0.000000)
  30:       507.31    0.000000  (  0.000000   0.000000   0.000000)
  31:       587.80    0.000000  (  0.000000   0.000000   0.000000)
  32:       622.20    0.000000  (  0.000000   0.000000   0.000000)
  33:       639.75    0.000000  (  0.000000   0.000000   0.000000)
  34:       663.23    0.000000  (  0.000000   0.000000   0.000000)
  35:       709.65    0.000000  (  0.000000   0.000000   0.000000)
  36:       754.73    0.000000  (  0.000000   0.000000   0.000000)
  37:       768.74    0.000000  (  0.000000   0.000000   0.000000)
  38:       824.09    0.000000  (  0.000000   0.000000   0.000000)
  39:       859.38    0.000000  (  0.000000   0.000000   0.000000)
  40:       873.06    0.000000  (  0.000000   0.000000   0.000000)
  41:       902.41    0.000000  (  0.000000   0.000000   0.000000)
  42:       916.10    0.000000  (  0.000000   0.000000   0.000000)
  43:       928.73    0.000000  (  0.000000   0.000000   0.000000)
  44:       938.88    0.000000  (  0.000000   0.000000   0.000000)
  45:       943.47    0.000000  (  0.000000   0.000000   0.000000)
  46:       951.41    0.000000  (  0.000000   0.000000   0.000000)
  47:       984.15    0.000000  (  0.000000   0.000000   0.000000)
  48:      1021.42    0.000000  (  0.000000   0.000000   0.000000)
  49:      1066.75    0.000000  (  0.000000   0.000000   0.000000)
  50:      1070.71    0.000000  (  0.000000   0.000000   0.000000)
  51:      1100.59    0.000000  (  0.000000   0.000000   0.000000)
  52:      1114.36    0.000000  (  0.000000   0.000000   0.000000)
  53:      1124.96    0.000000  (  0.000000   0.000000   0.000000)
  54:      1143.92    0.000000  (  0.000000   0.000000   0.000000)
  55:      1176.43    0.000000  (  0.000000   0.000000   0.000000)
  56:      1184.06    0.000000  (  0.000000   0.000000   0.000000)
  57:      1209.64    0.000000  (  0.000000   0.000000   0.000000)
  58:      1218.60    0.000000  (  0.000000   0.000000   0.000000)
  59:      1256.04    0.000000  (  0.000000   0.000000   0.000000)
  60:      1266.98    0.000000  (  0.000000   0.000000   0.000000)
  61:      1274.08    0.000000  (  0.000000   0.000000   0.000000)
  62:      1276.07    0.000000  (  0.000000   0.000000   0.000000)
  63:      1296.20    0.000000  (  0.000000   0.000000   0.000000)
  64:      1324.76    0.000000  (  0.000000   0.000000   0.000000)
  65:      1358.41    0.000000  (  0.000000   0.000000   0.000000)
  66:      1369.36    0.000000  (  0.000000   0.000000   0.000000)
  67:      1421.87    0.000000  (  0.000000   0.000000   0.000000)
  68:      1428.02    0.000000  (  0.000000   0.000000   0.000000)
  69:      1453.45    0.000000  (  0.000000   0.000000   0.000000)
  70:      1470.26    0.000000  (  0.000000   0.000000   0.000000)
  71:      1497.87    0.000000  (  0.000000   0.000000   0.000000)
  72:      1503.34    0.000000  (  0.000000   0.000000   0.000000)
  73:      1506.58    0.000000  (  0.000000   0.000000   0.000000)
  74:      1511.26    0.000000  (  0.000000   0.000000   0.000000)
  75:      1536.03    0.000000  (  0.000000   0.000000   0.000000)
  76:      1557.69    0.000000  (  0.000000   0.000000   0.000000)
  77:      1560.37    0.000000  (  0.000000   0.000000   0.000000)
  78:      1566.71    0.000000  (  0.000000   0.000000   0.000000)
  79:      1665.19    0.000000  (  0.000000   0.000000   0.000000)
  80:      2882.40    0.000000  (  0.000000   0.000000   0.000000)
  81:      2898.75    0.000000  (  0.000000   0.000000   0.000000)
  82:      2941.50    0.000000  (  0.000000   0.000000   0.000000)
  83:      2944.12    0.000000  (  0.000000   0.000000   0.000000)
  84:      2958.64    0.000000  (  0.000000   0.000000   0.000000)
  85:      2966.31    0.000000  (  0.000000   0.000000   0.000000)
  86:      2980.23    0.000000  (  0.000000   0.000000   0.000000)
  87:      2981.00    0.000000  (  0.000000   0.000000   0.000000)
  88:      2986.76    0.000000  (  0.000000   0.000000   0.000000)
  89:      2996.92    0.000000  (  0.000000   0.000000   0.000000)
  90:      3019.68    0.000000  (  0.000000   0.000000   0.000000)
  91:      3050.55    0.000000  (  0.000000   0.000000   0.000000)
  92:      3058.85    0.000000  (  0.000000   0.000000   0.000000)
  93:      3066.02    0.000000  (  0.000000   0.000000   0.000000)
  94:      3074.25    0.000000  (  0.000000   0.000000   0.000000)
  95:      3117.45    0.000000  (  0.000000   0.000000   0.000000)
  96:      3282.09    0.000000  (  0.000000   0.000000   0.000000)
  97:      3577.96    0.000000  (  0.000000   0.000000   0.000000)
  98:      3591.82    0.000000  (  0.000000   0.000000   0.000000)

The first frequency considered to be a vibration is 7
The total number of vibrations considered is 92


--------------------------
THERMOCHEMISTRY AT 298.15K
--------------------------

Temperature         ... 298.15 K
Pressure            ... 1.00 atm
Total Mass          ... 197.28 AMU

Throughout the following assumptions are being made:
  (1) The electronic state is orbitally nondegenerate
  (2) There are no thermally accessible electronically excited states
  (3) Hindered rotations indicated by low frequency modes are not
      treated as such but are treated as vibrations and this may
      cause some error
  (4) All equations used are the standard statistical mechanics
      equations for an ideal gas
  (5) All vibrations are strictly harmonic

freq.      32.11  E(vib)   ...       0.55 
freq.      39.97  E(vib)   ...       0.54 
freq.      49.03  E(vib)   ...       0.53 
freq.      63.84  E(vib)   ...       0.51 
freq.      65.89  E(vib)   ...       0.50 
freq.      73.01  E(vib)   ...       0.49 
freq.     107.38  E(vib)   ...       0.45 
freq.     118.75  E(vib)   ...       0.44 
freq.     139.45  E(vib)   ...       0.42 
freq.     154.55  E(vib)   ...       0.40 
freq.     160.10  E(vib)   ...       0.39 
freq.     220.21  E(vib)   ...       0.33 
freq.     225.99  E(vib)   ...       0.33 
freq.     266.45  E(vib)   ...       0.29 
freq.     273.33  E(vib)   ...       0.29 
freq.     281.36  E(vib)   ...       0.28 
freq.     294.35  E(vib)   ...       0.27 
freq.     376.95  E(vib)   ...       0.21 
freq.     385.25  E(vib)   ...       0.20 
freq.     404.05  E(vib)   ...       0.19 
freq.     428.28  E(vib)   ...       0.18 
freq.     453.15  E(vib)   ...       0.16 
freq.     470.29  E(vib)   ...       0.16 
freq.     507.31  E(vib)   ...       0.14 
freq.     587.80  E(vib)   ...       0.10 
freq.     622.20  E(vib)   ...       0.09 
freq.     639.75  E(vib)   ...       0.09 
freq.     663.23  E(vib)   ...       0.08 
freq.     709.65  E(vib)   ...       0.07 
freq.     754.73  E(vib)   ...       0.06 
freq.     768.74  E(vib)   ...       0.06 
freq.     824.09  E(vib)   ...       0.05 
freq.     859.38  E(vib)   ...       0.04 
freq.     873.06  E(vib)   ...       0.04 
freq.     902.41  E(vib)   ...       0.03 
freq.     916.10  E(vib)   ...       0.03 
freq.     928.73  E(vib)   ...       0.03 
freq.     938.88  E(vib)   ...       0.03 
freq.     943.47  E(vib)   ...       0.03 
freq.     951.41  E(vib)   ...       0.03 
freq.     984.15  E(vib)   ...       0.02 
freq.    1021.42  E(vib)   ...       0.02 
freq.    1066.75  E(vib)   ...       0.02 
freq.    1070.71  E(vib)   ...       0.02 
freq.    1100.59  E(vib)   ...       0.02 
freq.    1114.36  E(vib)   ...       0.01 
freq.    1124.96  E(vib)   ...       0.01 
freq.    1143.92  E(vib)   ...       0.01 
freq.    1176.43  E(vib)   ...       0.01 
freq.    1184.06  E(vib)   ...       0.01 
freq.    1209.64  E(vib)   ...       0.01 
freq.    1218.60  E(vib)   ...       0.01 
freq.    1256.04  E(vib)   ...       0.01 
freq.    1266.98  E(vib)   ...       0.01 
freq.    1274.08  E(vib)   ...       0.01 
freq.    1276.07  E(vib)   ...       0.01 
freq.    1296.20  E(vib)   ...       0.01 
freq.    1324.76  E(vib)   ...       0.01 
freq.    1358.41  E(vib)   ...       0.01 
freq.    1369.36  E(vib)   ...       0.01 
freq.    1421.87  E(vib)   ...       0.00 
freq.    1428.02  E(vib)   ...       0.00 
freq.    1453.45  E(vib)   ...       0.00 
freq.    1470.26  E(vib)   ...       0.00 
freq.    1497.87  E(vib)   ...       0.00 
freq.    1503.34  E(vib)   ...       0.00 
freq.    1506.58  E(vib)   ...       0.00 
freq.    1511.26  E(vib)   ...       0.00 
freq.    1536.03  E(vib)   ...       0.00 
freq.    1557.69  E(vib)   ...       0.00 
freq.    1560.37  E(vib)   ...       0.00 
freq.    1566.71  E(vib)   ...       0.00 
freq.    1665.19  E(vib)   ...       0.00 
freq.    2882.40  E(vib)   ...       0.00 
freq.    2898.75  E(vib)   ...       0.00 
freq.    2941.50  E(vib)   ...       0.00 
freq.    2944.12  E(vib)   ...       0.00 
freq.    2958.64  E(vib)   ...       0.00 
freq.    2966.31  E(vib)   ...       0.00 
freq.    2980.23  E(vib)   ...       0.00 
freq.    2981.00  E(vib)   ...       0.00 
freq.    2986.76  E(vib)   ...       0.00 
freq.    2996.92  E(vib)   ...       0.00 
freq.    3019.68  E(vib)   ...       0.00 
freq.    3050.55  E(vib)   ...       0.00 
freq.    3058.85  E(vib)   ...       0.00 
freq.    3066.02  E(vib)   ...       0.00 
freq.    3074.25  E(vib)   ...       0.00 
freq.    3117.45  E(vib)   ...       0.00 
freq.    3282.09  E(vib)   ...       0.00 
freq.    3577.96  E(vib)   ...       0.00 
freq.    3591.82  E(vib)   ...       0.00 

------------
INNER ENERGY
------------

The inner energy is: U= E(el) + E(ZPE) + E(vib) + E(rot) + E(trans)
    E(el)   - is the total energy from the electronic structure calculation
              = E(kin-el) + E(nuc-el) + E(el-el) + E(nuc-nuc)
    E(ZPE)  - the the zero temperature vibrational energy from the frequency calculation
    E(vib)  - the the finite temperature correction to E(ZPE) due to population
              of excited vibrational states
    E(rot)  - is the rotational thermal energy
    E(trans)- is the translational thermal energy

Summary of contributions to the inner energy U:
Electronic energy                ...    -44.28032649 Eh
Zero point energy                ...      0.27421418 Eh     172.07 kcal/mol
Thermal vibrational correction   ...      0.01491503 Eh       9.36 kcal/mol
Thermal rotational correction    ...      0.00141627 Eh       0.89 kcal/mol
Thermal translational correction ...      0.00141627 Eh       0.89 kcal/mol
-----------------------------------------------------------------------
Total thermal energy                    -43.98836473 Eh


Summary of corrections to the electronic energy:
(perhaps to be used in another calculation)
Total thermal correction                  0.01774758 Eh      11.14 kcal/mol
Non-thermal (ZPE) correction              0.27421418 Eh     172.07 kcal/mol
-----------------------------------------------------------------------
Total correction                          0.29196176 Eh     183.21 kcal/mol


--------
ENTHALPY
--------

The enthalpy is H = U + kB*T
                kB is Boltzmann's constant
Total free energy                 ...    -43.98836473 Eh 
Thermal Enthalpy correction       ...      0.00094421 Eh       0.59 kcal/mol
-----------------------------------------------------------------------
Total Enthalpy                    ...    -43.98742052 Eh


Note: Only C1 symmetry has been detected, increase convergence thresholds 
      if your molecule has a higher symmetry. Symmetry factor of 1.0 is   
      used for the rotational entropy correction. 
 

Note: Rotational entropy computed according to Herzberg 
Infrared and Raman Spectra, Chapter V,1, Van Nostrand Reinhold, 1945 
Point Group:  C1, Symmetry Number:   1  
Rotational constants in cm-1:     0.028243     0.009312     0.007374 

Vibrational entropy computed according to the QRRHO of S. Grimme
Chem.Eur.J. 2012 18 9955


-------
ENTROPY
-------

The entropy contributions are T*S = T*(S(el)+S(vib)+S(rot)+S(trans))
     S(el)   - electronic entropy
     S(vib)  - vibrational entropy
     S(rot)  - rotational entropy
     S(trans)- translational entropy
The entropies will be listed as mutliplied by the temperature to get
units of energy

Electronic entropy                ...      0.00000000 Eh      0.00 kcal/mol
Vibrational entropy               ...      0.02683697 Eh     16.84 kcal/mol
Rotational entropy                ...      0.01572026 Eh      9.86 kcal/mol
Translational entropy             ...      0.01983352 Eh     12.45 kcal/mol
-----------------------------------------------------------------------
Final entropy term                ...      0.06239075 Eh     39.15 kcal/mol

In case the symmetry of your molecule has not been determined correctly
or in case you have a reason to use a different symmetry number we print 
out the resulting rotational entropy values for sn=1,12 :
 --------------------------------------------------------
|  sn= 1 | S(rot)=       0.01572026 Eh      9.86 kcal/mol|
|  sn= 2 | S(rot)=       0.01506581 Eh      9.45 kcal/mol|
|  sn= 3 | S(rot)=       0.01468297 Eh      9.21 kcal/mol|
|  sn= 4 | S(rot)=       0.01441135 Eh      9.04 kcal/mol|
|  sn= 5 | S(rot)=       0.01420066 Eh      8.91 kcal/mol|
|  sn= 6 | S(rot)=       0.01402852 Eh      8.80 kcal/mol|
|  sn= 7 | S(rot)=       0.01388297 Eh      8.71 kcal/mol|
|  sn= 8 | S(rot)=       0.01375689 Eh      8.63 kcal/mol|
|  sn= 9 | S(rot)=       0.01364568 Eh      8.56 kcal/mol|
|  sn=10 | S(rot)=       0.01354621 Eh      8.50 kcal/mol|
|  sn=11 | S(rot)=       0.01345622 Eh      8.44 kcal/mol|
|  sn=12 | S(rot)=       0.01337406 Eh      8.39 kcal/mol|
 --------------------------------------------------------


-------------------
GIBBS FREE ENERGY
-------------------

The Gibbs free energy is G = H - T*S

Total enthalpy                    ...    -43.98742052 Eh 
Total entropy correction          ...     -0.06239075 Eh    -39.15 kcal/mol
-----------------------------------------------------------------------
Final Gibbs free energy         ...    -44.04981127 Eh

For completeness - the Gibbs free energy minus the electronic energy
G-E(el)                           ...      0.23051522 Eh    144.65 kcal/mol


Total Time for Numerical Frequencies  :       112.542 sec
Time for Reference State(s)           :         0.178 sec
Time for Displacements                :       105.580 sec

Timings for individual modules:

Sum of individual times         ...        0.378 sec (=   0.006 min)
XTB module                      ...        0.378 sec (=   0.006 min) 100.0 %
                             ****ORCA TERMINATED NORMALLY****
TOTAL RUN TIME: 0 days 0 hours 1 minutes 55 seconds 552 msec
