(SLURM) JOB ID:         204

                                 *****************
                                 * O   R   C   A *
                                 *****************

           --- An Ab Initio, DFT and Semiempirical electronic structure package ---

                  #######################################################
                  #                        -***-                        #
                  #          Department of theory and spectroscopy      #
                  #               Directorship: Frank Neese             #
                  #        Max Planck Institute fuer Kohlenforschung    #
                  #                Kaiser Wilhelm Platz 1               #
                  #                 D-45470 Muelheim/Ruhr               #
                  #                      Germany                        #
                  #                                                     #
                  #                  All rights reserved                #
                  #                        -***-                        #
                  #######################################################


                         Program Version 4.2.1 -  RELEASE  -


 With contributions from (in alphabetic order):
   Daniel Aravena         : Magnetic Suceptibility
   Michael Atanasov       : Ab Initio Ligand Field Theory (pilot matlab implementation)
   Alexander A. Auer      : GIAO ZORA, VPT2
   Ute Becker             : Parallelization
   Giovanni Bistoni       : ED, misc. LED, open-shell LED, HFLD
   Martin Brehm           : Molecular dynamics
   Dmytro Bykov           : SCF Hessian
   Vijay G. Chilkuri      : MRCI spin determinant printing, contributions to CSF-ICE
   Dipayan Datta          : RHF DLPNO-CCSD density
   Achintya Kumar Dutta   : EOM-CC, STEOM-CC
   Dmitry Ganyushin       : Spin-Orbit,Spin-Spin,Magnetic field MRCI
   Miquel Garcia          : C-PCM Hessian, Gaussian charge scheme
   Yang Guo               : DLPNO-NEVPT2, CIM, IAO-localization
   Andreas Hansen         : Spin unrestricted coupled pair/coupled cluster methods
   Benjamin Helmich-Paris : CASSCF linear response (MC-RPA)
   Lee Huntington         : MR-EOM, pCC
   Robert Izsak           : Overlap fitted RIJCOSX, COSX-SCS-MP3, EOM
   Christian Kollmar      : KDIIS, OOCD, Brueckner-CCSD(T), CCSD density
   Simone Kossmann        : Meta GGA functionals, TD-DFT gradient, OOMP2, MP2 Hessian
   Martin Krupicka        : AUTO-CI
   Lucas Lang             : DCDCAS
   Dagmar Lenk            : GEPOL surface, SMD
   Dimitrios Liakos       : Extrapolation schemes; Compound Job, initial MDCI parallelization
   Dimitrios Manganas     : Further ROCIS development; embedding schemes
   Dimitrios Pantazis     : SARC Basis sets
   Taras Petrenko         : DFT Hessian,TD-DFT gradient, ASA, ECA, R-Raman, ABS, FL, XAS/XES, NRVS
   Peter Pinski           : DLPNO-MP2, DLPNO-MP2 Gradient
   Christoph Reimann      : Effective Core Potentials
   Marius Retegan         : Local ZFS, SOC
   Christoph Riplinger    : Optimizer, TS searches, QM/MM, DLPNO-CCSD(T), (RO)-DLPNO pert. Triples
   Tobias Risthaus        : Range-separated hybrids, TD-DFT gradient, RPA, STAB
   Michael Roemelt        : Original ROCIS implementation
   Masaaki Saitow         : Open-shell DLPNO-CCSD energy and density
   Barbara Sandhoefer     : DKH picture change effects
   Avijit Sen             : IP-ROCIS
   Kantharuban Sivalingam : CASSCF convergence, NEVPT2, FIC-MRCI
   Bernardo de Souza      : ESD, SOC TD-DFT
   Georgi Stoychev        : AutoAux, RI-MP2 NMR
   Willem Van den Heuvel  : Paramagnetic NMR
   Boris Wezisla          : Elementary symmetry handling
   Frank Wennmohs         : Technical directorship


 We gratefully acknowledge several colleagues who have allowed us to
 interface, adapt or use parts of their codes:
   Stefan Grimme, W. Hujo, H. Kruse,             : VdW corrections, initial TS optimization,
                  C. Bannwarth                     DFT functionals, gCP, sTDA/sTD-DF
   Ed Valeev, F. Pavosevic, A. Kumar             : LibInt (2-el integral package), F12 methods
   Garnet Chan, S. Sharma, J. Yang, R. Olivares  : DMRG
   Ulf Ekstrom                                   : XCFun DFT Library
   Mihaly Kallay                                 : mrcc  (arbitrary order and MRCC methods)
   Andreas Klamt, Michael Diedenhofen            : otool_cosmo (COSMO solvation model)
   Jiri Pittner, Ondrej Demel                    : Mk-CCSD
   Frank Weinhold                                : gennbo (NPA and NBO analysis)
   Christopher J. Cramer and Donald G. Truhlar   : smd solvation model
   Lars Goerigk                                  : TD-DFT with DH, B97 family of functionals
   V. Asgeirsson, H. Jonsson                     : NEB implementation
   FAccTs GmbH                                   : IRC, NEB, NEB-TS, Multilevel, MM, QM/MM, CI optimization
   S Lehtola, MJT Oliveira, MAL Marques          : LibXC Library


 Your calculation uses the libint2 library for the computation of 2-el integrals
 For citations please refer to: http://libint.valeyev.net

 Your ORCA version has been built with support for libXC version: 4.2.3
 For citations please refer to: https://tddft.org/programs/libxc/

 This ORCA versions uses:
   CBLAS   interface :  Fast vector & matrix operations
   LAPACKE interface :  Fast linear algebra routines
   SCALAPACK package :  Parallel linear algebra routines




***************************************
The coordinates will be read from file: init.xyz
***************************************


Your calculation utilizes the SMD solvation module
Please cite in your paper:
A.V. Marenich, C.J. Cramer, D.G. Truhlar J. Phys. Chem. B, 113, (2009), 6378 

Your calculation utilizes the semiempirical GFN2-xTB method
Please cite in your paper:
C. Bannwarth, Ehlert S., S. Grimme,  J. Chem. Theory Comput., 15, (2019), 1652.
   

----- Orbital basis set information -----
Your calculation utilizes the basis: def2-SVP
   F. Weigend and R. Ahlrichs, Phys. Chem. Chem. Phys. 7, 3297 (2005).

================================================================================
                                        WARNINGS
                       Please study these warnings very carefully!
================================================================================

WARNING: Gradients needed for Numerical Frequencies
  ===> : Setting RunTyp to EnGrad

WARNING: The environment variable RSH_COMMAND is not set!
  ===> : All Displacements for the Numerical Hessian calculation
         will be started on localhost

WARNING: Found dipole moment calculation with XTB calculation
  ===> : Switching off dipole moment calculation


INFO   : the flag for use of LIBINT has been found!

================================================================================
                                       INPUT FILE
================================================================================
NAME = /tmp/slurm-scratch/freq.204/freq.inp
|  1> ! XTB2 NumFreq
|  2> %maxcore 1150
|  3> 
|  4> * xyzfile 0 1 init.xyz
|  5> 
|  6> %cpcm
|  7>  smd true
|  8>  smdsolvent "ch2cl2"
|  9> end
| 10> %pal nprocs 9 end
| 11> 
| 12>                          ****END OF INPUT****
================================================================================

                     *******************************
                     * Energy+Gradient Calculation *
                     *******************************

      -----------------------------------------------------------      
     |                   =====================                   |     
     |                           x T B                           |     
     |                   =====================                   |     
     |                         S. Grimme                         |     
     |          Mulliken Center for Theoretical Chemistry        |     
     |                    University of Bonn                     |     
      -----------------------------------------------------------      

   * xtb version 6.3.2 (30e43eb) compiled by 'schneider@apollo14' on 2020-08-08

   xtb is free software: you can redistribute it and/or modify it under
   the terms of the GNU Lesser General Public License as published by
   the Free Software Foundation, either version 3 of the License, or
   (at your option) any later version.
   
   xtb is distributed in the hope that it will be useful,
   but WITHOUT ANY WARRANTY; without even the implied warranty of
   MERCHANTABILITY or FITNESS FOR A PARTICULAR PURPOSE.  See the
   GNU Lesser General Public License for more details.
   
   Cite this work as:
   * S. Grimme, C. Bannwarth, P. Shushkov, J. Chem. Theory Comput., 2017,
     13, 1989-2009. DOI: 10.1021/acs.jctc.7b00118
   * C. Bannwarth, S. Ehlert and S. Grimme., J. Chem. Theory Comput., 2019,
     15, 1652-1671. DOI: 10.1021/acs.jctc.8b01176
   * P. Pracht, E. Caldeweyher, S. Ehlert, S. Grimme, ChemRxiv, 2019, preprint.
     DOI: 10.26434/chemrxiv.8326202.v1
   
   for GFN-FF:
   * S. Spicher and S. Grimme, Angew. Chem. Int. Ed., 2020,
     DOI: 10.1002/anie.202004239
   
   for DFT-D4:
   * E. Caldeweyher, C. Bannwarth and S. Grimme, J. Chem. Phys., 2017,
     147, 034112. DOI: 10.1063/1.4993215
   * E. Caldeweyher, S. Ehlert, A. Hansen, H. Neugebauer, S. Spicher,
     C. Bannwarth and S. Grimme, J. Chem. Phys., 2019, 150, 154122.
     DOI: 10.1063/1.5090222
   
   for sTDA-xTB:
   * S. Grimme and C. Bannwarth, J. Chem. Phys., 2016, 145, 054103.
     DOI: 10.1063/1.4959605
   
   in the mass-spec context:
   * V. Asgeirsson, C. Bauer and S. Grimme, Chem. Sci., 2017, 8, 4879.
     DOI: 10.1039/c7sc00601b
   * J. Koopman and S. Grimme, ACS Omega 2019, 4, 12, 15120-15133.
     DOI: 10.1021/acsomega.9b02011
   
   for metadynamics refer to:
   * S. Grimme, J. Chem. Theory Comput., 2019, 155, 2847-2862
     DOI: 10.1021/acs.jctc.9b00143
   
   with help from (in alphabetical order)
   C. Bannwarth, F. Bohle, G. Brandenburg, E. Caldeweyher, M. Checinski,
   S. Dohm, S. Ehlert, S. Ehrlich, F. März, H. Neugebauer, J. Pisarek,
   P. Pracht, P. Shushkov, and S. Spicher.
   
 * started run on 2020/08/08 at 15:45:45.750     

           -------------------------------------------------
          |                Calculation Setup                |
           -------------------------------------------------

          program call               : /opt/orca/otool_xtb /tmp/slurm-scratch/freq.204/freq_XTB.xyz --grad -c 0 -u 0 -P 9 --namespace /tmp/slurm-scratch/freq.204/freq --gbsa CH2Cl2
          hostname                   : apollo14
          calculation namespace      : /tmp/slurm-scratch/freq.204/freq
          coordinate file            : /tmp/slurm-scratch/freq.204/freq_XTB.xyz
          omp threads                :                     9
          number of atoms            :                    33
          number of electrons        :                    80
          charge                     :                     0
          spin                       :                   0.0
          first test random number   :      0.96374581012244

   ID    Z sym.   atoms
    1    6 C      1-6, 12, 18, 21, 25, 30
    2    1 H      7-9, 11, 13-17, 19, 22, 23, 26-29, 31-33
    3    7 N      10
    4    8 O      20, 24

molecular fragmentation (1/2 indicates fragments):
111111111121111211111112111111111
# atoms in fragment 1/2:    30     3
 fragment masses (1/2) :      179.26       18.02
CMA distance (Bohr)    :   6.979
constraining FC (au)   :  0.0500
########################################################################
[WARNING] Please study the warnings concerning your input carefully
-1- prog_main_parseArguments: Process number higher than OMP_NUM_THREADS, I hope you know what you are doing.
########################################################################

           -------------------------------------------------
          |                 G F N 2 - x T B                 |
           -------------------------------------------------

        Reference                      10.1021/acs.jctc.8b01176
      * Hamiltonian:
        H0-scaling (s, p, d)           1.850000    2.230000    2.230000
        zeta-weighting                 0.500000
      * Dispersion:
        s8                             2.700000
        a1                             0.520000
        a2                             5.000000
        s9                             5.000000
      * Repulsion:
        kExp                           1.500000    1.000000
        rExp                           1.000000
      * Coulomb:
        alpha                          2.000000
        third order                    shell-resolved
        anisotropic                    true
        a3                             3.000000
        a5                             4.000000
        cn-shift                       1.200000
        cn-exp                         4.000000
        max-rad                        5.000000

      * Solvation model:               GBSA
        Solvent                        CH2Cl2
        Parameter file                 internal GFN2-xTB/GBSA
        Dielectric constant                8.9300E+00
        Reference state                gsolv [1 M gas/solution]
        Free energy shift                  4.4408E-03 Eh       2.7867E+00 kcal/mol
        Temperature                        2.9815E+02 K
        Density                            1.3300E+00 kg/L
        Solvent mass                       8.4930E+01 g/mol
        Interaction kernel             Still
        Born radius scaling (c1)           1.4917E+00
        Born radii integrator          GBOBC
        Born offset                        0.0000E+00 a0       0.0000E+00 AA
        H-bond correction              false
        Ion screening                  false
        Surface tension                    1.0000E-05 Eh       1.5569E+01 dyn/cm
        Grid points                               230 per atom

          ...................................................
          :                      SETUP                      :
          :.................................................:
          :  # basis functions                  75          :
          :  # atomic orbitals                  75          :
          :  # shells                           47          :
          :  # electrons                        80          :
          :  max. iterations                   250          :
          :  Hamiltonian                  GFN2-xTB          :
          :  restarted?                      false          :
          :  GBSA solvation                   true          :
          :  PC potential                    false          :
          :  electronic temp.          300.0000000     K    :
          :  accuracy                    1.0000000          :
          :  -> integral cutoff          0.2500000E+02      :
          :  -> integral neglect         0.1000000E-07      :
          :  -> SCF convergence          0.1000000E-05 Eh   :
          :  -> wf. convergence          0.1000000E-03 e    :
          :  Broyden damping             0.4000000          :
          ...................................................

 iter      E             dE          RMSdq      gap      omega  full diag
   1    -44.8022915 -0.448023E+02  0.348E+00    3.76       0.0  T
   2    -44.8463886 -0.440971E-01  0.196E+00    4.15       1.0  T
   3    -44.8460434  0.345230E-03  0.667E-01    4.14       1.0  T
   4    -44.8476504 -0.160707E-02  0.256E-01    4.17       1.0  T
   5    -44.8496300 -0.197955E-02  0.692E-02    4.16       1.0  T
   6    -44.8496479 -0.178925E-04  0.306E-02    4.17       1.0  T
   7    -44.8496492 -0.126343E-05  0.143E-02    4.17       1.2  T
   8    -44.8496522 -0.307724E-05  0.394E-03    4.17       4.4  T
   9    -44.8496523 -0.111741E-06  0.193E-03    4.17       9.0  T
  10    -44.8496524 -0.121151E-07  0.798E-04    4.17      21.8  T
  11    -44.8496524 -0.519769E-08  0.334E-04    4.17      52.1  T

   *** convergence criteria satisfied after 11 iterations ***

         #    Occupation            Energy/Eh            Energy/eV
      -------------------------------------------------------------
         1        2.0000           -0.6894580             -18.7611
       ...           ...                  ...                  ...
        34        2.0000           -0.4411636             -12.0047
        35        2.0000           -0.4295269             -11.6880
        36        2.0000           -0.4264070             -11.6031
        37        2.0000           -0.4138148             -11.2605
        38        2.0000           -0.4069287             -11.0731
        39        2.0000           -0.4051969             -11.0260
        40        2.0000           -0.3890790             -10.5874 (HOMO)
        41                         -0.2359414              -6.4203 (LUMO)
        42                         -0.2310883              -6.2882
        43                         -0.1123038              -3.0559
        44                         -0.0242754              -0.6606
        45                          0.0304810               0.8294
       ...                                ...                  ...
        75                          0.6064479              16.5023
      -------------------------------------------------------------
                  HL-Gap            0.1531375 Eh            4.1671 eV
             Fermi-level           -0.3125102 Eh           -8.5038 eV

 SCC (total)                   0 d,  0 h,  0 min,  0.115 sec
 SCC setup                      ...        0 min,  0.008 sec (  7.362%)
 Dispersion                     ...        0 min,  0.011 sec (  9.252%)
 classical contributions        ...        0 min,  0.005 sec (  4.512%)
 integral evaluation            ...        0 min,  0.008 sec (  7.312%)
 iterations                     ...        0 min,  0.034 sec ( 29.852%)
 molecular gradient             ...        0 min,  0.047 sec ( 40.571%)
 printout                       ...        0 min,  0.001 sec (  1.117%)

         :::::::::::::::::::::::::::::::::::::::::::::::::::::
         ::                     SUMMARY                     ::
         :::::::::::::::::::::::::::::::::::::::::::::::::::::
         :: total energy             -44.295583439275 Eh    ::
         :: total w/o Gsasa/hb       -44.278734622447 Eh    ::
         :: gradient norm              0.054750024764 Eh/a0 ::
         :: HOMO-LUMO gap              4.167084562516 eV    ::
         ::.................................................::
         :: SCC energy               -44.849652361856 Eh    ::
         :: -> isotropic ES            0.076025620082 Eh    ::
         :: -> anisotropic ES          0.000579846379 Eh    ::
         :: -> anisotropic XC          0.023368588530 Eh    ::
         :: -> dispersion             -0.026255745557 Eh    ::
         :: -> Gsolv                  -0.022508300087 Eh    ::
         ::    -> Gborn               -0.005659483258 Eh    ::
         ::    -> Gsasa               -0.021289646002 Eh    ::
         ::    -> Ghb                  0.000000000000 Eh    ::
         ::    -> Gshift               0.004440829173 Eh    ::
         :: repulsion energy           0.553986783253 Eh    ::
         :: add. restraining           0.000000000000 Eh    ::
         :: total charge              -0.000000000000 e     ::
         :::::::::::::::::::::::::::::::::::::::::::::::::::::

           -------------------------------------------------
          |                Property Printout                |
           -------------------------------------------------

    * Orbital Energies and Occupations

         #    Occupation            Energy/Eh            Energy/eV
      -------------------------------------------------------------
         1        2.0000           -0.6894580             -18.7611
       ...           ...                  ...                  ...
        28        2.0000           -0.4719535             -12.8425
        29        2.0000           -0.4709844             -12.8161
        30        2.0000           -0.4597301             -12.5099
        31        2.0000           -0.4483242             -12.1995
        32        2.0000           -0.4449495             -12.1077
        33        2.0000           -0.4431855             -12.0597
        34        2.0000           -0.4411636             -12.0047
        35        2.0000           -0.4295269             -11.6880
        36        2.0000           -0.4264070             -11.6031
        37        2.0000           -0.4138148             -11.2605
        38        2.0000           -0.4069287             -11.0731
        39        2.0000           -0.4051969             -11.0260
        40        2.0000           -0.3890790             -10.5874 (HOMO)
        41                         -0.2359414              -6.4203 (LUMO)
        42                         -0.2310883              -6.2882
        43                         -0.1123038              -3.0559
        44                         -0.0242754              -0.6606
        45                          0.0304810               0.8294
        46                          0.0450466               1.2258
        47                          0.0587361               1.5983
        48                          0.0689597               1.8765
        49                          0.0881053               2.3975
        50                          0.0915063               2.4900
        51                          0.1068153               2.9066
       ...                                ...                  ...
        75                          0.6064479              16.5023
      -------------------------------------------------------------
                  HL-Gap            0.1531375 Eh            4.1671 eV
             Fermi-level           -0.3125102 Eh           -8.5038 eV

     #   Z          covCN         q      C6AA      α(0)
     1   6 C        2.905    -0.029    28.734     8.789
     2   6 C        2.910    -0.037    28.926     8.819
     3   6 C        2.959    -0.016    28.406     8.742
     4   6 C        2.908    -0.034    28.844     8.807
     5   6 C        2.906    -0.029    28.726     8.788
     6   6 C        2.907    -0.030    28.752     8.792
     7   1 H        0.924     0.032     2.565     2.505
     8   1 H        0.924     0.052     2.297     2.370
     9   1 H        0.925     0.041     2.439     2.442
    10   7 N        2.674    -0.293    27.558     7.797
    11   1 H        0.798     0.308     0.697     1.312
    12   6 C        3.731     0.003    20.613     6.481
    13   1 H        0.923     0.043     2.407     2.426
    14   1 H        0.923     0.047     2.352     2.398
    15   1 H        0.859     0.150     1.402     1.855
    16   1 H        0.803     0.285     0.768     1.376
    17   1 H        0.802     0.320     0.665     1.281
    18   6 C        3.659     0.172    18.095     6.105
    19   1 H        0.923     0.027     2.628     2.535
    20   8 O        1.649    -0.487    22.621     6.420
    21   6 C        3.795    -0.063    21.717     6.636
    22   1 H        0.923     0.030     2.588     2.516
    23   1 H        0.923     0.033     2.549     2.497
    24   8 O        1.601    -0.624    25.773     6.852
    25   6 C        3.795    -0.053    21.532     6.608
    26   1 H        0.923     0.033     2.540     2.492
    27   1 H        0.923     0.032     2.552     2.498
    28   1 H        0.924     0.040     2.446     2.446
    29   1 H        0.924     0.041     2.435     2.440
    30   6 C        3.745    -0.100    22.484     6.764
    31   1 H        0.923     0.035     2.517     2.481
    32   1 H        0.923     0.037     2.491     2.468
    33   1 H        0.923     0.034     2.532     2.489

 Mol. C6AA /au·bohr⁶  :       9454.813409
 Mol. C8AA /au·bohr⁸  :     210485.697255
 Mol. α(0) /au        :        149.226309


Wiberg/Mayer (AO) data.
largest (>0.10) Wiberg bond orders for each atom

 ---------------------------------------------------------------------------
     #   Z sym  total        # sym  WBO       # sym  WBO       # sym  WBO
 ---------------------------------------------------------------------------
     1   6 C    3.990 --     2 C    1.442     6 C    1.440    28 H    0.970
                             4 C    0.111
     2   6 C    3.989 --     1 C    1.442     3 C    1.416     7 H    0.968
                             5 C    0.111
     3   6 C    3.985 --     2 C    1.416     4 C    1.410    18 C    0.980
                             6 C    0.112
     4   6 C    3.989 --     5 C    1.448     3 C    1.410     8 H    0.965
                             1 C    0.111
     5   6 C    3.990 --     4 C    1.448     6 C    1.434    29 H    0.970
                             2 C    0.111
     6   6 C    3.990 --     1 C    1.440     5 C    1.434     9 H    0.971
                             3 C    0.112
     7   1 H    0.999 --     2 C    0.968
     8   1 H    0.997 --     4 C    0.965
     9   1 H    0.998 --     6 C    0.971
    10   7 N    3.137 --    12 C    0.995    18 C    0.979    15 H    0.951
    11   1 H    0.905 --    24 O    0.834
    12   6 C    3.975 --    21 C    1.001    10 N    0.995    14 H    0.975
                            13 H    0.972
    13   1 H    0.997 --    12 C    0.972
    14   1 H    0.998 --    12 C    0.975
    15   1 H    0.978 --    10 N    0.951
    16   1 H    0.919 --    24 O    0.916
    17   1 H    0.898 --    20 O    0.852
    18   6 C    3.949 --    20 O    0.983     3 C    0.980    10 N    0.979
                            19 H    0.954
    19   1 H    0.999 --    18 C    0.954
    20   8 O    1.944 --    18 C    0.983    17 H    0.852
    21   6 C    3.996 --    25 C    1.005    12 C    1.001    23 H    0.976
                            22 H    0.974
    22   1 H    0.999 --    21 C    0.974
    23   1 H    0.999 --    21 C    0.976
    24   8 O    1.829 --    16 H    0.916    11 H    0.834
    25   6 C    3.996 --    30 C    1.019    21 C    1.005    27 H    0.978
                            26 H    0.978
    26   1 H    0.999 --    25 C    0.978
    27   1 H    0.999 --    25 C    0.978
    28   1 H    0.998 --     1 C    0.970
    29   1 H    0.998 --     5 C    0.970
    30   6 C    3.996 --    25 C    1.019    33 H    0.988    31 H    0.988
                            32 H    0.987
    31   1 H    0.999 --    30 C    0.988
    32   1 H    0.998 --    30 C    0.987
    33   1 H    0.999 --    30 C    0.988
 ---------------------------------------------------------------------------

Topologies differ in total number of bonds
Writing topology from bond orders to xtbtopo.mol

molecular dipole:
                 x           y           z       tot (Debye)
 q only:       -0.982      -0.382      -0.407
   full:       -1.369      -0.392      -0.462       3.805
molecular quadrupole (traceless):
                xx          xy          yy          xz          yz          zz
 q only:        1.884       4.090      -0.566      -7.098      -7.025      -1.318
  q+dip:        0.743       2.721       0.399      -9.529      -9.356      -1.141
   full:        1.457       4.386       0.035      -8.374      -8.527      -1.492


           -------------------------------------------------
          | TOTAL ENERGY              -44.295583439275 Eh   |
          | GRADIENT NORM               0.054750024764 Eh/α |
          | HOMO-LUMO GAP               4.167084562516 eV   |
           -------------------------------------------------

------------------------------------------------------------------------
 * finished run on 2020/08/08 at 15:45:45.942     
------------------------------------------------------------------------
 total:
 * wall-time:     0 d,  0 h,  0 min,  0.192 sec
 *  cpu-time:     0 d,  0 h,  0 min,  2.191 sec
 * ratio c/w:    11.424 speedup
 SCF:
 * wall-time:     0 d,  0 h,  0 min,  0.120 sec
 *  cpu-time:     0 d,  0 h,  0 min,  1.373 sec
 * ratio c/w:    11.466 speedup


-------------------------   --------------------
FINAL SINGLE POINT ENERGY       -44.295583439280
-------------------------   --------------------


----------------------------------------------------------------------------
                           ORCA NUMERICAL FREQUENCIES
                              (9-process run)
----------------------------------------------------------------------------

Number of atoms                ... 33
Central differences            ... used
Number of displacements        ... 198
Numerical increment            ... 5.000e-03 bohr
IR-spectrum generation         ... on
Raman-spectrum generation      ... off
Surface Crossing Hessian       ... off
List of participating nodes    ...  /tmp/slurm-scratch/freq.204/freq.hostnames

The output will be reduced. Please look at the following files:
SCF program output             ... >/tmp/slurm-scratch/freq.204/freq.lastscf
Integral program output        ... >/tmp/slurm-scratch/freq.204/freq.lastint
Gradient program output        ... >/tmp/slurm-scratch/freq.204/freq.lastgrad
Dipole moment program output   ... >/tmp/slurm-scratch/freq.204/freq.lastmom
AutoCI program output          ... >/tmp/slurm-scratch/freq.204/freq.lastautoci


         <<< Energy and Gradient at the input geometry >>>

        <<< Energy and Gradient at displaced geometries >>>
             <<<Displacing   2/coordinate 1 (+)>>>
             <<<Displacing   3/coordinate 3 (+)>>>
             <<<Displacing   3/coordinate 2 (+)>>>
             <<<Displacing   3/coordinate 3 (-)>>>
             <<<Displacing   2/coordinate 1 (-)>>>
             <<<Displacing   1/coordinate 3 (+)>>>
             <<<Displacing   3/coordinate 2 (-)>>>
             <<<Displacing   2/coordinate 3 (+)>>>
             <<<Displacing   1/coordinate 3 (-)>>>
             <<<Displacing   3/coordinate 1 (+)>>>
             <<<Displacing   1/coordinate 2 (+)>>>
             <<<Displacing   1/coordinate 1 (+)>>>
             <<<Displacing   2/coordinate 2 (+)>>>
             <<<Displacing   3/coordinate 1 (-)>>>
             <<<Displacing   2/coordinate 3 (-)>>>
             <<<Displacing   1/coordinate 2 (-)>>>
             <<<Displacing   1/coordinate 1 (-)>>>
             <<<Displacing   2/coordinate 2 (-)>>>
             <<<Displacing   6/coordinate 3 (+)>>>
             <<<Displacing   4/coordinate 1 (+)>>>
             <<<Displacing   6/coordinate 3 (-)>>>
             <<<Displacing   4/coordinate 1 (-)>>>
             <<<Displacing   4/coordinate 2 (+)>>>
             <<<Displacing   5/coordinate 2 (+)>>>
             <<<Displacing   4/coordinate 3 (+)>>>
             <<<Displacing   4/coordinate 2 (-)>>>
             <<<Displacing   5/coordinate 1 (+)>>>
             <<<Displacing   5/coordinate 2 (-)>>>
             <<<Displacing   4/coordinate 3 (-)>>>
             <<<Displacing   6/coordinate 1 (+)>>>
             <<<Displacing   5/coordinate 1 (-)>>>
             <<<Displacing   6/coordinate 1 (-)>>>
             <<<Displacing   5/coordinate 3 (+)>>>
             <<<Displacing   5/coordinate 3 (-)>>>
             <<<Displacing   6/coordinate 2 (+)>>>
             <<<Displacing   6/coordinate 2 (-)>>>
             <<<Displacing   7/coordinate 1 (+)>>>
             <<<Displacing   7/coordinate 3 (+)>>>
             <<<Displacing   7/coordinate 2 (+)>>>
             <<<Displacing   7/coordinate 2 (-)>>>
             <<<Displacing   7/coordinate 1 (-)>>>
             <<<Displacing   7/coordinate 3 (-)>>>
             <<<Displacing   8/coordinate 1 (+)>>>
             <<<Displacing   8/coordinate 1 (-)>>>
             <<<Displacing   8/coordinate 2 (+)>>>
             <<<Displacing   8/coordinate 3 (+)>>>
             <<<Displacing   9/coordinate 2 (+)>>>
             <<<Displacing   8/coordinate 2 (-)>>>
             <<<Displacing   9/coordinate 1 (+)>>>
             <<<Displacing   9/coordinate 2 (-)>>>
             <<<Displacing   8/coordinate 3 (-)>>>
             <<<Displacing   9/coordinate 1 (-)>>>
             <<<Displacing   9/coordinate 3 (+)>>>
             <<<Displacing   9/coordinate 3 (-)>>>
             <<<Displacing  10/coordinate 1 (+)>>>
             <<<Displacing  10/coordinate 1 (-)>>>
             <<<Displacing  10/coordinate 3 (+)>>>
             <<<Displacing  11/coordinate 1 (+)>>>
             <<<Displacing  11/coordinate 1 (-)>>>
             <<<Displacing  10/coordinate 3 (-)>>>
             <<<Displacing  10/coordinate 2 (+)>>>
             <<<Displacing  11/coordinate 3 (+)>>>
             <<<Displacing  12/coordinate 1 (+)>>>
             <<<Displacing  10/coordinate 2 (-)>>>
             <<<Displacing  11/coordinate 3 (-)>>>
             <<<Displacing  12/coordinate 1 (-)>>>
             <<<Displacing  11/coordinate 2 (+)>>>
             <<<Displacing  11/coordinate 2 (-)>>>
             <<<Displacing  12/coordinate 2 (+)>>>
             <<<Displacing  12/coordinate 2 (-)>>>
             <<<Displacing  12/coordinate 3 (+)>>>
             <<<Displacing  12/coordinate 3 (-)>>>
             <<<Displacing  13/coordinate 3 (+)>>>
             <<<Displacing  13/coordinate 1 (+)>>>
             <<<Displacing  13/coordinate 3 (-)>>>
             <<<Displacing  13/coordinate 1 (-)>>>
             <<<Displacing  13/coordinate 2 (+)>>>
             <<<Displacing  14/coordinate 1 (+)>>>
             <<<Displacing  13/coordinate 2 (-)>>>
             <<<Displacing  14/coordinate 1 (-)>>>
             <<<Displacing  14/coordinate 2 (+)>>>
             <<<Displacing  14/coordinate 2 (-)>>>
             <<<Displacing  14/coordinate 3 (+)>>>
             <<<Displacing  15/coordinate 1 (+)>>>
             <<<Displacing  14/coordinate 3 (-)>>>
             <<<Displacing  15/coordinate 1 (-)>>>
             <<<Displacing  15/coordinate 2 (+)>>>
             <<<Displacing  15/coordinate 2 (-)>>>
             <<<Displacing  15/coordinate 3 (+)>>>
             <<<Displacing  15/coordinate 3 (-)>>>
             <<<Displacing  16/coordinate 1 (+)>>>
             <<<Displacing  16/coordinate 2 (+)>>>
             <<<Displacing  16/coordinate 3 (+)>>>
             <<<Displacing  16/coordinate 1 (-)>>>
             <<<Displacing  16/coordinate 2 (-)>>>
             <<<Displacing  16/coordinate 3 (-)>>>
             <<<Displacing  17/coordinate 1 (+)>>>
             <<<Displacing  17/coordinate 1 (-)>>>
             <<<Displacing  17/coordinate 2 (+)>>>
             <<<Displacing  17/coordinate 3 (+)>>>
             <<<Displacing  17/coordinate 2 (-)>>>
             <<<Displacing  17/coordinate 3 (-)>>>
             <<<Displacing  18/coordinate 1 (+)>>>
             <<<Displacing  18/coordinate 1 (-)>>>
             <<<Displacing  18/coordinate 2 (+)>>>
             <<<Displacing  18/coordinate 3 (+)>>>
             <<<Displacing  18/coordinate 2 (-)>>>
             <<<Displacing  18/coordinate 3 (-)>>>
             <<<Displacing  19/coordinate 1 (+)>>>
             <<<Displacing  19/coordinate 2 (+)>>>
             <<<Displacing  19/coordinate 3 (+)>>>
             <<<Displacing  19/coordinate 1 (-)>>>
             <<<Displacing  19/coordinate 2 (-)>>>
             <<<Displacing  19/coordinate 3 (-)>>>
             <<<Displacing  20/coordinate 2 (+)>>>
             <<<Displacing  20/coordinate 1 (+)>>>
             <<<Displacing  20/coordinate 2 (-)>>>
             <<<Displacing  20/coordinate 1 (-)>>>
             <<<Displacing  20/coordinate 3 (+)>>>
             <<<Displacing  21/coordinate 1 (+)>>>
             <<<Displacing  21/coordinate 3 (+)>>>
             <<<Displacing  20/coordinate 3 (-)>>>
             <<<Displacing  21/coordinate 3 (-)>>>
             <<<Displacing  21/coordinate 1 (-)>>>
             <<<Displacing  21/coordinate 2 (+)>>>
             <<<Displacing  21/coordinate 2 (-)>>>
             <<<Displacing  22/coordinate 2 (+)>>>
             <<<Displacing  22/coordinate 2 (-)>>>
             <<<Displacing  22/coordinate 1 (+)>>>
             <<<Displacing  22/coordinate 3 (+)>>>
             <<<Displacing  22/coordinate 3 (-)>>>
             <<<Displacing  22/coordinate 1 (-)>>>
             <<<Displacing  23/coordinate 1 (+)>>>
             <<<Displacing  24/coordinate 2 (+)>>>
             <<<Displacing  24/coordinate 1 (+)>>>
             <<<Displacing  23/coordinate 2 (+)>>>
             <<<Displacing  23/coordinate 1 (-)>>>
             <<<Displacing  23/coordinate 3 (+)>>>
             <<<Displacing  23/coordinate 2 (-)>>>
             <<<Displacing  24/coordinate 1 (-)>>>
             <<<Displacing  24/coordinate 2 (-)>>>
             <<<Displacing  23/coordinate 3 (-)>>>
             <<<Displacing  24/coordinate 3 (+)>>>
             <<<Displacing  24/coordinate 3 (-)>>>
             <<<Displacing  25/coordinate 2 (+)>>>
             <<<Displacing  25/coordinate 2 (-)>>>
             <<<Displacing  25/coordinate 1 (+)>>>
             <<<Displacing  25/coordinate 3 (+)>>>
             <<<Displacing  25/coordinate 1 (-)>>>
             <<<Displacing  25/coordinate 3 (-)>>>
             <<<Displacing  26/coordinate 3 (+)>>>
             <<<Displacing  26/coordinate 1 (+)>>>
             <<<Displacing  26/coordinate 3 (-)>>>
             <<<Displacing  26/coordinate 1 (-)>>>
             <<<Displacing  27/coordinate 1 (+)>>>
             <<<Displacing  26/coordinate 2 (+)>>>
             <<<Displacing  26/coordinate 2 (-)>>>
             <<<Displacing  27/coordinate 1 (-)>>>
             <<<Displacing  27/coordinate 2 (+)>>>
             <<<Displacing  27/coordinate 2 (-)>>>
             <<<Displacing  27/coordinate 3 (+)>>>
             <<<Displacing  27/coordinate 3 (-)>>>
             <<<Displacing  28/coordinate 1 (+)>>>
             <<<Displacing  28/coordinate 2 (+)>>>
             <<<Displacing  28/coordinate 3 (+)>>>
             <<<Displacing  28/coordinate 1 (-)>>>
             <<<Displacing  28/coordinate 2 (-)>>>
             <<<Displacing  28/coordinate 3 (-)>>>
             <<<Displacing  29/coordinate 1 (+)>>>
             <<<Displacing  30/coordinate 1 (+)>>>
             <<<Displacing  29/coordinate 2 (+)>>>
             <<<Displacing  29/coordinate 3 (+)>>>
             <<<Displacing  29/coordinate 1 (-)>>>
             <<<Displacing  30/coordinate 1 (-)>>>
             <<<Displacing  29/coordinate 3 (-)>>>
             <<<Displacing  29/coordinate 2 (-)>>>
             <<<Displacing  30/coordinate 2 (+)>>>
             <<<Displacing  30/coordinate 2 (-)>>>
             <<<Displacing  30/coordinate 3 (+)>>>
             <<<Displacing  30/coordinate 3 (-)>>>
             <<<Displacing  31/coordinate 3 (+)>>>
             <<<Displacing  31/coordinate 2 (+)>>>
             <<<Displacing  31/coordinate 1 (+)>>>
             <<<Displacing  31/coordinate 3 (-)>>>
             <<<Displacing  31/coordinate 2 (-)>>>
             <<<Displacing  31/coordinate 1 (-)>>>
             <<<Displacing  32/coordinate 1 (+)>>>
             <<<Displacing  32/coordinate 1 (-)>>>
             <<<Displacing  32/coordinate 2 (+)>>>
             <<<Displacing  32/coordinate 2 (-)>>>
             <<<Displacing  33/coordinate 1 (+)>>>
             <<<Displacing  32/coordinate 3 (+)>>>
             <<<Displacing  33/coordinate 1 (-)>>>
             <<<Displacing  32/coordinate 3 (-)>>>
             <<<Displacing  33/coordinate 2 (+)>>>
             <<<Displacing  33/coordinate 2 (-)>>>
             <<<Displacing  33/coordinate 3 (+)>>>
             <<<Displacing  33/coordinate 3 (-)>>>

-----------------------
VIBRATIONAL FREQUENCIES
-----------------------

Scaling factor for frequencies =  1.000000000 (already applied!)

   0:         0.00 cm**-1
   1:         0.00 cm**-1
   2:         0.00 cm**-1
   3:         0.00 cm**-1
   4:         0.00 cm**-1
   5:         0.00 cm**-1
   6:        70.89 cm**-1
   7:        82.25 cm**-1
   8:        96.77 cm**-1
   9:       124.10 cm**-1
  10:       138.97 cm**-1
  11:       148.74 cm**-1
  12:       170.48 cm**-1
  13:       172.76 cm**-1
  14:       183.34 cm**-1
  15:       224.07 cm**-1
  16:       240.25 cm**-1
  17:       266.15 cm**-1
  18:       313.33 cm**-1
  19:       350.27 cm**-1
  20:       353.00 cm**-1
  21:       405.59 cm**-1
  22:       407.77 cm**-1
  23:       458.43 cm**-1
  24:       498.77 cm**-1
  25:       539.09 cm**-1
  26:       546.64 cm**-1
  27:       589.94 cm**-1
  28:       591.39 cm**-1
  29:       627.73 cm**-1
  30:       630.55 cm**-1
  31:       691.04 cm**-1
  32:       774.68 cm**-1
  33:       791.83 cm**-1
  34:       801.46 cm**-1
  35:       817.68 cm**-1
  36:       839.08 cm**-1
  37:       854.11 cm**-1
  38:       915.51 cm**-1
  39:       931.41 cm**-1
  40:       938.10 cm**-1
  41:       944.38 cm**-1
  42:       957.70 cm**-1
  43:       962.64 cm**-1
  44:       965.19 cm**-1
  45:       972.93 cm**-1
  46:      1001.72 cm**-1
  47:      1024.57 cm**-1
  48:      1051.11 cm**-1
  49:      1057.65 cm**-1
  50:      1074.69 cm**-1
  51:      1111.49 cm**-1
  52:      1120.26 cm**-1
  53:      1143.81 cm**-1
  54:      1183.57 cm**-1
  55:      1186.38 cm**-1
  56:      1202.57 cm**-1
  57:      1209.93 cm**-1
  58:      1221.97 cm**-1
  59:      1227.68 cm**-1
  60:      1261.17 cm**-1
  61:      1271.41 cm**-1
  62:      1283.68 cm**-1
  63:      1288.59 cm**-1
  64:      1306.42 cm**-1
  65:      1334.84 cm**-1
  66:      1347.37 cm**-1
  67:      1372.27 cm**-1
  68:      1374.44 cm**-1
  69:      1409.93 cm**-1
  70:      1434.57 cm**-1
  71:      1442.72 cm**-1
  72:      1485.62 cm**-1
  73:      1502.61 cm**-1
  74:      1508.37 cm**-1
  75:      1511.86 cm**-1
  76:      1515.48 cm**-1
  77:      1518.83 cm**-1
  78:      1537.61 cm**-1
  79:      1561.18 cm**-1
  80:      2817.60 cm**-1
  81:      2862.59 cm**-1
  82:      2866.64 cm**-1
  83:      2872.40 cm**-1
  84:      2888.86 cm**-1
  85:      2890.34 cm**-1
  86:      2897.28 cm**-1
  87:      2905.83 cm**-1
  88:      2912.45 cm**-1
  89:      2924.08 cm**-1
  90:      2926.99 cm**-1
  91:      2941.52 cm**-1
  92:      2953.99 cm**-1
  93:      2956.54 cm**-1
  94:      2973.59 cm**-1
  95:      2993.65 cm**-1
  96:      3154.25 cm**-1
  97:      3284.13 cm**-1
  98:      3405.88 cm**-1


------------
NORMAL MODES
------------

These modes are the cartesian displacements weighted by the diagonal matrix
M(i,i)=1/sqrt(m[i]) where m[i] is the mass of the displaced atom
Thus, these vectors are normalized but *not* orthogonal

                  0          1          2          3          4          5    
      0       0.000000   0.000000   0.000000   0.000000   0.000000   0.000000
      1       0.000000   0.000000   0.000000   0.000000   0.000000   0.000000
      2       0.000000   0.000000   0.000000   0.000000   0.000000   0.000000
      3       0.000000   0.000000   0.000000   0.000000   0.000000   0.000000
      4       0.000000   0.000000   0.000000   0.000000   0.000000   0.000000
      5       0.000000   0.000000   0.000000   0.000000   0.000000   0.000000
      6       0.000000   0.000000   0.000000   0.000000   0.000000   0.000000
      7       0.000000   0.000000   0.000000   0.000000   0.000000   0.000000
      8       0.000000   0.000000   0.000000   0.000000   0.000000   0.000000
      9       0.000000   0.000000   0.000000   0.000000   0.000000   0.000000
     10       0.000000   0.000000   0.000000   0.000000   0.000000   0.000000
     11       0.000000   0.000000   0.000000   0.000000   0.000000   0.000000
     12       0.000000   0.000000   0.000000   0.000000   0.000000   0.000000
     13       0.000000   0.000000   0.000000   0.000000   0.000000   0.000000
     14       0.000000   0.000000   0.000000   0.000000   0.000000   0.000000
     15       0.000000   0.000000   0.000000   0.000000   0.000000   0.000000
     16       0.000000   0.000000   0.000000   0.000000   0.000000   0.000000
     17       0.000000   0.000000   0.000000   0.000000   0.000000   0.000000
     18       0.000000   0.000000   0.000000   0.000000   0.000000   0.000000
     19       0.000000   0.000000   0.000000   0.000000   0.000000   0.000000
     20       0.000000   0.000000   0.000000   0.000000   0.000000   0.000000
     21       0.000000   0.000000   0.000000   0.000000   0.000000   0.000000
     22       0.000000   0.000000   0.000000   0.000000   0.000000   0.000000
     23       0.000000   0.000000   0.000000   0.000000   0.000000   0.000000
     24       0.000000   0.000000   0.000000   0.000000   0.000000   0.000000
     25       0.000000   0.000000   0.000000   0.000000   0.000000   0.000000
     26       0.000000   0.000000   0.000000   0.000000   0.000000   0.000000
     27       0.000000   0.000000   0.000000   0.000000   0.000000   0.000000
     28       0.000000   0.000000   0.000000   0.000000   0.000000   0.000000
     29       0.000000   0.000000   0.000000   0.000000   0.000000   0.000000
     30       0.000000   0.000000   0.000000   0.000000   0.000000   0.000000
     31       0.000000   0.000000   0.000000   0.000000   0.000000   0.000000
     32       0.000000   0.000000   0.000000   0.000000   0.000000   0.000000
     33       0.000000   0.000000   0.000000   0.000000   0.000000   0.000000
     34       0.000000   0.000000   0.000000   0.000000   0.000000   0.000000
     35       0.000000   0.000000   0.000000   0.000000   0.000000   0.000000
     36       0.000000   0.000000   0.000000   0.000000   0.000000   0.000000
     37       0.000000   0.000000   0.000000   0.000000   0.000000   0.000000
     38       0.000000   0.000000   0.000000   0.000000   0.000000   0.000000
     39       0.000000   0.000000   0.000000   0.000000   0.000000   0.000000
     40       0.000000   0.000000   0.000000   0.000000   0.000000   0.000000
     41       0.000000   0.000000   0.000000   0.000000   0.000000   0.000000
     42       0.000000   0.000000   0.000000   0.000000   0.000000   0.000000
     43       0.000000   0.000000   0.000000   0.000000   0.000000   0.000000
     44       0.000000   0.000000   0.000000   0.000000   0.000000   0.000000
     45       0.000000   0.000000   0.000000   0.000000   0.000000   0.000000
     46       0.000000   0.000000   0.000000   0.000000   0.000000   0.000000
     47       0.000000   0.000000   0.000000   0.000000   0.000000   0.000000
     48       0.000000   0.000000   0.000000   0.000000   0.000000   0.000000
     49       0.000000   0.000000   0.000000   0.000000   0.000000   0.000000
     50       0.000000   0.000000   0.000000   0.000000   0.000000   0.000000
     51       0.000000   0.000000   0.000000   0.000000   0.000000   0.000000
     52       0.000000   0.000000   0.000000   0.000000   0.000000   0.000000
     53       0.000000   0.000000   0.000000   0.000000   0.000000   0.000000
     54       0.000000   0.000000   0.000000   0.000000   0.000000   0.000000
     55       0.000000   0.000000   0.000000   0.000000   0.000000   0.000000
     56       0.000000   0.000000   0.000000   0.000000   0.000000   0.000000
     57       0.000000   0.000000   0.000000   0.000000   0.000000   0.000000
     58       0.000000   0.000000   0.000000   0.000000   0.000000   0.000000
     59       0.000000   0.000000   0.000000   0.000000   0.000000   0.000000
     60       0.000000   0.000000   0.000000   0.000000   0.000000   0.000000
     61       0.000000   0.000000   0.000000   0.000000   0.000000   0.000000
     62       0.000000   0.000000   0.000000   0.000000   0.000000   0.000000
     63       0.000000   0.000000   0.000000   0.000000   0.000000   0.000000
     64       0.000000   0.000000   0.000000   0.000000   0.000000   0.000000
     65       0.000000   0.000000   0.000000   0.000000   0.000000   0.000000
     66       0.000000   0.000000   0.000000   0.000000   0.000000   0.000000
     67       0.000000   0.000000   0.000000   0.000000   0.000000   0.000000
     68       0.000000   0.000000   0.000000   0.000000   0.000000   0.000000
     69       0.000000   0.000000   0.000000   0.000000   0.000000   0.000000
     70       0.000000   0.000000   0.000000   0.000000   0.000000   0.000000
     71       0.000000   0.000000   0.000000   0.000000   0.000000   0.000000
     72       0.000000   0.000000   0.000000   0.000000   0.000000   0.000000
     73       0.000000   0.000000   0.000000   0.000000   0.000000   0.000000
     74       0.000000   0.000000   0.000000   0.000000   0.000000   0.000000
     75       0.000000   0.000000   0.000000   0.000000   0.000000   0.000000
     76       0.000000   0.000000   0.000000   0.000000   0.000000   0.000000
     77       0.000000   0.000000   0.000000   0.000000   0.000000   0.000000
     78       0.000000   0.000000   0.000000   0.000000   0.000000   0.000000
     79       0.000000   0.000000   0.000000   0.000000   0.000000   0.000000
     80       0.000000   0.000000   0.000000   0.000000   0.000000   0.000000
     81       0.000000   0.000000   0.000000   0.000000   0.000000   0.000000
     82       0.000000   0.000000   0.000000   0.000000   0.000000   0.000000
     83       0.000000   0.000000   0.000000   0.000000   0.000000   0.000000
     84       0.000000   0.000000   0.000000   0.000000   0.000000   0.000000
     85       0.000000   0.000000   0.000000   0.000000   0.000000   0.000000
     86       0.000000   0.000000   0.000000   0.000000   0.000000   0.000000
     87       0.000000   0.000000   0.000000   0.000000   0.000000   0.000000
     88       0.000000   0.000000   0.000000   0.000000   0.000000   0.000000
     89       0.000000   0.000000   0.000000   0.000000   0.000000   0.000000
     90       0.000000   0.000000   0.000000   0.000000   0.000000   0.000000
     91       0.000000   0.000000   0.000000   0.000000   0.000000   0.000000
     92       0.000000   0.000000   0.000000   0.000000   0.000000   0.000000
     93       0.000000   0.000000   0.000000   0.000000   0.000000   0.000000
     94       0.000000   0.000000   0.000000   0.000000   0.000000   0.000000
     95       0.000000   0.000000   0.000000   0.000000   0.000000   0.000000
     96       0.000000   0.000000   0.000000   0.000000   0.000000   0.000000
     97       0.000000   0.000000   0.000000   0.000000   0.000000   0.000000
     98       0.000000   0.000000   0.000000   0.000000   0.000000   0.000000
                  6          7          8          9         10         11    
      0       0.174196   0.000743  -0.013386   0.147867  -0.020082  -0.070820
      1       0.004548  -0.101470  -0.016530   0.134118  -0.046383  -0.064018
      2      -0.057016   0.011070  -0.032139   0.095734  -0.022679   0.017349
      3       0.094704   0.001629   0.029307   0.144966   0.039552   0.029036
      4       0.015689  -0.056179   0.021695   0.142400   0.090875  -0.035967
      5      -0.092368   0.023143  -0.001132   0.096805   0.042845   0.071408
      6       0.024404   0.006987   0.052632  -0.010353   0.031843   0.105702
      7       0.006272  -0.021825   0.042065  -0.007273   0.123767  -0.002718
      8      -0.059612   0.065802   0.012233  -0.009822   0.089687   0.065711
      9       0.045484   0.010583   0.026997  -0.155910  -0.024950   0.095319
     10      -0.009323  -0.036681   0.018643  -0.161868   0.035117   0.013439
     11       0.009800   0.093983  -0.011158  -0.113429   0.095540   0.017889
     12       0.126413   0.006761  -0.015093  -0.151673  -0.088716  -0.005560
     13      -0.020018  -0.083924  -0.019340  -0.167750  -0.104001  -0.015746
     14       0.044211   0.079591  -0.041682  -0.112799   0.029652  -0.038306
     15       0.189298   0.003155  -0.033396  -0.002189  -0.095000  -0.093398
     16      -0.014881  -0.115414  -0.034679  -0.022138  -0.151756  -0.060125
     17       0.009259   0.038903  -0.050884  -0.010074  -0.033361  -0.041480
     18       0.083269  -0.001798   0.043985   0.252204   0.082152   0.038701
     19       0.031207  -0.046848   0.035049   0.252571   0.152142  -0.047281
     20      -0.142707   0.000524   0.011805   0.172979   0.044865   0.111497
     21       0.000957   0.021288   0.037471  -0.255672  -0.037224   0.152427
     22      -0.014842  -0.013144   0.027809  -0.260362   0.059987   0.042226
     23       0.032742   0.116739  -0.004895  -0.182684   0.138279   0.017791
     24       0.246847   0.001939  -0.062209   0.000340  -0.149939  -0.172308
     25      -0.025767  -0.148417  -0.059943  -0.029652  -0.261735  -0.086579
     26       0.034108   0.029372  -0.071586  -0.011013  -0.089636  -0.086739
     27      -0.084229  -0.034112   0.017878   0.004753   0.075210  -0.024458
     28       0.053573   0.036725   0.128479   0.001845   0.091886   0.044655
     29      -0.092632   0.071781   0.076358   0.027353  -0.057425  -0.100195
     30      -0.113095   0.166546  -0.143026   0.051090  -0.087938  -0.097608
     31       0.066623   0.130901  -0.044255   0.078433   0.057079   0.148857
     32      -0.074806  -0.341039  -0.007128   0.057074  -0.055881  -0.032243
     33      -0.025834  -0.036825   0.035816   0.000707   0.066816  -0.062554
     34       0.019474   0.050279   0.163660   0.005834  -0.056051   0.015276
     35      -0.028224   0.072432   0.104271   0.024318  -0.112261  -0.156332
     36      -0.000562  -0.028009   0.060866   0.016702   0.140230  -0.105532
     37       0.014024   0.049342   0.159623   0.003114  -0.072417   0.019477
     38      -0.032139   0.094167   0.166223   0.041949  -0.174066  -0.257899
     39       0.029499  -0.044784   0.037754  -0.010748   0.007833  -0.070941
     40       0.011825   0.073236   0.224894   0.028727  -0.079228  -0.092601
     41      -0.046118   0.067930   0.084809   0.021666  -0.083262  -0.120736
     42      -0.134613  -0.048458  -0.007285   0.010523   0.120238   0.003317
     43       0.081164   0.054879   0.134522  -0.022340   0.136487   0.172970
     44      -0.078915   0.073299   0.084453   0.028679  -0.078265  -0.126211
     45      -0.135149   0.286778  -0.206483   0.095275  -0.190138  -0.057172
     46       0.059451   0.082723  -0.151168   0.123149  -0.080876   0.311077
     47      -0.063351  -0.457636  -0.050026   0.065253  -0.091994   0.080623
     48      -0.116414   0.023556   0.086268   0.027648  -0.076311   0.059424
     49       0.055241   0.054359  -0.026375   0.058440   0.129939  -0.245493
     50      -0.027597   0.034142  -0.018306  -0.005516   0.140293  -0.021095
     51      -0.066222  -0.010401   0.102508  -0.007020  -0.009340   0.115373
     52       0.044762   0.026581   0.081946   0.011252   0.122816  -0.035881
     53      -0.091735   0.069871   0.049706  -0.003474   0.062288   0.061347
     54      -0.065264   0.002653   0.165928  -0.013026  -0.061316   0.181025
     55       0.065679   0.043485   0.123149   0.009396   0.086019  -0.001150
     56      -0.150204   0.050304   0.094453  -0.015937   0.036103   0.132999
     57      -0.124204  -0.026173   0.161488   0.004875  -0.090415   0.109863
     58       0.052454   0.023002   0.012690   0.047246   0.118080  -0.207741
     59      -0.046032   0.079500   0.000548  -0.009384   0.128002   0.050995
     60      -0.071591  -0.037421   0.006185  -0.010162   0.040628  -0.047028
     61      -0.010340   0.035255   0.096160  -0.021550  -0.120721   0.083190
     62       0.077895   0.035742   0.068468   0.001252  -0.125754  -0.075022
     63      -0.109959  -0.047167  -0.068190  -0.032894   0.018315  -0.031317
     64      -0.001379   0.037756   0.115099  -0.016495  -0.120725   0.085298
     65       0.101172   0.042656   0.143943   0.011019  -0.207617   0.020372
     66      -0.122947  -0.001191   0.094046   0.017954   0.007283  -0.081195
     67       0.010837   0.031732   0.126467  -0.023691  -0.194707   0.177362
     68       0.088638   0.024160   0.028252  -0.007703  -0.089593  -0.092746
     69      -0.120210   0.211887  -0.174063   0.069468  -0.129811  -0.068392
     70       0.062396   0.146193  -0.158221   0.118484  -0.066259   0.296117
     71      -0.057480  -0.436786  -0.045815   0.055585  -0.066268   0.067460
     72       0.000855  -0.073942  -0.045633  -0.027978   0.104502  -0.000971
     73      -0.087847   0.022486  -0.067113  -0.054579  -0.065924  -0.023734
     74       0.141798  -0.006438  -0.023781  -0.024854  -0.050774  -0.043813
     75       0.051669  -0.059191   0.076359  -0.014172   0.041287   0.041116
     76      -0.098297   0.019580  -0.092930  -0.058524  -0.053765  -0.036502
     77       0.126957  -0.008888  -0.069247  -0.045479  -0.048541  -0.113047
     78       0.043049  -0.116123  -0.157729  -0.051090   0.195824   0.038821
     79      -0.096713   0.032387  -0.055274  -0.065331  -0.097932  -0.086946
     80       0.129918   0.004962   0.011244  -0.013205  -0.071707  -0.036525
     81       0.219859  -0.001185  -0.028297   0.253607  -0.013653  -0.128321
     82       0.009844  -0.123183  -0.029207   0.235332  -0.075857  -0.090060
     83      -0.080651  -0.018714  -0.040073   0.168157  -0.069100   0.019362
     84       0.138340   0.007570  -0.031303  -0.253472  -0.136618  -0.016995
     85      -0.034265  -0.095773  -0.034432  -0.274235  -0.172031  -0.006578
     86       0.095070   0.100428  -0.056146  -0.184670   0.024516  -0.080122
     87      -0.052844  -0.073879  -0.109977  -0.032356   0.135973  -0.054224
     88      -0.137568  -0.001006  -0.217073  -0.067018   0.031424  -0.051048
     89       0.234828  -0.058465  -0.099143  -0.035915   0.048436   0.096487
     90      -0.091074  -0.042118  -0.035221  -0.019313   0.067797  -0.112323
     91      -0.133456  -0.019499  -0.273985  -0.065741   0.089550  -0.011261
     92       0.248521  -0.064748  -0.109338  -0.041492   0.055636   0.105985
     93      -0.004915  -0.092624  -0.122665  -0.037978   0.160551   0.007303
     94      -0.183765  -0.000836  -0.280424  -0.078512   0.054108  -0.120675
     95       0.272790  -0.077692  -0.127705  -0.044519   0.079224   0.142733
     96      -0.099095  -0.087072  -0.217592  -0.042575   0.202513  -0.096374
     97      -0.129950   0.000521  -0.201411  -0.065117   0.022791  -0.042340
     98       0.246585  -0.068287  -0.112539  -0.028649   0.077458   0.143242
                 12         13         14         15         16         17    
      0       0.004588   0.012581   0.004957  -0.020360   0.044723  -0.006051
      1      -0.007871   0.006536   0.015673   0.015454   0.005823  -0.000300
      2      -0.024647  -0.002303   0.018137  -0.006668  -0.075031   0.003185
      3       0.028277  -0.000050   0.015489   0.126952   0.029465  -0.056894
      4       0.035198  -0.015987   0.015038  -0.007707   0.133595   0.010356
      5      -0.001065  -0.013686   0.022890   0.056037  -0.040515  -0.019310
      6       0.026482   0.003234   0.012516   0.165859  -0.032350  -0.059343
      7       0.046226  -0.016007   0.005223  -0.031017   0.140633   0.021872
      8       0.016498  -0.015504   0.011274   0.012376   0.014068  -0.004636
      9       0.016542   0.013809   0.006032   0.176973  -0.025613  -0.074955
     10       0.029760  -0.000836   0.002855   0.041494   0.109072  -0.014669
     11       0.017292  -0.017954  -0.000027  -0.088800   0.082420   0.033490
     12      -0.008226   0.028088  -0.003832   0.036570  -0.015300  -0.026927
     13      -0.014969   0.022580   0.004128   0.061994  -0.023154  -0.023668
     14      -0.006832  -0.005391  -0.004382  -0.163802   0.057023   0.060535
     15      -0.018613   0.031335  -0.006647  -0.078306  -0.004997   0.015348
     16      -0.038024   0.030762   0.008062   0.019912  -0.091196  -0.005420
     17      -0.031949   0.004006   0.002972  -0.146222  -0.042789   0.058417
     18       0.039967  -0.007816   0.023366   0.152171   0.051219  -0.067379
     19       0.052819  -0.025336   0.020005  -0.014886   0.193293   0.009538
     20      -0.001341  -0.017209   0.033346   0.129294  -0.082858  -0.043244
     21       0.024487   0.017296   0.006695   0.267266  -0.044134  -0.112760
     22       0.043147  -0.004236  -0.001343   0.052362   0.145638  -0.017754
     23       0.031188  -0.024892  -0.006414  -0.133256   0.145576   0.053494
     24      -0.041490   0.045353  -0.016181  -0.200880  -0.023715   0.060114
     25      -0.075199   0.053181   0.006436  -0.000158  -0.200426   0.000514
     26      -0.053045   0.016888  -0.002074  -0.210457  -0.081382   0.081346
     27      -0.002746  -0.001112  -0.004837  -0.042226  -0.076525  -0.039378
     28       0.051893   0.026358  -0.001038  -0.006982   0.080267   0.015490
     29      -0.018240   0.083652  -0.015217  -0.022053  -0.095826  -0.067933
     30       0.272552  -0.046017  -0.001825   0.040368   0.071216   0.013610
     31      -0.240980   0.048168  -0.018683  -0.035340  -0.142047  -0.090861
     32       0.108442   0.007200  -0.015346  -0.015679  -0.013498  -0.033166
     33      -0.095003  -0.017964  -0.008658   0.039298   0.025079   0.085335
     34       0.086572   0.043396   0.013093   0.060751  -0.074857   0.202877
     35      -0.117413   0.076266  -0.016734   0.110419   0.013243   0.084179
     36      -0.107412   0.129219   0.037281   0.108635   0.097493   0.120086
     37       0.087486   0.019034   0.006189   0.052481  -0.091554   0.205459
     38      -0.142923   0.255175   0.059603   0.287750  -0.056929   0.429468
     39      -0.151051  -0.099118  -0.030153   0.103932   0.097275   0.158452
     40       0.061880   0.261083   0.097780   0.232983  -0.127945   0.513311
     41      -0.088616   0.040953  -0.033680   0.034652   0.001840  -0.034904
     42       0.078728   0.016164  -0.001769  -0.150365  -0.188970  -0.175791
     43       0.037060  -0.022042   0.007463   0.027267   0.212478   0.061515
     44      -0.044052   0.084995  -0.017233   0.010054  -0.074942  -0.028346
     45       0.293563  -0.025912   0.000205  -0.001652   0.108578   0.050373
     46      -0.217305   0.038767  -0.010641  -0.040955   0.013313   0.027313
     47       0.088034  -0.010070  -0.010858   0.002107   0.074099   0.032293
     48       0.010250   0.097467  -0.003308  -0.178448  -0.004610  -0.110192
     49       0.027558  -0.007373  -0.037067  -0.025447  -0.198994  -0.175572
     50       0.015756  -0.057649  -0.002214   0.201713  -0.189555  -0.068832
     51       0.007656   0.046882   0.007158   0.011140  -0.018288  -0.041545
     52       0.040024   0.010213  -0.009414  -0.029679   0.045733  -0.012648
     53       0.006852   0.018332   0.004120  -0.032477   0.001474  -0.030013
     54       0.019054   0.080250   0.011624  -0.001688   0.045934  -0.021254
     55       0.047021   0.029690  -0.008157   0.011436   0.057103  -0.009012
     56       0.016055   0.051083   0.015114  -0.178793   0.144860   0.020180
     57      -0.002475   0.131224   0.001256  -0.231377   0.071635  -0.079877
     58       0.012530   0.012246  -0.034662  -0.052328  -0.158935  -0.158215
     59       0.022004  -0.047021   0.008285   0.157595  -0.079334  -0.009836
     60      -0.114053  -0.115604  -0.041721  -0.028611  -0.035216   0.055994
     61       0.082327  -0.201701  -0.069966  -0.069441  -0.114221   0.042818
     62      -0.112506  -0.108566  -0.077433   0.072268   0.147855  -0.075349
     63      -0.145204  -0.224572  -0.047336  -0.094498  -0.027466  -0.064534
     64       0.089562  -0.192532  -0.083612  -0.059323  -0.113667   0.060351
     65      -0.087087  -0.350783  -0.341719  -0.000804   0.136054  -0.168647
     66      -0.133812  -0.081324  -0.134281   0.014638  -0.061872   0.131182
     67       0.096215  -0.459825  -0.295247  -0.157797  -0.102869  -0.095752
     68      -0.108670  -0.035767   0.027496   0.084531   0.150907  -0.056720
     69       0.268037  -0.038993  -0.001172   0.026870   0.083548   0.028933
     70      -0.214131   0.029544  -0.012034  -0.021483  -0.011310   0.015258
     71       0.082336  -0.019219  -0.012219   0.021641   0.050635   0.018226
     72      -0.051601  -0.086499   0.064130  -0.078302  -0.092564   0.096347
     73      -0.007373  -0.077885   0.160667  -0.036795  -0.035462  -0.036847
     74      -0.050294  -0.041818   0.092613   0.029757   0.106918  -0.073780
     75      -0.016827  -0.216294   0.164866  -0.143601  -0.170794   0.118834
     76      -0.018807  -0.053393   0.164523  -0.025562  -0.017484  -0.045594
     77      -0.116121  -0.044176   0.430782   0.007712   0.141665  -0.139414
     78       0.029743   0.023110   0.115499  -0.110861  -0.162182   0.123745
     79      -0.080730  -0.136120   0.484376  -0.063136   0.000040  -0.098305
     80      -0.053475  -0.059900  -0.032462   0.049481   0.118203  -0.062447
     81       0.001427   0.010180   0.004751  -0.099510   0.079389   0.023376
     82      -0.019066   0.009923   0.020423   0.015942  -0.018865  -0.003126
     83      -0.038678   0.004145   0.025066   0.048090  -0.134722  -0.020939
     84      -0.020236   0.038578  -0.009725   0.021215  -0.029224  -0.025097
     85      -0.032908   0.035268   0.001271   0.084389  -0.075827  -0.034052
     86      -0.006997  -0.000720  -0.013806  -0.237293   0.107867   0.081995
     87      -0.123837  -0.016968  -0.038046  -0.008931   0.011295   0.086772
     88      -0.024352   0.108148  -0.077563   0.056779   0.056267  -0.031059
     89       0.169954   0.080895  -0.026325  -0.046166  -0.106343   0.018105
     90      -0.229207  -0.112146  -0.018615   0.028291   0.107123   0.070746
     91       0.040086   0.215318  -0.311305   0.090646   0.025418   0.038925
     92       0.189723   0.082172   0.045464  -0.072463  -0.133803   0.000433
     93      -0.024204   0.004486   0.002144  -0.068459  -0.103858   0.103269
     94      -0.116396   0.150484  -0.027067   0.103465   0.177106  -0.094441
     95       0.250088   0.113290   0.027741  -0.096115  -0.195413   0.019509
     96      -0.171354   0.107978  -0.172930   0.067619   0.114510   0.076271
     97      -0.013765   0.092110  -0.067581   0.046115   0.038097  -0.025491
     98       0.237091   0.140733  -0.237905  -0.026707  -0.157421   0.095491
                 18         19         20         21         22         23    
      0       0.042296  -0.082144  -0.005139  -0.012262  -0.135871   0.024047
      1       0.033740  -0.010951   0.002360   0.012316  -0.135225   0.012508
      2      -0.004887   0.164721   0.015261   0.031946  -0.098488   0.025089
      3       0.094482   0.017700   0.002668  -0.055947   0.124895   0.047057
      4       0.150453  -0.048650  -0.000564  -0.029772   0.132085  -0.036520
      5       0.056581   0.171025   0.015711  -0.008288   0.098076   0.019869
      6      -0.023585   0.070330   0.004530   0.030881   0.001641  -0.024212
      7       0.051861  -0.106735  -0.007863   0.026456   0.002884  -0.085878
      8       0.002577   0.001526   0.000177   0.001160  -0.001192  -0.012306
      9       0.075537   0.116356   0.010123   0.008215  -0.133947   0.044348
     10       0.140935  -0.078311  -0.003592  -0.013606  -0.138675  -0.005965
     11       0.100336   0.077410   0.008051   0.026114  -0.098390  -0.003065
     12       0.023428   0.022777   0.002872  -0.036062   0.131218   0.024658
     13       0.025649  -0.017598   0.001247  -0.052713   0.130628   0.037819
     14       0.049143   0.060418   0.006906   0.002635   0.101651  -0.012317
     15      -0.093373  -0.135714  -0.011255   0.000591   0.000691  -0.031806
     16      -0.123395  -0.051881  -0.003002   0.009883   0.000771  -0.014782
     17      -0.079596   0.109173   0.009700   0.063270   0.007491  -0.050594
     18       0.156636   0.044779   0.005510  -0.097216   0.271729   0.074636
     19       0.227214  -0.093719  -0.003551  -0.086250   0.277076  -0.011788
     20       0.079951   0.297637   0.026477  -0.018142   0.211452   0.048620
     21       0.108634   0.145263   0.012635  -0.003955  -0.283157   0.113891
     22       0.200215  -0.059617  -0.001607  -0.002785  -0.289656   0.020124
     23       0.161032   0.078649   0.008681   0.047380  -0.207021  -0.014396
     24      -0.220030  -0.226954  -0.019779   0.026971  -0.000135  -0.072192
     25      -0.288521  -0.060524  -0.005158   0.036789   0.002210  -0.031842
     26      -0.185451   0.061137   0.004864   0.082553   0.007448  -0.074183
     27       0.038187  -0.077594  -0.007837   0.081878   0.011438  -0.177929
     28      -0.210364   0.045753   0.001607  -0.001501   0.004110   0.154506
     29       0.085490  -0.165835  -0.010685  -0.130540  -0.018240   0.072196
     30      -0.069372   0.037796   0.001575   0.026541  -0.002773   0.011646
     31       0.039960  -0.035045  -0.005643   0.009051   0.004897  -0.101879
     32       0.010757  -0.012643  -0.002356  -0.069295   0.009082  -0.020930
     33      -0.017859   0.018445   0.001933   0.200613   0.030077  -0.046271
     34      -0.008068   0.080899   0.014225  -0.061984  -0.011425  -0.132515
     35       0.080058  -0.056763   0.001250   0.027625   0.003774   0.127839
     36      -0.098289   0.053470  -0.002259   0.252967   0.038394  -0.018516
     37       0.013689   0.076000   0.015326  -0.068359  -0.012732  -0.144108
     38       0.210662   0.058768   0.013885   0.084773   0.005712  -0.090633
     39      -0.019321   0.111717   0.012514   0.311049   0.044902  -0.114768
     40       0.088084   0.173587   0.022357  -0.002605  -0.007813  -0.282755
     41       0.051856  -0.117545  -0.004997  -0.032268  -0.003002   0.193139
     42       0.083939  -0.178793  -0.019408  -0.049946  -0.007128  -0.365677
     43      -0.393311   0.166816   0.008174   0.121033   0.021879   0.299774
     44       0.093321  -0.147207  -0.007662  -0.102545  -0.014297   0.116237
     45      -0.018735   0.000641   0.001574  -0.075958   0.007873   0.054479
     46       0.033964   0.000523   0.000180   0.004283   0.009613   0.052709
     47      -0.015092   0.026066   0.001237  -0.009511   0.007351   0.063185
     48       0.020981   0.088765   0.002469   0.005887   0.012686  -0.083166
     49       0.013031   0.187204   0.009349   0.021116   0.008093  -0.058365
     50      -0.102541  -0.165280  -0.015614  -0.001058  -0.004558  -0.123355
     51      -0.066282  -0.029175  -0.004550   0.034668   0.005033  -0.079170
     52      -0.116497   0.000533  -0.002044   0.013348   0.003306   0.083049
     53      -0.068580  -0.119959  -0.011235  -0.035199  -0.004508   0.029476
     54      -0.163893  -0.024665  -0.004030  -0.002020   0.005205   0.068554
     55      -0.207451   0.023588  -0.000144  -0.016493   0.003277   0.214733
     56      -0.061474  -0.174692  -0.015660  -0.037041  -0.004249   0.025965
     57       0.004132   0.045015   0.000151  -0.012789  -0.003564  -0.007142
     58       0.005117   0.161447   0.007990   0.011527  -0.001920  -0.017189
     59      -0.127079  -0.206286  -0.017754  -0.007295   0.005987  -0.059078
     60       0.036537  -0.046856   0.002613   0.127097   0.020342   0.113352
     61       0.047361  -0.007326   0.014614  -0.067507  -0.010267  -0.029433
     62      -0.039515   0.027697   0.007302   0.047750   0.007134  -0.050977
     63       0.055879  -0.117197  -0.006538   0.190196   0.032057   0.262526
     64       0.041934   0.005161   0.019919  -0.079995  -0.012562  -0.058991
     65      -0.031676  -0.010011   0.065165   0.012776   0.001662  -0.057285
     66       0.087178  -0.089785   0.024466   0.217796   0.034385   0.215426
     67       0.043815  -0.047549   0.060439  -0.087208  -0.011951  -0.027196
     68      -0.054833   0.054228  -0.014762   0.019947   0.002399  -0.087516
     69      -0.045590   0.019360   0.001218  -0.005723  -0.000633   0.019634
     70       0.022076  -0.027512  -0.002632   0.000952  -0.000600  -0.010973
     71      -0.028889   0.012868  -0.000681   0.006851  -0.001252   0.011969
     72       0.007699  -0.001958  -0.009168  -0.102217  -0.014969   0.081458
     73       0.036467  -0.032223  -0.036331   0.099345   0.015287   0.056245
     74      -0.066470   0.063771  -0.019411  -0.092607  -0.015005  -0.130520
     75       0.037084  -0.014390  -0.024883  -0.134394  -0.019986   0.110505
     76       0.027984  -0.028732  -0.034868   0.103352   0.015842   0.048739
     77      -0.093764   0.064416  -0.054226  -0.077124  -0.013370  -0.112142
     78       0.020793  -0.019596  -0.005430  -0.143947  -0.021357   0.115174
     79       0.006833  -0.020682  -0.071972   0.088962   0.012883   0.054774
     80      -0.060133   0.064349  -0.008132  -0.071391  -0.011467  -0.138177
     81       0.069258  -0.093232  -0.005008   0.009623  -0.277542   0.025138
     82       0.033915   0.001245   0.004101   0.018034  -0.282922   0.053502
     83      -0.023388   0.191959   0.017836   0.026088  -0.213002   0.082851
     84       0.032356   0.041232   0.004935  -0.073614   0.272228   0.058382
     85       0.018422   0.063082   0.008274  -0.079639   0.274943   0.080215
     86       0.081815  -0.022160   0.000788  -0.042033   0.206595  -0.001930
     87      -0.056318   0.056665   0.010252  -0.236072  -0.035482   0.005031
     88      -0.013404   0.006001   0.004977   0.047951   0.007558  -0.023587
     89       0.051152  -0.047252   0.000289   0.067519   0.010374   0.030364
     90      -0.102094   0.231717  -0.311082  -0.383285  -0.058247  -0.091909
     91       0.026210   0.130474  -0.372152   0.056022   0.009443  -0.005637
     92       0.055924  -0.159374   0.256587   0.124048   0.018911   0.062727
     93       0.009813  -0.083222   0.188028  -0.068490  -0.009552   0.122230
     94      -0.117721  -0.082824   0.476160  -0.087733  -0.013843  -0.139526
     95       0.093774  -0.213692   0.299675   0.207537   0.031953   0.123617
     96      -0.132290   0.072365   0.173745  -0.369606  -0.055999  -0.100697
     97       0.001076   0.011864  -0.046234   0.069236   0.010844  -0.005483
     98       0.114072   0.116619  -0.535874   0.104337   0.016640   0.072100
                 24         25         26         27         28         29    
      0       0.005206   0.063006   0.096720   0.042062  -0.018592  -0.079493
      1       0.003045  -0.032019   0.116866  -0.204257  -0.019246   0.109026
      2      -0.000463   0.001807   0.075849   0.230078   0.010285  -0.063780
      3      -0.001233   0.002126  -0.053849  -0.229983  -0.020372  -0.071602
      4       0.002533  -0.012217  -0.017122   0.099645   0.027327   0.133021
      5      -0.002727   0.000607  -0.034861   0.163997   0.016993  -0.061755
      6      -0.015386  -0.077276  -0.182874  -0.069189   0.008754   0.057196
      7      -0.010935  -0.017142  -0.174888   0.089648   0.020589   0.052173
      8      -0.010261   0.054175  -0.158681  -0.032267  -0.014049  -0.152791
      9      -0.005424  -0.059733  -0.039540  -0.026318   0.005907   0.061870
     10       0.001140   0.068524  -0.034105   0.187111   0.008197  -0.049737
     11      -0.001467  -0.028289  -0.021276  -0.212818  -0.017216   0.007006
     12       0.004949   0.001771   0.103231   0.252084   0.017053   0.055173
     13       0.004862   0.041378   0.094488  -0.117059  -0.028986  -0.089179
     14       0.004717  -0.017011   0.086181  -0.172829  -0.019239   0.020731
     15      -0.006457   0.039455  -0.138441   0.075251   0.008794  -0.057561
     16      -0.010041  -0.007332  -0.141693  -0.104070  -0.000391  -0.034069
     17      -0.008137  -0.092503  -0.080065   0.032557   0.030752   0.152176
     18       0.008457   0.015806   0.074584  -0.214681  -0.019419  -0.070733
     19       0.014150   0.052590   0.105959   0.164310   0.023777   0.074616
     20       0.001808  -0.066027   0.067875   0.062411   0.020638   0.028279
     21       0.003081  -0.020770   0.074120  -0.140571   0.012697  -0.057792
     22       0.017887   0.068991   0.107789   0.199888   0.030537  -0.014222
     23       0.015679  -0.050130   0.097295  -0.095212   0.008935   0.133910
     24      -0.009128   0.020922  -0.188453  -0.152958   0.001072  -0.021097
     25      -0.015191  -0.008629  -0.201099   0.150288   0.031922  -0.055401
     26      -0.010854  -0.098836  -0.121103  -0.010366   0.034914   0.155437
     27      -0.014260  -0.129563   0.088225  -0.004595   0.013655  -0.082116
     28      -0.000049  -0.101148   0.068843   0.034833   0.001380  -0.039768
     29      -0.010414  -0.152259   0.000059   0.014071   0.030634  -0.015691
     30       0.028140   0.129459   0.047506  -0.140310   0.301076  -0.135606
     31       0.070510   0.058474   0.004023  -0.042092   0.097573  -0.253703
     32       0.015615  -0.200850  -0.112143   0.275697  -0.573707   0.073749
     33      -0.001588  -0.015948   0.066805   0.001472  -0.016567  -0.073016
     34      -0.000241  -0.001227   0.039066  -0.003096  -0.003859  -0.041761
     35       0.005395   0.021803  -0.069363   0.003333   0.012411   0.065062
     36      -0.003775  -0.057227   0.098589   0.013532  -0.014419  -0.093596
     37       0.000375   0.013288   0.030484  -0.007195  -0.004451  -0.039092
     38       0.012765   0.218444  -0.101601  -0.036565  -0.027783   0.026651
     39       0.007732   0.112825   0.052762  -0.013098  -0.047272  -0.089485
     40       0.003438   0.141700   0.015961  -0.031801  -0.031665  -0.069577
     41       0.000485  -0.068481  -0.055773   0.017135   0.030525   0.075870
     42      -0.043084  -0.413617   0.192981   0.030643  -0.003585  -0.275074
     43       0.040507   0.381472  -0.000022  -0.023959  -0.017548   0.159349
     44      -0.006717  -0.124028  -0.025522   0.012377   0.036290   0.021877
     45      -0.133818  -0.236248  -0.089434   0.306017  -0.649942   0.295613
     46      -0.798528   0.182951   0.165046  -0.095816   0.183269   0.060311
     47      -0.543780   0.075825   0.082947   0.006811  -0.024032   0.101793
     48      -0.094881   0.311742  -0.104222   0.058143  -0.211873  -0.245205
     49      -0.061594   0.238526  -0.093525   0.051397  -0.139226  -0.138442
     50       0.130591   0.153842   0.182180  -0.089190   0.147906   0.489601
     51       0.004450   0.011541   0.048316   0.004987   0.001573   0.146518
     52      -0.010371  -0.130768   0.018354   0.014846   0.011498  -0.072699
     53       0.002389   0.101690   0.007763  -0.013718  -0.019040  -0.081165
     54       0.009183  -0.026315   0.099915   0.012853   0.002600   0.159355
     55      -0.004051  -0.176291   0.065253   0.020551   0.017946  -0.030505
     56       0.001948   0.150863   0.004929  -0.000786  -0.034144  -0.139119
     57       0.018359   0.101236  -0.000863  -0.033447   0.000278   0.042430
     58       0.009628   0.117847  -0.027878  -0.006201  -0.005919   0.051713
     59      -0.000056   0.106706   0.090657  -0.008525  -0.025661   0.094823
     60       0.002488   0.009719  -0.007427   0.005120  -0.007749  -0.002735
     61      -0.000442   0.010222  -0.006599  -0.005377   0.003438  -0.003105
     62      -0.001166  -0.002715   0.013375   0.000349  -0.004437  -0.009035
     63       0.004779   0.012604  -0.044893   0.012277  -0.006736   0.052058
     64      -0.001198   0.008724   0.001331  -0.006745   0.003329  -0.013647
     65      -0.005576  -0.020841   0.010069   0.000848  -0.000753  -0.008650
     66       0.005672   0.022302  -0.035358   0.012255  -0.009333   0.020000
     67      -0.005134  -0.011440  -0.007151  -0.005289   0.005347  -0.003788
     68      -0.000930  -0.001420   0.023090  -0.002100  -0.004164  -0.016350
     69       0.011874   0.014527   0.001515  -0.016048   0.036429  -0.009523
     70       0.050227  -0.025266  -0.007196   0.006300  -0.013089   0.002312
     71       0.042960   0.005808  -0.005722  -0.009983   0.024473  -0.015713
     72       0.002880   0.013485  -0.025781   0.001895   0.002097   0.016646
     73       0.001680   0.003954  -0.007570   0.002784  -0.002588   0.005039
     74      -0.003041  -0.018013   0.027088  -0.005441   0.003042  -0.020569
     75       0.004012   0.020891  -0.039568   0.001449   0.005130   0.026861
     76       0.001424   0.000817  -0.004024   0.003028  -0.002888   0.002500
     77      -0.002169  -0.037044   0.030830  -0.000832   0.004931  -0.018532
     78       0.004259   0.013494  -0.039557   0.002842   0.006834   0.031288
     79       0.001969  -0.013519  -0.002141   0.005611  -0.000199   0.004940
[...]
     19       0.005007  -0.000077   0.000411
     20       0.002708   0.000003   0.000014
     21      -0.005006   0.000810  -0.002112
     22       0.010611  -0.001203   0.002542
     23      -0.007654   0.000926  -0.001474
     24       0.000700  -0.000410   0.000094
     25       0.000657  -0.000298   0.000256
     26      -0.001920   0.000816  -0.000478
     27      -0.000273   0.020865  -0.000005
     28      -0.000380   0.011645  -0.000172
     29      -0.000766   0.065243  -0.000251
     30      -0.040319   0.014869  -0.010859
     31       0.007569  -0.005824   0.023136
     32      -0.021514   0.008903  -0.031704
     33       0.000067   0.000975  -0.000009
     34       0.000073  -0.000343   0.000087
     35      -0.000198   0.002773  -0.000121
     36      -0.001047   0.000562  -0.000690
     37      -0.002009   0.002821  -0.001216
     38      -0.000085   0.001114   0.000206
     39       0.001530  -0.006538   0.000024
     40       0.000777  -0.006552   0.000460
     41       0.000304  -0.014105   0.001391
     42       0.002359  -0.307694   0.001659
     43       0.002679  -0.145135   0.000781
     44       0.011488  -0.937258   0.004494
     45       0.007480  -0.001596  -0.185279
     46       0.012460  -0.002018  -0.534951
     47      -0.016331   0.004109   0.820791
     48      -0.502733  -0.006846  -0.008512
     49       0.859035   0.011519   0.019022
     50       0.041550   0.000878  -0.001346
     51       0.003577   0.000847   0.000064
     52      -0.002054  -0.000375  -0.000015
     53       0.001522   0.001544  -0.000059
     54      -0.015165   0.003514  -0.000073
     55       0.017495  -0.010036   0.000332
     56       0.005488  -0.001461   0.000170
     57       0.030399   0.000360   0.000535
     58      -0.054455  -0.000441  -0.001090
     59      -0.003884  -0.000155   0.000015
     60      -0.000071   0.000112  -0.000024
     61      -0.000251   0.000082   0.000003
     62       0.000197  -0.000266   0.000008
     63       0.000586  -0.000024   0.000042
     64       0.002953  -0.000285  -0.000370
     65      -0.000255   0.000484   0.000035
     66      -0.000607  -0.002675   0.000222
     67      -0.000378   0.000130   0.000036
     68      -0.001815  -0.001487   0.000311
     69       0.001748  -0.000849   0.012289
     70      -0.000259   0.000541   0.032234
     71       0.002466  -0.000722  -0.049717
     72      -0.000049   0.000061  -0.000005
     73      -0.000027  -0.000033   0.000020
     74      -0.000057   0.000069  -0.000025
     75       0.000096   0.000192  -0.000074
     76       0.000178   0.000476  -0.000187
     77      -0.000147  -0.000016   0.000053
     78       0.000309   0.000162   0.000013
     79       0.000270  -0.000424   0.000046
     80       0.000705  -0.001059   0.000209
     81      -0.001355   0.000288  -0.000135
     82       0.002806  -0.000783   0.000305
     83      -0.001989   0.000670  -0.000212
     84       0.000888  -0.000724  -0.000302
     85      -0.000403   0.000381   0.000248
     86      -0.000711   0.000470   0.000091
     87      -0.000000  -0.000018   0.000001
     88      -0.000080   0.000021   0.000003
     89       0.000023   0.000000  -0.000007
     90      -0.000084  -0.000061   0.000021
     91      -0.000097  -0.000013  -0.000002
     92      -0.000359  -0.000045   0.000020
     93      -0.000241   0.000590  -0.000062
     94      -0.000023   0.000035  -0.000004
     95       0.000243  -0.000390   0.000046
     96       0.000127  -0.000028   0.000012
     97       0.000937  -0.000291  -0.000019
     98      -0.000069   0.000063   0.000003


-----------
IR SPECTRUM  
-----------

 Mode    freq (cm**-1)   T**2         TX         TY         TZ
-------------------------------------------------------------------
   6:        70.89    0.000000  (  0.000000   0.000000   0.000000)
   7:        82.25    0.000000  (  0.000000   0.000000   0.000000)
   8:        96.77    0.000000  (  0.000000   0.000000   0.000000)
   9:       124.10    0.000000  (  0.000000   0.000000   0.000000)
  10:       138.97    0.000000  (  0.000000   0.000000   0.000000)
  11:       148.74    0.000000  (  0.000000   0.000000   0.000000)
  12:       170.48    0.000000  (  0.000000   0.000000   0.000000)
  13:       172.76    0.000000  (  0.000000   0.000000   0.000000)
  14:       183.34    0.000000  (  0.000000   0.000000   0.000000)
  15:       224.07    0.000000  (  0.000000   0.000000   0.000000)
  16:       240.25    0.000000  (  0.000000   0.000000   0.000000)
  17:       266.15    0.000000  (  0.000000   0.000000   0.000000)
  18:       313.33    0.000000  (  0.000000   0.000000   0.000000)
  19:       350.27    0.000000  (  0.000000   0.000000   0.000000)
  20:       353.00    0.000000  (  0.000000   0.000000   0.000000)
  21:       405.59    0.000000  (  0.000000   0.000000   0.000000)
  22:       407.77    0.000000  (  0.000000   0.000000   0.000000)
  23:       458.43    0.000000  (  0.000000   0.000000   0.000000)
  24:       498.77    0.000000  (  0.000000   0.000000   0.000000)
  25:       539.09    0.000000  (  0.000000   0.000000   0.000000)
  26:       546.64    0.000000  (  0.000000   0.000000   0.000000)
  27:       589.94    0.000000  (  0.000000   0.000000   0.000000)
  28:       591.39    0.000000  (  0.000000   0.000000   0.000000)
  29:       627.73    0.000000  (  0.000000   0.000000   0.000000)
  30:       630.55    0.000000  (  0.000000   0.000000   0.000000)
  31:       691.04    0.000000  (  0.000000   0.000000   0.000000)
  32:       774.68    0.000000  (  0.000000   0.000000   0.000000)
  33:       791.83    0.000000  (  0.000000   0.000000   0.000000)
  34:       801.46    0.000000  (  0.000000   0.000000   0.000000)
  35:       817.68    0.000000  (  0.000000   0.000000   0.000000)
  36:       839.08    0.000000  (  0.000000   0.000000   0.000000)
  37:       854.11    0.000000  (  0.000000   0.000000   0.000000)
  38:       915.51    0.000000  (  0.000000   0.000000   0.000000)
  39:       931.41    0.000000  (  0.000000   0.000000   0.000000)
  40:       938.10    0.000000  (  0.000000   0.000000   0.000000)
  41:       944.38    0.000000  (  0.000000   0.000000   0.000000)
  42:       957.70    0.000000  (  0.000000   0.000000   0.000000)
  43:       962.64    0.000000  (  0.000000   0.000000   0.000000)
  44:       965.19    0.000000  (  0.000000   0.000000   0.000000)
  45:       972.93    0.000000  (  0.000000   0.000000   0.000000)
  46:      1001.72    0.000000  (  0.000000   0.000000   0.000000)
  47:      1024.57    0.000000  (  0.000000   0.000000   0.000000)
  48:      1051.11    0.000000  (  0.000000   0.000000   0.000000)
  49:      1057.65    0.000000  (  0.000000   0.000000   0.000000)
  50:      1074.69    0.000000  (  0.000000   0.000000   0.000000)
  51:      1111.49    0.000000  (  0.000000   0.000000   0.000000)
  52:      1120.26    0.000000  (  0.000000   0.000000   0.000000)
  53:      1143.81    0.000000  (  0.000000   0.000000   0.000000)
  54:      1183.57    0.000000  (  0.000000   0.000000   0.000000)
  55:      1186.38    0.000000  (  0.000000   0.000000   0.000000)
  56:      1202.57    0.000000  (  0.000000   0.000000   0.000000)
  57:      1209.93    0.000000  (  0.000000   0.000000   0.000000)
  58:      1221.97    0.000000  (  0.000000   0.000000   0.000000)
  59:      1227.68    0.000000  (  0.000000   0.000000   0.000000)
  60:      1261.17    0.000000  (  0.000000   0.000000   0.000000)
  61:      1271.41    0.000000  (  0.000000   0.000000   0.000000)
  62:      1283.68    0.000000  (  0.000000   0.000000   0.000000)
  63:      1288.59    0.000000  (  0.000000   0.000000   0.000000)
  64:      1306.42    0.000000  (  0.000000   0.000000   0.000000)
  65:      1334.84    0.000000  (  0.000000   0.000000   0.000000)
  66:      1347.37    0.000000  (  0.000000   0.000000   0.000000)
  67:      1372.27    0.000000  (  0.000000   0.000000   0.000000)
  68:      1374.44    0.000000  (  0.000000   0.000000   0.000000)
  69:      1409.93    0.000000  (  0.000000   0.000000   0.000000)
  70:      1434.57    0.000000  (  0.000000   0.000000   0.000000)
  71:      1442.72    0.000000  (  0.000000   0.000000   0.000000)
  72:      1485.62    0.000000  (  0.000000   0.000000   0.000000)
  73:      1502.61    0.000000  (  0.000000   0.000000   0.000000)
  74:      1508.37    0.000000  (  0.000000   0.000000   0.000000)
  75:      1511.86    0.000000  (  0.000000   0.000000   0.000000)
  76:      1515.48    0.000000  (  0.000000   0.000000   0.000000)
  77:      1518.83    0.000000  (  0.000000   0.000000   0.000000)
  78:      1537.61    0.000000  (  0.000000   0.000000   0.000000)
  79:      1561.18    0.000000  (  0.000000   0.000000   0.000000)
  80:      2817.60    0.000000  (  0.000000   0.000000   0.000000)
  81:      2862.59    0.000000  (  0.000000   0.000000   0.000000)
  82:      2866.64    0.000000  (  0.000000   0.000000   0.000000)
  83:      2872.40    0.000000  (  0.000000   0.000000   0.000000)
  84:      2888.86    0.000000  (  0.000000   0.000000   0.000000)
  85:      2890.34    0.000000  (  0.000000   0.000000   0.000000)
  86:      2897.28    0.000000  (  0.000000   0.000000   0.000000)
  87:      2905.83    0.000000  (  0.000000   0.000000   0.000000)
  88:      2912.45    0.000000  (  0.000000   0.000000   0.000000)
  89:      2924.08    0.000000  (  0.000000   0.000000   0.000000)
  90:      2926.99    0.000000  (  0.000000   0.000000   0.000000)
  91:      2941.52    0.000000  (  0.000000   0.000000   0.000000)
  92:      2953.99    0.000000  (  0.000000   0.000000   0.000000)
  93:      2956.54    0.000000  (  0.000000   0.000000   0.000000)
  94:      2973.59    0.000000  (  0.000000   0.000000   0.000000)
  95:      2993.65    0.000000  (  0.000000   0.000000   0.000000)
  96:      3154.25    0.000000  (  0.000000   0.000000   0.000000)
  97:      3284.13    0.000000  (  0.000000   0.000000   0.000000)
  98:      3405.88    0.000000  (  0.000000   0.000000   0.000000)

The first frequency considered to be a vibration is 6
The total number of vibrations considered is 93


--------------------------
THERMOCHEMISTRY AT 298.15K
--------------------------

Temperature         ... 298.15 K
Pressure            ... 1.00 atm
Total Mass          ... 197.28 AMU

Throughout the following assumptions are being made:
  (1) The electronic state is orbitally nondegenerate
  (2) There are no thermally accessible electronically excited states
  (3) Hindered rotations indicated by low frequency modes are not
      treated as such but are treated as vibrations and this may
      cause some error
  (4) All equations used are the standard statistical mechanics
      equations for an ideal gas
  (5) All vibrations are strictly harmonic

freq.      70.89  E(vib)   ...       0.50 
freq.      82.25  E(vib)   ...       0.48 
freq.      96.77  E(vib)   ...       0.46 
freq.     124.10  E(vib)   ...       0.43 
freq.     138.97  E(vib)   ...       0.42 
freq.     148.74  E(vib)   ...       0.41 
freq.     170.48  E(vib)   ...       0.38 
freq.     172.76  E(vib)   ...       0.38 
freq.     183.34  E(vib)   ...       0.37 
freq.     224.07  E(vib)   ...       0.33 
freq.     240.25  E(vib)   ...       0.31 
freq.     266.15  E(vib)   ...       0.29 
freq.     313.33  E(vib)   ...       0.25 
freq.     350.27  E(vib)   ...       0.23 
freq.     353.00  E(vib)   ...       0.22 
freq.     405.59  E(vib)   ...       0.19 
freq.     407.77  E(vib)   ...       0.19 
freq.     458.43  E(vib)   ...       0.16 
freq.     498.77  E(vib)   ...       0.14 
freq.     539.09  E(vib)   ...       0.12 
freq.     546.64  E(vib)   ...       0.12 
freq.     589.94  E(vib)   ...       0.10 
freq.     591.39  E(vib)   ...       0.10 
freq.     627.73  E(vib)   ...       0.09 
freq.     630.55  E(vib)   ...       0.09 
freq.     691.04  E(vib)   ...       0.07 
freq.     774.68  E(vib)   ...       0.05 
freq.     791.83  E(vib)   ...       0.05 
freq.     801.46  E(vib)   ...       0.05 
freq.     817.68  E(vib)   ...       0.05 
freq.     839.08  E(vib)   ...       0.04 
freq.     854.11  E(vib)   ...       0.04 
freq.     915.51  E(vib)   ...       0.03 
freq.     931.41  E(vib)   ...       0.03 
freq.     938.10  E(vib)   ...       0.03 
freq.     944.38  E(vib)   ...       0.03 
freq.     957.70  E(vib)   ...       0.03 
freq.     962.64  E(vib)   ...       0.03 
freq.     965.19  E(vib)   ...       0.03 
freq.     972.93  E(vib)   ...       0.03 
freq.    1001.72  E(vib)   ...       0.02 
freq.    1024.57  E(vib)   ...       0.02 
freq.    1051.11  E(vib)   ...       0.02 
freq.    1057.65  E(vib)   ...       0.02 
freq.    1074.69  E(vib)   ...       0.02 
freq.    1111.49  E(vib)   ...       0.01 
freq.    1120.26  E(vib)   ...       0.01 
freq.    1143.81  E(vib)   ...       0.01 
freq.    1183.57  E(vib)   ...       0.01 
freq.    1186.38  E(vib)   ...       0.01 
freq.    1202.57  E(vib)   ...       0.01 
freq.    1209.93  E(vib)   ...       0.01 
freq.    1221.97  E(vib)   ...       0.01 
freq.    1227.68  E(vib)   ...       0.01 
freq.    1261.17  E(vib)   ...       0.01 
freq.    1271.41  E(vib)   ...       0.01 
freq.    1283.68  E(vib)   ...       0.01 
freq.    1288.59  E(vib)   ...       0.01 
freq.    1306.42  E(vib)   ...       0.01 
freq.    1334.84  E(vib)   ...       0.01 
freq.    1347.37  E(vib)   ...       0.01 
freq.    1372.27  E(vib)   ...       0.01 
freq.    1374.44  E(vib)   ...       0.01 
freq.    1409.93  E(vib)   ...       0.00 
freq.    1434.57  E(vib)   ...       0.00 
freq.    1442.72  E(vib)   ...       0.00 
freq.    1485.62  E(vib)   ...       0.00 
freq.    1502.61  E(vib)   ...       0.00 
freq.    1508.37  E(vib)   ...       0.00 
freq.    1511.86  E(vib)   ...       0.00 
freq.    1515.48  E(vib)   ...       0.00 
freq.    1518.83  E(vib)   ...       0.00 
freq.    1537.61  E(vib)   ...       0.00 
freq.    1561.18  E(vib)   ...       0.00 
freq.    2817.60  E(vib)   ...       0.00 
freq.    2862.59  E(vib)   ...       0.00 
freq.    2866.64  E(vib)   ...       0.00 
freq.    2872.40  E(vib)   ...       0.00 
freq.    2888.86  E(vib)   ...       0.00 
freq.    2890.34  E(vib)   ...       0.00 
freq.    2897.28  E(vib)   ...       0.00 
freq.    2905.83  E(vib)   ...       0.00 
freq.    2912.45  E(vib)   ...       0.00 
freq.    2924.08  E(vib)   ...       0.00 
freq.    2926.99  E(vib)   ...       0.00 
freq.    2941.52  E(vib)   ...       0.00 
freq.    2953.99  E(vib)   ...       0.00 
freq.    2956.54  E(vib)   ...       0.00 
freq.    2973.59  E(vib)   ...       0.00 
freq.    2993.65  E(vib)   ...       0.00 
freq.    3154.25  E(vib)   ...       0.00 
freq.    3284.13  E(vib)   ...       0.00 
freq.    3405.88  E(vib)   ...       0.00 

------------
INNER ENERGY
------------

The inner energy is: U= E(el) + E(ZPE) + E(vib) + E(rot) + E(trans)
    E(el)   - is the total energy from the electronic structure calculation
              = E(kin-el) + E(nuc-el) + E(el-el) + E(nuc-nuc)
    E(ZPE)  - the the zero temperature vibrational energy from the frequency calculation
    E(vib)  - the the finite temperature correction to E(ZPE) due to population
              of excited vibrational states
    E(rot)  - is the rotational thermal energy
    E(trans)- is the translational thermal energy

Summary of contributions to the inner energy U:
Electronic energy                ...    -44.29558344 Eh
Zero point energy                ...      0.27771777 Eh     174.27 kcal/mol
Thermal vibrational correction   ...      0.01221044 Eh       7.66 kcal/mol
Thermal rotational correction    ...      0.00141627 Eh       0.89 kcal/mol
Thermal translational correction ...      0.00141627 Eh       0.89 kcal/mol
-----------------------------------------------------------------------
Total thermal energy                    -44.00282269 Eh


Summary of corrections to the electronic energy:
(perhaps to be used in another calculation)
Total thermal correction                  0.01504298 Eh       9.44 kcal/mol
Non-thermal (ZPE) correction              0.27771777 Eh     174.27 kcal/mol
-----------------------------------------------------------------------
Total correction                          0.29276075 Eh     183.71 kcal/mol


--------
ENTHALPY
--------

The enthalpy is H = U + kB*T
                kB is Boltzmann's constant
Total free energy                 ...    -44.00282269 Eh 
Thermal Enthalpy correction       ...      0.00094421 Eh       0.59 kcal/mol
-----------------------------------------------------------------------
Total Enthalpy                    ...    -44.00187848 Eh


Note: Only C1 symmetry has been detected, increase convergence thresholds 
      if your molecule has a higher symmetry. Symmetry factor of 1.0 is   
      used for the rotational entropy correction. 
 

Note: Rotational entropy computed according to Herzberg 
Infrared and Raman Spectra, Chapter V,1, Van Nostrand Reinhold, 1945 
Point Group:  C1, Symmetry Number:   1  
Rotational constants in cm-1:     0.030732     0.010755     0.008681 

Vibrational entropy computed according to the QRRHO of S. Grimme
Chem.Eur.J. 2012 18 9955


-------
ENTROPY
-------

The entropy contributions are T*S = T*(S(el)+S(vib)+S(rot)+S(trans))
     S(el)   - electronic entropy
     S(vib)  - vibrational entropy
     S(rot)  - rotational entropy
     S(trans)- translational entropy
The entropies will be listed as mutliplied by the temperature to get
units of energy

Electronic entropy                ...      0.00000000 Eh      0.00 kcal/mol
Vibrational entropy               ...      0.02095877 Eh     13.15 kcal/mol
Rotational entropy                ...      0.01553540 Eh      9.75 kcal/mol
Translational entropy             ...      0.01983352 Eh     12.45 kcal/mol
-----------------------------------------------------------------------
Final entropy term                ...      0.05632769 Eh     35.35 kcal/mol

In case the symmetry of your molecule has not been determined correctly
or in case you have a reason to use a different symmetry number we print 
out the resulting rotational entropy values for sn=1,12 :
 --------------------------------------------------------
|  sn= 1 | S(rot)=       0.01553540 Eh      9.75 kcal/mol|
|  sn= 2 | S(rot)=       0.01488095 Eh      9.34 kcal/mol|
|  sn= 3 | S(rot)=       0.01449811 Eh      9.10 kcal/mol|
|  sn= 4 | S(rot)=       0.01422649 Eh      8.93 kcal/mol|
|  sn= 5 | S(rot)=       0.01401580 Eh      8.80 kcal/mol|
|  sn= 6 | S(rot)=       0.01384366 Eh      8.69 kcal/mol|
|  sn= 7 | S(rot)=       0.01369811 Eh      8.60 kcal/mol|
|  sn= 8 | S(rot)=       0.01357203 Eh      8.52 kcal/mol|
|  sn= 9 | S(rot)=       0.01346083 Eh      8.45 kcal/mol|
|  sn=10 | S(rot)=       0.01336135 Eh      8.38 kcal/mol|
|  sn=11 | S(rot)=       0.01327136 Eh      8.33 kcal/mol|
|  sn=12 | S(rot)=       0.01318920 Eh      8.28 kcal/mol|
 --------------------------------------------------------


-------------------
GIBBS FREE ENERGY
-------------------

The Gibbs free energy is G = H - T*S

Total enthalpy                    ...    -44.00187848 Eh 
Total entropy correction          ...     -0.05632769 Eh    -35.35 kcal/mol
-----------------------------------------------------------------------
Final Gibbs free energy         ...    -44.05820616 Eh

For completeness - the Gibbs free energy minus the electronic energy
G-E(el)                           ...      0.23737728 Eh    148.96 kcal/mol


Total Time for Numerical Frequencies  :        95.399 sec
Time for Reference State(s)           :         0.187 sec
Time for Displacements                :        86.433 sec

Timings for individual modules:

Sum of individual times         ...        0.387 sec (=   0.006 min)
XTB module                      ...        0.387 sec (=   0.006 min) 100.0 %
                             ****ORCA TERMINATED NORMALLY****
TOTAL RUN TIME: 0 days 0 hours 1 minutes 36 seconds 561 msec
(SLURM) EXECUTION TIME: 96.583416714 seconds.
