
                                 *****************
                                 * O   R   C   A *
                                 *****************

           --- An Ab Initio, DFT and Semiempirical electronic structure package ---

                  #######################################################
                  #                        -***-                        #
                  #  Department of molecular theory and spectroscopy    #
                  #              Directorship: Frank Neese              #
                  # Max Planck Institute for Chemical Energy Conversion #
                  #                  D-45470 Muelheim/Ruhr              #
                  #                       Germany                       #
                  #                                                     #
                  #                  All rights reserved                #
                  #                        -***-                        #
                  #######################################################


                         Program Version 4.0.1.2 - RELEASE -


 With contributions from (in alphabetic order):
   Daniel Aravena         : Magnetic Properties
   Michael Atanasov       : Ab Initio Ligand Field Theory
   Ute Becker             : Parallelization
   Martin Brehm           : Molecular dynamics
   Dmytro Bykov           : SCF Hessian
   Vijay G. Chilkuri      : MRCI spin determinant printing
   Dipayan Datta          : RHF DLPNO-CCSD density
   Achintya Kumar Dutta   : EOM-CC, STEOM-CC
   Dmitry Ganyushin       : Spin-Orbit,Spin-Spin,Magnetic field MRCI
   Yang Guo               : DLPNO-NEVPT2, CIM, IAO-localization
   Andreas Hansen         : Spin unrestricted coupled pair/coupled cluster methods
   Lee Huntington         : MR-EOM, pCC
   Robert Izsak           : Overlap fitted RIJCOSX, COSX-SCS-MP3, EOM
   Christian Kollmar      : KDIIS, OOCD, Brueckner-CCSD(T), CCSD density
   Simone Kossmann        : Meta GGA functionals, TD-DFT gradient, OOMP2, MP2 Hessian
   Martin Krupicka        : AUTO-CI
   Dagmar Lenk            : GEPOL surface
   Dimitrios Liakos       : Extrapolation schemes; parallel MDCI
   Dimitrios Manganas     : ROCIS; embedding schemes
   Dimitrios Pantazis     : SARC Basis sets
   Taras Petrenko         : DFT Hessian,TD-DFT gradient, ASA, ECA, R-Raman, ABS, FL, XAS/XES, NRVS
   Peter Pinski           : DLPNO-MP2
   Christoph Reimann      : Effective Core Potentials
   Marius Retegan         : Local ZFS, SOC
   Christoph Riplinger    : Optimizer, TS searches, QM/MM, DLPNO-CCSD(T), (RO)-DLPNO pert. Triples
   Tobias Risthaus        : Range-separated hybrids, TD-DFT gradient, RPA, STAB
   Michael Roemelt        : Restricted open shell CIS
   Masaaki Saitow         : Open-shell DLPNO
   Barbara Sandhoefer     : DKH picture change effects
   Kantharuban Sivalingam : CASSCF convergence, NEVPT2, FIC-MRCI
   Georgi Stoychev        : AutoAux
   Boris Wezisla          : Elementary symmetry handling
   Frank Wennmohs         : Technical directorship


 We gratefully acknowledge several colleagues who have allowed us to
 interface, adapt or use parts of their codes:
   Stefan Grimme, W. Hujo, H. Kruse,             : VdW corrections, initial TS optimization,
                  C. Bannwarth                     DFT functionals, gCP, sTDA/sTD-DF
   Ed Valeev                                     : LibInt (2-el integral package), F12 methods
   Garnet Chan, S. Sharma, J. Yang, R. Olivares  : DMRG
   Ulf Ekstrom                                   : XCFun DFT Library
   Mihaly Kallay                                 : mrcc  (arbitrary order and MRCC methods)
   Andreas Klamt, Michael Diedenhofen            : otool_cosmo (COSMO solvation model)
   Jiri Pittner, Ondrej Demel                    : Mk-CCSD
   Frank Weinhold                                : gennbo (NPA and NBO analysis)
   Christopher J. Cramer and Donald G. Truhlar   : smd solvation model


 Your calculation uses the libint2 library for the computation of 2-el integrals
 For citations please refer to: http://libint.valeyev.net

 This ORCA versions uses:
   CBLAS   interface :  Fast vector & matrix operations
   LAPACKE interface :  Fast linear algebra routines
   SCALAPACK package :  Parallel linear algebra routines


Your calculation utilizes the geometrical counterpoise correction gCP
Please cite in your paper:
H.Kruse, S. Grimme J.Chem.Phys., 136, (2012), 154101 
   

Your calculation utilizes the atom-pairwise dispersion correction
with the Becke-Johnson damping scheme (D3BJ)
Cite in your paper:
S.Grimme, S.Ehrlich, L.Goerigk, J Comput Chem, (2011), 32, 1456–1465 
S.Grimme, J.Antony, S.Ehrlich and H.Krieg, J.Chem.Phys., 132, (2010), 154104 
   

Your calculation employs the composite approach PBEh-3c.
Please cite in your paper:
S. Grimme, J. G. Brandenburg, C. Bannwarth, A. Hansen J.Chem.Phys., 143, (2015), 054107 
   

Your calculation utilizes the SMD solvation module
Please cite in your paper:
A.V. Marenich, C.J. Cramer, D.G. Truhlar J. Phys. Chem. B, 113, (2009), 6378 

Your calculation utilizes the basis: def2-mSVP

Your calculation utilizes the auxiliary basis: def2/J
   F. Weigend, Phys. Chem. Chem. Phys. 8, 1057 (2006).

================================================================================
                                        WARNINGS
                       Please study these warnings very carefully!
================================================================================

Warning: TCutStore was < 0. Adjusted to Thresh (uncritical)

WARNING: Split-RI-J cannot be used together with RIJONX
  ===> : Split-RI-J will be disabled

WARNING: The environment variable RSH_COMMAND is not set!
  ===> : All Displacements for the Numerical Hessian calculation
         will be started on localhost

WARNING: Evaluation of Numerical Hessian with CPCM may lead to unreliable numbers

WARNING: Geometry Optimization
  ===> : Switching off AutoStart
         For restart on a previous wavefunction, please use MOREAD

INFO   : the flag for use of LIBINT has been found!

================================================================================
                                       INPUT FILE
================================================================================
NAME = acetate@water.inp
|  1> # acetate.xyz
|  2> ! PBEh3c Opt NumFreq CPCM
|  3> %cpcm
|  4>  smd true
|  5>  solvent "WATER"
|  6> end
|  7> 
|  8> * xyz -1 1
|  9> C        0.626425000     -1.307882000      0.000000000
| 10> C       -0.125726000     -0.008626000      0.000000000
| 11> H        1.270967000     -1.376605000      0.876774000
| 12> H        1.270967000     -1.376604000     -0.876774000
| 13> H       -0.068190000     -2.142124000      0.000000000
| 14> O       -1.318295000      0.110092000      0.000000000
| 15> O        0.710233000      1.038509000      0.000000000
| 16> *
| 17> %pal
| 18>  nprocs 4
| 19> end
| 20> 
| 21>                          ****END OF INPUT****
================================================================================

                       *****************************
                       * Geometry Optimization Run *
                       *****************************

Geometry optimization settings:
Update method            Update   .... BFGS
Choice of coordinates    CoordSys .... Redundant Internals
Initial Hessian          InHess   .... Almoef's Model

Convergence Tolerances:
Energy Change            TolE     ....  5.0000e-06 Eh
Max. Gradient            TolMAXG  ....  3.0000e-04 Eh/bohr
RMS Gradient             TolRMSG  ....  1.0000e-04 Eh/bohr
Max. Displacement        TolMAXD  ....  4.0000e-03 bohr
RMS Displacement         TolRMSD  ....  2.0000e-03 bohr

------------------------------------------------------------------------------
                        ORCA OPTIMIZATION COORDINATE SETUP
------------------------------------------------------------------------------

The optimization will be done in new redundant internal coordinates
Making redundant internal coordinates   ...  (new redundants) done
Evaluating the initial hessian          ...  (Almloef) done
Evaluating the coordinates              ...  done
Calculating the B-matrix                .... done
Calculating the G-matrix                .... done
Diagonalizing the G-matrix              .... done
The first mode is                       ....    6
The number of degrees of freedom        ....   15

    -----------------------------------------------------------------
                    Redundant Internal Coordinates


    -----------------------------------------------------------------
         Definition                    Initial Value    Approx d2E/dq
    -----------------------------------------------------------------
      1. B(C   1,C   0)                  1.5013         0.415166   
      2. B(H   2,C   0)                  1.0904         0.359621   
      3. B(H   3,C   0)                  1.0904         0.359621   
      4. B(H   4,C   0)                  1.0856         0.366016   
      5. B(O   5,C   1)                  1.1985         1.130992   
      6. B(O   6,C   1)                  1.3399         0.672689   
      7. A(C   1,C   0,H   3)          110.5306         0.329936   
      8. A(C   1,C   0,H   4)          110.1513         0.330899   
      9. A(C   1,C   0,H   2)          110.5306         0.329936   
     10. A(H   2,C   0,H   4)          109.2570         0.291524   
     11. A(H   3,C   0,H   4)          109.2570         0.291524   
     12. A(H   2,C   0,H   3)          107.0493         0.290718   
     13. A(C   0,C   1,O   5)          125.7519         0.447082   
     14. A(O   5,C   1,O   6)          122.9164         0.485125   
     15. A(C   0,C   1,O   6)          111.3317         0.407354   
     16. D(O   5,C   1,C   0,H   3)    120.8347         0.012755   
     17. D(O   5,C   1,C   0,H   4)      0.0000         0.012755   
     18. D(O   6,C   1,C   0,H   2)     59.1653         0.012755   
     19. D(O   6,C   1,C   0,H   3)    -59.1653         0.012755   
     20. D(O   6,C   1,C   0,H   4)    180.0000         0.012755   
     21. D(O   5,C   1,C   0,H   2)   -120.8347         0.012755   
    -----------------------------------------------------------------

Number of atoms                         .... 7
Number of degrees of freedom            .... 21

         *************************************************************
         *                GEOMETRY OPTIMIZATION CYCLE   1            *
         *************************************************************
---------------------------------
CARTESIAN COORDINATES (ANGSTROEM)
---------------------------------
  C      0.626425   -1.307882    0.000000
  C     -0.125726   -0.008626    0.000000
  H      1.270967   -1.376605    0.876774
  H      1.270967   -1.376604   -0.876774
  H     -0.068190   -2.142124    0.000000
  O     -1.318295    0.110092    0.000000
  O      0.710233    1.038509    0.000000

----------------------------
CARTESIAN COORDINATES (A.U.)
----------------------------
  NO LB      ZA    FRAG     MASS         X           Y           Z
   0 C     6.0000    0    12.011    1.183772   -2.471539    0.000000
   1 C     6.0000    0    12.011   -0.237588   -0.016301    0.000000
   2 H     1.0000    0     1.008    2.401780   -2.601406    1.656863
   3 H     1.0000    0     1.008    2.401780   -2.601405   -1.656863
   4 H     1.0000    0     1.008   -0.128860   -4.048028    0.000000
   5 O     8.0000    0    15.999   -2.491217    0.208044    0.000000
   6 O     8.0000    0    15.999    1.342146    1.962498    0.000000

--------------------------------
INTERNAL COORDINATES (ANGSTROEM)
--------------------------------
 C      0   0   0     0.000000000000     0.00000000     0.00000000
 C      1   0   0     1.501265226513     0.00000000     0.00000000
 H      1   2   0     1.090362273544   110.53061447     0.00000000
 H      1   2   3     1.090362210517   110.53056715   241.66939558
 H      1   2   3     1.085564237062   110.15127960   120.83468572
 O      2   1   3     1.198463509367   125.75189402   239.16531428
 O      2   1   3     1.339895204076   111.33165609    59.16531428

---------------------------
INTERNAL COORDINATES (A.U.)
---------------------------
 C      0   0   0     0.000000000000     0.00000000     0.00000000
 C      1   0   0     2.836980132489     0.00000000     0.00000000
 H      1   2   0     2.060486083759   110.53061447     0.00000000
 H      1   2   3     2.060485964655   110.53056715   241.66939558
 H      1   2   3     2.051419108827   110.15127960   120.83468572
 O      2   1   3     2.264767814202   125.75189402   239.16531428
 O      2   1   3     2.532034983858   111.33165609    59.16531428

---------------------
BASIS SET INFORMATION
---------------------
There are 3 groups of distinct atoms

 Group   1 Type C   : 8s4p1d contracted to 4s2p1d pattern {5111/31/1}
 Group   2 Type H   : 4s contracted to 2s pattern {31}
 Group   3 Type O   : 8s4p1d contracted to 4s2p1d pattern {5111/31/1}

Atom   0C    basis set group =>   1
Atom   1C    basis set group =>   1
Atom   2H    basis set group =>   2
Atom   3H    basis set group =>   2
Atom   4H    basis set group =>   2
Atom   5O    basis set group =>   3
Atom   6O    basis set group =>   3
-------------------------------
AUXILIARY BASIS SET INFORMATION
-------------------------------
There are 3 groups of distinct atoms

 Group   1 Type C   : 12s5p4d2f1g contracted to 6s4p3d1f1g pattern {711111/2111/211/2/1}
 Group   2 Type H   : 5s2p1d contracted to 3s1p1d pattern {311/2/1}
 Group   3 Type O   : 12s5p4d2f1g contracted to 6s4p3d1f1g pattern {711111/2111/211/2/1}

Atom   0C    basis set group =>   1
Atom   1C    basis set group =>   1
Atom   2H    basis set group =>   2
Atom   3H    basis set group =>   2
Atom   4H    basis set group =>   2
Atom   5O    basis set group =>   3
Atom   6O    basis set group =>   3


           ************************************************************
           *        Program running with 4 parallel MPI-processes     *
           *              working on a common directory               *
           ************************************************************
------------------------------------------------------------------------------
                           ORCA GTO INTEGRAL CALCULATION
                           -- RI-GTO INTEGRALS CHOSEN --
------------------------------------------------------------------------------

                         BASIS SET STATISTICS AND STARTUP INFO

Gaussian basis set:
 # of primitive gaussian shells          ...   64
 # of primitive gaussian functions       ...  112
 # of contracted shells                  ...   34
 # of contracted basis functions         ...   66
 Highest angular momentum                ...    2
 Maximum contraction depth               ...    5
Auxiliary gaussian basis set:
 # of primitive gaussian shells          ...  120
 # of primitive gaussian functions       ...  328
 # of contracted shells                  ...   75
 # of contracted aux-basis functions     ...  229
 Highest angular momentum                ...    4
 Maximum contraction depth               ...    7
Ratio of auxiliary to basis functions    ...  3.47
Integral package used                  ... LIBINT
 One Electron integrals                  ... done
 Ordering auxiliary basis shells         ... done
 Integral threshhold             Thresh  ...  2.500e-11
 Primitive cut-off               TCut    ...  2.500e-12
 Pre-screening matrix                    ... done
 Shell pair data                         ... 
 Ordering of the shell pairs             ... done (   0.000 sec) 580 of 595 pairs
 Determination of significant pairs      ... done (   0.000 sec)
 Creation of shell pair data             ... done (   0.000 sec)
 Storage of shell pair data              ... done (   0.000 sec)
 Shell pair data done in (   0.001 sec)
 Computing two index integrals           ... done
 Cholesky decomposition of the V-matrix  ... done


Timings:
 Total evaluation time                   ...   0.266 sec (  0.004 min)
 One electron matrix time                ...   0.008 sec (  0.000 min) =  3.0%
 Schwartz matrix evaluation time         ...   0.160 sec (  0.003 min) = 60.2%
 Two index repulsion integral time       ...   0.077 sec (  0.001 min) = 28.9%
 Cholesky decomposition of V             ...   0.001 sec (  0.000 min) =  0.5%
 Three index repulsion integral time     ...   0.000 sec (  0.000 min) =  0.0%



           ************************************************************
           *        Program running with 4 parallel MPI-processes     *
           *              working on a common directory               *
           ************************************************************
-------------------------------------------------------------------------------
                                 ORCA SCF
-------------------------------------------------------------------------------

------------
SCF SETTINGS
------------
Hamiltonian:
 Density Functional     Method          .... DFT(GTOs)
 Exchange Functional    Exchange        .... PBE
   PBE kappa parameter   XKappa         ....  1.024500
   PBE mue parameter    XMuePBE         ....  0.123457
 Correlation Functional Correlation     .... PBE
   PBE beta parameter  CBetaPBE         ....  0.030000
 LDA part of GGA corr.  LDAOpt          .... PW91-LDA
 Gradients option       PostSCFGGA      .... off
 Hybrid DFT is turned on
   Fraction HF Exchange ScalHFX         ....  0.420000
   Scaling of DF-GGA-X  ScalDFX         ....  0.580000
   Scaling of DF-GGA-C  ScalDFC         ....  1.000000
   Scaling of DF-LDA-C  ScalLDAC        ....  1.000000
   Perturbative correction              ....  0.000000
 RI-approximation to the Coulomb term is turned on
   Number of auxiliary basis functions  .... 229
   RIJ-ON(X) (HFX calculated with O(N)) .... on


General Settings:
 Integral files         IntName         .... acetate@water
 Hartree-Fock type      HFTyp           .... RHF
 Total Charge           Charge          ....   -1
 Multiplicity           Mult            ....    1
 Number of Electrons    NEL             ....   32
 Basis Dimension        Dim             ....   66
 Nuclear Repulsion      ENuc            ....    112.3691792377 Eh

Convergence Acceleration:
 DIIS                   CNVDIIS         .... on
   Start iteration      DIISMaxIt       ....    12
   Startup error        DIISStart       ....  0.200000
   # of expansion vecs  DIISMaxEq       ....     5
   Bias factor          DIISBfac        ....   1.050
   Max. coefficient     DIISMaxC        ....  10.000
 Newton-Raphson         CNVNR           .... off
 SOSCF                  CNVSOSCF        .... on
   Start iteration      SOSCFMaxIt      ....   150
   Startup grad/error   SOSCFStart      ....  0.003300
 Level Shifting         CNVShift        .... on
   Level shift para.    LevelShift      ....    0.2500
   Turn off err/grad.   ShiftErr        ....    0.0010
 Zerner damping         CNVZerner       .... off
 Static damping         CNVDamp         .... on
   Fraction old density DampFac         ....    0.7000
   Max. Damping (<1)    DampMax         ....    0.9800
   Min. Damping (>=0)   DampMin         ....    0.0000
   Turn off err/grad.   DampErr         ....    0.1000
 Fernandez-Rico         CNVRico         .... off

SCF Procedure:
 Maximum # iterations   MaxIter         ....   125
 SCF integral mode      SCFMode         .... Direct
   Integral package                     .... LIBINT
 Reset frequeny         DirectResetFreq ....    20
 Integral Threshold     Thresh          ....  2.500e-11 Eh
 Primitive CutOff       TCut            ....  2.500e-12 Eh

Convergence Tolerance:
 Convergence Check Mode ConvCheckMode   .... Total+1el-Energy
 Convergence forced     ConvForced      .... 0
 Energy Change          TolE            ....  1.000e-08 Eh
 1-El. energy change                    ....  1.000e-05 Eh
 Orbital Gradient       TolG            ....  1.000e-05
 Orbital Rotation angle TolX            ....  1.000e-05
 DIIS Error             TolErr          ....  5.000e-07


Diagonalization of the overlap matrix:
Smallest eigenvalue                        ... 7.488e-03
Time for diagonalization                   ...    0.002 sec
Threshold for overlap eigenvalues          ... 1.000e-08
Number of eigenvalues below threshold      ... 0
Time for construction of square roots      ...    0.000 sec
Total time needed                          ...    0.002 sec

--------------------------------
INITIAL GUESS: MINIMAL BASIS EHT
--------------------------------
The minimal basis has 23 functions
EHT matrix was diagonalized
Basis set overlap was calculated now projecting the orbitals
Using GuessMode=FMatrix for the initial guess
C*T matrix was formed
Effective Fockian was calculated
Effective Fockian was diagonalized
Initial density was built
                      ------------------
                      INITIAL GUESS DONE
                      ------------------
-------------------
DFT GRID GENERATION
-------------------

General Integration Accuracy     IntAcc      ...  4.340
Radial Grid Type                 RadialGrid  ... Gauss-Chebyshev
Angular Grid (max. acc.)         AngularGrid ... Lebedev-194
Angular grid pruning method      GridPruning ... 3 (G Style)
Weight generation scheme         WeightScheme... Becke
Basis function cutoff            BFCut       ...    1.0000e-11
Integration weight cutoff        WCut        ...    1.0000e-14
Grids for H and He will be reduced by one unit

# of grid points (after initial pruning)     ...  17854 (   0.0 sec)
# of grid points (after weights+screening)   ...  17249 (   0.0 sec)
nearest neighbour list constructed           ...    0.0 sec
Grid point re-assignment to atoms done       ...    0.0 sec
Grid point division into batches done        ...    0.0 sec
Reduced shell lists constructed in    0.1 sec

Total number of grid points                  ...    17249
Total number of batches                      ...      274
Average number of points per batch           ...       62
Average number of grid points per atom       ...     2464
Average number of shells per batch           ...    26.01 (76.51%)
Average number of basis functions per batch  ...    54.16 (82.06%)
Average number of large shells per batch     ...    23.36 (89.79%)
Average number of large basis fcns per batch ...    49.70 (91.77%)
Maximum spatial batch extension              ...  17.16, 18.25, 16.72 au
Average spatial batch extension              ...   0.69,  0.69,  0.69 au

Time for grid setup =    0.088 sec


------------------------------------------------------------------------------
                           CPCM SOLVATION MODEL                               
------------------------------------------------------------------------------
CPCM parameters:
  Epsilon                                         ...      78.3550
  Refrac                                          ...       1.3300
  Rsolv                                           ...       1.3000
  Surface type                                    ...    GEPOL SES
  Epsilon function type                           ...         CPCM
Solvent:                                     ... WATER
SMD-CDS solvent descriptors:
  Soln                                       ...    1.3328
  Soln25                                     ...    1.3323
  Sola                                       ...    0.0000
  Solb                                       ...    0.0000
  Solg                                       ...    0.0000
  Solc                                       ...    0.0000
  Solh                                       ...    0.0000
Radii:
 Radius for C  used is    3.4960 Bohr (=   1.8500 Ang.)
 Radius for H  used is    2.2677 Bohr (=   1.2000 Ang.)
 Radius for O  used is    2.8724 Bohr (=   1.5200 Ang.)
Calculating surface                               ...        done! (  0.0s)
GEPOL surface points                              ...          264
GEPOL Volume                                      ...     386.2572
GEPOL Surface-area                                ...     285.7121
Calculating surface distance matrix               ...        done! (  0.0s)
Performing Cholesky decomposition & store         ...        done! (  0.0s)
Overall time for CPCM initialization              ...                 0.1s
--------------
SCF ITERATIONS
--------------
ITER       Energy         Delta-E        Max-DP      RMS-DP      [F,P]     Damp
               ***  Starting incremental Fock matrix formation  ***
  0   -227.0437565329   0.000000000000 0.22266160  0.01308027  0.6830251 0.7000
  1   -227.4883332411  -0.444576708120 0.12173140  0.00706034  0.2981634 0.7000
  2   -227.6907855175  -0.202452276461 0.05579217  0.00350873  0.2076747 0.7000
                               ***Turning on DIIS***
  3   -227.8251168850  -0.134331367482 0.03757785  0.00208249  0.1459205 0.7000
  4   -227.9212320628  -0.096115177754 0.02743728  0.00146305  0.1022453 0.7000
  5   -227.9890952278  -0.067863165006 0.06112844  0.00351604  0.0717181 0.0000
  6   -228.1489069370  -0.159811709287 0.00425784  0.00021365  0.0036882 0.0000
                      *** Initiating the SOSCF procedure ***
                           *** Shutting down DIIS ***
                      *** Re-Reading the Fockian *** 
                      *** Removing any level shift *** 
ITER      Energy       Delta-E        Grad      Rot      Max-DP    RMS-DP
  7   -228.14896072  -0.0000537864  0.001175  0.001175  0.002066  0.000082
               *** Restarting incremental Fock matrix formation ***
  8   -228.14897274  -0.0000120154  0.000324  0.000841  0.001162  0.000066
  9   -228.14897533  -0.0000025880  0.000334  0.000760  0.000859  0.000036
 10   -228.14897620  -0.0000008743  0.000128  0.000236  0.000240  0.000014
 11   -228.14897633  -0.0000001302  0.000032  0.000056  0.000097  0.000004
 12   -228.14897633  -0.0000000003  0.000026  0.000043  0.000055  0.000002
                  ***Gradient check signals convergence***
              ***Rediagonalizing the Fockian in SOSCF/NRSCF***

               *****************************************************
               *                     SUCCESS                       *
               *           SCF CONVERGED AFTER  13 CYCLES          *
               *****************************************************


SMD CDS free energy correction energy :                 3.58500     Kcal/mol
Total Energy after SMD CDS correction =              -228.143263282 Eh

----------------
TOTAL SCF ENERGY
----------------

Total Energy       :         -228.14326328 Eh           -6208.09381 eV

Components:
Nuclear Repulsion  :          112.36917924 Eh            3057.72082 eV
Electronic Energy  :         -340.51244252 Eh           -9265.81463 eV
One Electron Energy:         -543.11145909 Eh          -14778.81414 eV
Two Electron Energy:          202.59901657 Eh            5512.99952 eV
CPCM Dielectric    :           -0.13820808 Eh              -3.76083 eV
SMD CDS (Gcds)     :            0.00571306 Eh               0.15546 eV

Virial components:
Potential Energy   :         -454.79932899 Eh          -12375.71891 eV
Kinetic Energy     :          226.65606571 Eh            6167.62510 eV
Virial Ratio       :            2.00656147


DFT components:
N(Alpha)           :       16.000095166391 electrons
N(Beta)            :       16.000095166391 electrons
N(Total)           :       32.000190332783 electrons
E(X)               :      -15.767265904992 Eh       
E(C)               :       -1.419385158258 Eh       
E(XC)              :      -17.186651063250 Eh       
CPCM Solvation Model Properties:
Surface-charge          :            0.97220178
Charge-correction       :           -0.00545929 Eh              -0.14855 eV
Free-energy (cav+disp)  :            0.00296755 Eh               0.08075 eV
Corrected G(solv)       :         -228.14575502 Eh           -6208.16161 eV

---------------
SCF CONVERGENCE
---------------

  Last Energy change         ...   -1.0978e-08  Tolerance :   1.0000e-08
  Last MAX-Density change    ...    4.0628e-06  Tolerance :   1.0000e-07
  Last RMS-Density change    ...    1.9951e-07  Tolerance :   5.0000e-09
  Last Orbital Gradient      ...    1.2283e-06  Tolerance :   1.0000e-05
  Last Orbital Rotation      ...    1.3559e-06  Tolerance :   1.0000e-05

             **** THE GBW FILE WAS UPDATED (acetate@water.gbw) ****
             **** DENSITY FILE WAS UPDATED (acetate@water.scfp.tmp) ****
             **** ENERGY FILE WAS UPDATED (acetate@water.en.tmp) ****
----------------
ORBITAL ENERGIES
----------------

  NO   OCC          E(Eh)            E(eV) 
   0   2.0000     -19.434707      -528.8453 
   1   2.0000     -19.396527      -527.8063 
   2   2.0000     -10.520059      -286.2654 
   3   2.0000     -10.409477      -283.2563 
   4   2.0000      -1.136253       -30.9190 
   5   2.0000      -0.998586       -27.1729 
   6   2.0000      -0.793111       -21.5817 
   7   2.0000      -0.560072       -15.2403 
   8   2.0000      -0.486213       -13.2305 
   9   2.0000      -0.483026       -13.1438 
  10   2.0000      -0.479664       -13.0523 
  11   2.0000      -0.420658       -11.4467 
  12   2.0000      -0.401821       -10.9341 
  13   2.0000      -0.291068        -7.9204 
  14   2.0000      -0.283666        -7.7189 
  15   2.0000      -0.267048        -7.2668 
  16   0.0000       0.101805         2.7703 
  17   0.0000       0.191205         5.2030 
  18   0.0000       0.231984         6.3126 
  19   0.0000       0.256553         6.9812 
  20   0.0000       0.281381         7.6568 
  21   0.0000       0.350874         9.5478 
  22   0.0000       0.403386        10.9767 
  23   0.0000       0.536835        14.6080 
  24   0.0000       0.567164        15.4333 
  25   0.0000       0.608326        16.5534 
  26   0.0000       0.615933        16.7604 
  27   0.0000       0.630891        17.1674 
  28   0.0000       0.753052        20.4916 
  29   0.0000       0.839804        22.8522 
  30   0.0000       0.953539        25.9471 
  31   0.0000       0.998828        27.1795 
  32   0.0000       1.004866        27.3438 
  33   0.0000       1.077615        29.3234 
  34   0.0000       1.098351        29.8877 
  35   0.0000       1.102843        30.0099 
  36   0.0000       1.174519        31.9603 
  37   0.0000       1.193225        32.4693 
  38   0.0000       1.231068        33.4991 
  39   0.0000       1.250196        34.0196 
  40   0.0000       1.482806        40.3492 
  41   0.0000       1.530330        41.6424 
  42   0.0000       1.747016        47.5387 
  43   0.0000       1.834750        49.9261 
  44   0.0000       1.882285        51.2196 
  45   0.0000       1.884912        51.2911 
  46   0.0000       1.941925        52.8425 
  47   0.0000       1.974284        53.7230 
  48   0.0000       2.063252        56.1439 
  49   0.0000       2.072424        56.3935 
  50   0.0000       2.078667        56.5634 
  51   0.0000       2.114269        57.5322 
  52   0.0000       2.196301        59.7644 
  53   0.0000       2.315978        63.0210 
  54   0.0000       2.333534        63.4987 
  55   0.0000       2.480033        67.4851 
  56   0.0000       2.592119        70.5351 
  57   0.0000       2.787239        75.8446 
  58   0.0000       2.850433        77.5642 
  59   0.0000       2.950474        80.2865 
  60   0.0000       3.049294        82.9755 
  61   0.0000       3.235458        88.0413 
  62   0.0000      13.692478       372.5913 
  63   0.0000      14.096929       383.5969 
  64   0.0000      25.633427       697.5210 
  65   0.0000      25.769495       701.2236 

                    ********************************
                    * MULLIKEN POPULATION ANALYSIS *
                    ********************************

-----------------------
MULLIKEN ATOMIC CHARGES
-----------------------
   0 C :   -0.780041
   1 C :    0.398609
   2 H :    0.246038
   3 H :    0.245927
   4 H :    0.212064
   5 O :   -0.550861
   6 O :   -0.771735
Sum of atomic charges:   -1.0000000

--------------------------------
MULLIKEN REDUCED ORBITAL CHARGES
--------------------------------
  0 C s       :     3.402105  s :     3.402105
      pz      :     1.162672  p :     3.343098
      px      :     1.144038
      py      :     1.036388
      dz2     :     0.007113  d :     0.034837
      dxz     :     0.010322
      dyz     :     0.001457
      dx2y2   :     0.004677
      dxy     :     0.011269
  1 C s       :     2.970238  s :     2.970238
      pz      :     0.754251  p :     2.490735
      px      :     0.860108
      py      :     0.876375
      dz2     :     0.006579  d :     0.140419
      dxz     :     0.028354
      dyz     :     0.009203
      dx2y2   :     0.043110
      dxy     :     0.053172
  2 H s       :     0.753962  s :     0.753962
  3 H s       :     0.754073  s :     0.754073
  4 H s       :     0.787936  s :     0.787936
  5 O s       :     3.708844  s :     3.708844
      pz      :     1.549755  p :     4.815962
      px      :     1.443125
      py      :     1.823082
      dz2     :     0.002354  d :     0.026055
      dxz     :     0.009315
      dyz     :     0.000199
      dx2y2   :     0.007806
      dxy     :     0.006382
  6 O s       :     3.790437  s :     3.790437
      pz      :     1.664786  p :     4.962197
      px      :     1.706149
      py      :     1.591263
      dz2     :     0.002372  d :     0.019100
      dxz     :     0.002182
      dyz     :     0.003370
      dx2y2   :     0.003516
      dxy     :     0.007661


                     *******************************
                     * LOEWDIN POPULATION ANALYSIS *
                     *******************************

----------------------
LOEWDIN ATOMIC CHARGES
----------------------
   0 C :   -0.432143
   1 C :    0.016447
   2 H :    0.148931
   3 H :    0.148874
   4 H :    0.125245
   5 O :   -0.384462
   6 O :   -0.622892

-------------------------------
LOEWDIN REDUCED ORBITAL CHARGES
-------------------------------
  0 C s       :     2.973897  s :     2.973897
      pz      :     1.145514  p :     3.393524
      px      :     1.138846
      py      :     1.109163
      dz2     :     0.013075  d :     0.064722
      dxz     :     0.017292
      dyz     :     0.003115
      dx2y2   :     0.009406
      dxy     :     0.021836
  1 C s       :     2.846293  s :     2.846293
      pz      :     0.756432  p :     2.806483
      px      :     1.046134
      py      :     1.003918
      dz2     :     0.016341  d :     0.330777
      dxz     :     0.060602
      dyz     :     0.018890
      dx2y2   :     0.098101
      dxy     :     0.136843
  2 H s       :     0.851069  s :     0.851069
  3 H s       :     0.851126  s :     0.851126
  4 H s       :     0.874755  s :     0.874755
  5 O s       :     3.500223  s :     3.500223
      pz      :     1.523460  p :     4.831646
      px      :     1.513590
      py      :     1.794596
      dz2     :     0.006106  d :     0.052594
      dxz     :     0.013244
      dyz     :     0.000192
      dx2y2   :     0.018324
      dxy     :     0.014727
  6 O s       :     3.598966  s :     3.598966
      pz      :     1.654518  p :     4.987133
      px      :     1.709535
      py      :     1.623081
      dz2     :     0.005312  d :     0.036792
      dxz     :     0.003310
      dyz     :     0.004530
      dx2y2   :     0.008224
      dxy     :     0.015416


                      *****************************
                      * MAYER POPULATION ANALYSIS *
                      *****************************

  NA   - Mulliken gross atomic population
  ZA   - Total nuclear charge
  QA   - Mulliken gross atomic charge
  VA   - Mayer's total valence
  BVA  - Mayer's bonded valence
  FA   - Mayer's free valence

  ATOM       NA         ZA         QA         VA         BVA        FA
  0 C      6.7800     6.0000    -0.7800     3.6665     3.6665     0.0000
  1 C      5.6014     6.0000     0.3986     4.4168     4.4168     0.0000
  2 H      0.7540     1.0000     0.2460     0.9062     0.9062     0.0000
  3 H      0.7541     1.0000     0.2459     0.9062     0.9062     0.0000
  4 H      0.7879     1.0000     0.2121     0.9142     0.9142     0.0000
  5 O      8.5509     8.0000    -0.5509     2.0439     2.0439     0.0000
  6 O      8.7717     8.0000    -0.7717     1.7556     1.7556    -0.0000

  Mayer bond orders larger than 0.1
B(  0-C ,  1-C ) :   0.9202 B(  0-C ,  2-H ) :   0.9148 B(  0-C ,  3-H ) :   0.9149 
B(  0-C ,  4-H ) :   0.9169 B(  1-C ,  5-O ) :   1.9066 B(  1-C ,  6-O ) :   1.6181 
B(  5-O ,  6-O ) :   0.1113 

-------
TIMINGS
-------

Total SCF time: 0 days 0 hours 0 min 8 sec 

Total time                  ....       8.308 sec
Sum of individual times     ....       8.145 sec  ( 98.0%)

Fock matrix formation       ....       8.004 sec  ( 96.3%)
  XC integration            ....       0.555 sec  (  6.9% of F)
    Basis function eval.    ....       0.194 sec  ( 35.1% of XC)
    Density eval.           ....       0.101 sec  ( 18.1% of XC)
    XC-Functional eval.     ....       0.063 sec  ( 11.4% of XC)
    XC-Potential eval.      ....       0.154 sec  ( 27.7% of XC)
Diagonalization             ....       0.011 sec  (  0.1%)
Density matrix formation    ....       0.001 sec  (  0.0%)
Population analysis         ....       0.011 sec  (  0.1%)
Initial guess               ....       0.005 sec  (  0.1%)
Orbital Transformation      ....       0.000 sec  (  0.0%)
Orbital Orthonormalization  ....       0.000 sec  (  0.0%)
DIIS solution               ....       0.003 sec  (  0.0%)
SOSCF solution              ....       0.022 sec  (  0.3%)
Grid generation             ....       0.088 sec  (  1.1%)


-------------------------------------------------------------------------------
                          DFT DISPERSION CORRECTION                            
                                                                               
                              DFTD3 V3.1  Rev 1                                
                          USING Becke-Johnson damping                          
-------------------------------------------------------------------------------
The PBEh-3c composite method is recognized
Using three-body term ABC
Active option DFTDOPT                   ...         4   

molecular C6(AA) [au] = 468.961428 


            DFT-D V3
 parameters
 s6 scaling factor         :     1.0000 
 a1 scaling factor         :     0.4860 
 s8 scaling factor         :     0.0000 
 a2 scaling factor         :     4.5000 
 Damping factor alpha9(ATM):    16.0000 
 ad hoc parameters k1-k3   :    16.0000     1.3333    -4.0000 

 Edisp/kcal,au: -1.258498492150  -0.002005544792 
 E6   /kcal   :  -1.259484716 
 E8   /kcal   :  -0.000000000 
 E6(ABC)      :   0.000986224 
 % E8         :   0.000000000 
 % E6(ABC)    :  -0.078365143 

-------------------------   ----------------
Dispersion correction           -0.002005545
-------------------------   ----------------

------------------   -----------------
gCP correction             0.011454963
------------------   -----------------

-------------------------   --------------------
FINAL SINGLE POINT ENERGY      -228.133813863513
-------------------------   --------------------



           ************************************************************
           *        Program running with 4 parallel MPI-processes     *
           *              working on a common directory               *
           ************************************************************
------------------------------------------------------------------------------
                         ORCA SCF GRADIENT CALCULATION
------------------------------------------------------------------------------

Gradient of the Kohn-Sham DFT energy:
Kohn-Sham wavefunction type      ... RKS
Hartree-Fock exchange scaling    ...    0.420
Number of operators              ...    1
Number of atoms                  ...    7
Basis set dimensions             ...   66
Integral neglect threshold       ... 2.5e-11
Integral primitive cutoff        ... 2.5e-12

Nuclear repulsion gradient       ... done
One Electron Gradient            ... done
Pre-screening matrix             ... done
Starting the two electron gradient:
Will do only exchange terms
Two electron gradient done
RI-J gradient                    ... done
Exchange-correlation gradient    ... done
Dispersion correction            ... done
gCP correction                   ... done

------------------
CARTESIAN GRADIENT
------------------

   1   C   :    0.010744282    0.010410331   -0.000011094
   2   C   :   -0.109386060   -0.072482340   -0.000051024
   3   H   :    0.000863753    0.000446344   -0.000369482
   4   H   :    0.000850391    0.000430720    0.000385188
   5   H   :   -0.002333831    0.007386268    0.000004425
   6   O   :    0.060414426    0.008938183    0.000043079
   7   O   :    0.038847039    0.044870494   -0.000001092

Difference to translation invariance:
           :    0.0000000000    0.0000000000   -0.0000000000

Norm of the cartesian gradient     ...    0.1573442383
RMS gradient                       ...    0.0343353277
MAX gradient                       ...    0.1093860605

-------
TIMINGS
-------

Total SCF gradient time            ...        1.145 sec

One electron gradient       ....       0.006 sec  (  0.6%)
Prescreening matrices       ....       0.018 sec  (  1.6%)
Two electron gradient       ....       0.358 sec  ( 31.3%)
RI-J Coulomb gradient       ....       0.150 sec  ( 13.1%)
XC gradient                 ....       0.205 sec  ( 17.9%)
CPCM gradient               ....       0.098 sec  (  8.6%)
   A-Matrix (El+Nuc)        ....       0.003 sec  (  0.3%)
   Potential                ....       0.095 sec  (  8.3%)
------------------------------------------------------------------------------
                         ORCA GEOMETRY RELAXATION STEP
------------------------------------------------------------------------------

Reading the OPT-File                    .... done
Getting information on internals        .... done
Copying old internal coords+grads       .... done
Making the new internal coordinates     .... (new redundants).... done
Validating the new internal coordinates .... (new redundants).... done
Calculating the B-matrix                .... done
Calculating the G,G- and P matrices     .... done
Transforming gradient to internals      .... done
Projecting the internal gradient        .... done
Number of atoms                         ....   7
Number of internal coordinates          ....  21
Current Energy                          ....  -228.133813864 Eh
Current gradient norm                   ....     0.157344238 Eh/bohr
Maximum allowed component of the step   ....  0.300
Current trust radius                    ....  0.300
Evaluating the initial hessian          ....  (Almloef) done
Projecting the Hessian                  .... done
Forming the augmented Hessian           .... done
Diagonalizing the augmented Hessian     .... done
Last element of RFO vector              ....  0.991753416
Lowest eigenvalues of augmented Hessian:
 -0.010950473  0.012754613  0.012754670  0.135600348  0.136693497
Length of the computed step             ....  0.129226361
The final length of the internal step   ....  0.129226361
Converting the step to cartesian space:
 Initial RMS(Int)=    0.0281995039
Transforming coordinates:
 Iter   0:  RMS(Cart)=    0.0187143202 RMS(Int)=    1.3713084622
 Iter   1:  RMS(Cart)=    0.0006084800 RMS(Int)=    0.0004233936
 Iter   2:  RMS(Cart)=    0.0000119417 RMS(Int)=    0.0000120016
 Iter   3:  RMS(Cart)=    0.0000002906 RMS(Int)=    0.0000002133
 Iter   4:  RMS(Cart)=    0.0000000123 RMS(Int)=    0.0000000098
done
Storing new coordinates                 .... done

                                .--------------------.
          ----------------------|Geometry convergence|-------------------------
          Item                value                   Tolerance       Converged
          ---------------------------------------------------------------------
          RMS gradient        0.0197578439            0.0001000000      NO
          MAX gradient        0.0592906680            0.0003000000      NO
          RMS step            0.0281995039            0.0020000000      NO
          MAX step            0.0867279479            0.0040000000      NO
          ........................................................
          Max(Bonds)      0.0459      Max(Angles)    3.08
          Max(Dihed)        0.26      Max(Improp)    0.00
          ---------------------------------------------------------------------

The optimization has not yet converged - more geometry cycles are needed


    ---------------------------------------------------------------------------
                         Redundant Internal Coordinates
                            (Angstroem and degrees)

        Definition                    Value    dE/dq     Step     New-Value
    ----------------------------------------------------------------------------
     1. B(C   1,C   0)                1.5013 -0.011086  0.0138    1.5150   
     2. B(H   2,C   0)                1.0904  0.000190 -0.0003    1.0901   
     3. B(H   3,C   0)                1.0904  0.000171 -0.0002    1.0901   
     4. B(H   4,C   0)                1.0856 -0.004192  0.0059    1.0914   
     5. B(O   5,C   1)                1.1985 -0.059222  0.0274    1.2259   
     6. B(O   6,C   1)                1.3399  0.059291 -0.0459    1.2940   
     7. A(C   1,C   0,H   3)          110.53  0.001594   -0.29    110.24   
     8. A(C   1,C   0,H   4)          110.15 -0.009525    1.70    111.85   
     9. A(C   1,C   0,H   2)          110.53  0.001567   -0.28    110.25   
    10. A(H   2,C   0,H   4)          109.26  0.003637   -0.57    108.68   
    11. A(H   3,C   0,H   4)          109.26  0.003630   -0.57    108.68   
    12. A(H   2,C   0,H   3)          107.05 -0.000523   -0.06    106.99   
    13. A(C   0,C   1,O   5)          125.75  0.024399   -3.08    122.67   
    14. A(O   5,C   1,O   6)          122.92 -0.009237    1.04    123.96   
    15. A(C   0,C   1,O   6)          111.33 -0.015162    2.04    113.38   
    16. D(O   5,C   1,C   0,H   3)    120.83 -0.000646    0.17    121.00   
    17. D(O   5,C   1,C   0,H   4)      0.00  0.000017   -0.05     -0.05   
    18. D(O   6,C   1,C   0,H   2)     59.17  0.000661   -0.19     58.97   
    19. D(O   6,C   1,C   0,H   3)    -59.17 -0.000674    0.23    -58.93   
    20. D(O   6,C   1,C   0,H   4)    180.00 -0.000011    0.02    180.02   
    21. D(O   5,C   1,C   0,H   2)   -120.83  0.000689   -0.26   -121.10   
    ----------------------------------------------------------------------------

         *************************************************************
         *                GEOMETRY OPTIMIZATION CYCLE   2            *
         *************************************************************
---------------------------------
CARTESIAN COORDINATES (ANGSTROEM)
---------------------------------
  C      0.626173   -1.308174    0.000084
  C     -0.101629    0.020595    0.000344
  H      1.270182   -1.385756    0.876173
  H      1.269894   -1.385477   -0.876274
  H     -0.067138   -2.151134    0.000073
  O     -1.324610    0.105231   -0.000325
  O      0.693509    1.041474   -0.000075

----------------------------
CARTESIAN COORDINATES (A.U.)
----------------------------
  NO LB      ZA    FRAG     MASS         X           Y           Z
   0 C     6.0000    0    12.011    1.183295   -2.472091    0.000160
   1 C     6.0000    0    12.011   -0.192050    0.038920    0.000650
   2 H     1.0000    0     1.008    2.400296   -2.618699    1.655727
   3 H     1.0000    0     1.008    2.399752   -2.618172   -1.655918
   4 H     1.0000    0     1.008   -0.126873   -4.065053    0.000138
   5 O     8.0000    0    15.999   -2.503151    0.198858   -0.000615
   6 O     8.0000    0    15.999    1.310543    1.968101   -0.000141

--------------------------------
INTERNAL COORDINATES (ANGSTROEM)
--------------------------------
 C      0   0   0     0.000000000000     0.00000000     0.00000000
 C      1   0   0     1.515032688437     0.00000000     0.00000000
 H      1   2   0     1.090090606119   110.24821249     0.00000000
 H      1   2   3     1.090117993789   110.24303275   242.09753046
 H      1   2   3     1.091449022912   111.85296521   121.05036215
 O      2   1   3     1.225906848843   122.66945771   238.90292239
 O      2   1   3     1.294000750783   113.37515324    58.97078573

---------------------------
INTERNAL COORDINATES (A.U.)
---------------------------
 C      0   0   0     0.000000000000     0.00000000     0.00000000
 C      1   0   0     2.862996865084     0.00000000     0.00000000
 H      1   2   0     2.059972706726   110.24821249     0.00000000
 H      1   2   3     2.060024461921   110.24303275   242.09753046
 H      1   2   3     2.062539742440   111.85296521   121.05036215
 O      2   1   3     2.316628210011   122.66945771   238.90292239
 O      2   1   3     2.445307036068   113.37515324    58.97078573



           ************************************************************
           *        Program running with 4 parallel MPI-processes     *
           *              working on a common directory               *
           ************************************************************
 One Electron integrals                  ... done
 Pre-screening matrix                    ... done


           ************************************************************
           *        Program running with 4 parallel MPI-processes     *
           *              working on a common directory               *
           ************************************************************

Diagonalization of the overlap matrix:
Smallest eigenvalue                        ... 7.788e-03
Time for diagonalization                   ...    0.001 sec
Threshold for overlap eigenvalues          ... 1.000e-08
Number of eigenvalues below threshold      ... 0
Time for construction of square roots      ...    0.000 sec
Total time needed                          ...    0.002 sec

-------------------
DFT GRID GENERATION
-------------------

General Integration Accuracy     IntAcc      ...  4.340
Radial Grid Type                 RadialGrid  ... Gauss-Chebyshev
Angular Grid (max. acc.)         AngularGrid ... Lebedev-194
Angular grid pruning method      GridPruning ... 3 (G Style)
Weight generation scheme         WeightScheme... Becke
Basis function cutoff            BFCut       ...    1.0000e-11
Integration weight cutoff        WCut        ...    1.0000e-14
Grids for H and He will be reduced by one unit

# of grid points (after initial pruning)     ...  17854 (   0.0 sec)
# of grid points (after weights+screening)   ...  17248 (   0.0 sec)
nearest neighbour list constructed           ...    0.0 sec
Grid point re-assignment to atoms done       ...    0.0 sec
Grid point division into batches done        ...    0.0 sec
Reduced shell lists constructed in    0.1 sec

Total number of grid points                  ...    17248
Total number of batches                      ...      274
Average number of points per batch           ...       62
Average number of grid points per atom       ...     2464
Average number of shells per batch           ...    25.94 (76.30%)
Average number of basis functions per batch  ...    54.11 (81.99%)
Average number of large shells per batch     ...    23.44 (90.36%)
Average number of large basis fcns per batch ...    49.96 (92.32%)
Maximum spatial batch extension              ...  16.28, 19.38, 16.72 au
Average spatial batch extension              ...   0.64,  0.72,  0.69 au

Time for grid setup =    0.096 sec


------------------------------------------------------------------------------
                           CPCM SOLVATION MODEL                               
------------------------------------------------------------------------------
CPCM parameters:
  Epsilon                                         ...      78.3550
  Refrac                                          ...       1.3300
  Rsolv                                           ...       1.3000
  Surface type                                    ...    GEPOL SES
  Epsilon function type                           ...         CPCM
Solvent:                                     ... WATER
SMD-CDS solvent descriptors:
  Soln                                       ...    1.3328
  Soln25                                     ...    1.3323
  Sola                                       ...    0.0000
  Solb                                       ...    0.0000
  Solg                                       ...    0.0000
  Solc                                       ...    0.0000
  Solh                                       ...    0.0000
Radii:
 Radius for C  used is    3.4960 Bohr (=   1.8500 Ang.)
 Radius for H  used is    2.2677 Bohr (=   1.2000 Ang.)
 Radius for O  used is    2.8724 Bohr (=   1.5200 Ang.)
Calculating surface                               ...        done! (  0.0s)
GEPOL surface points                              ...          266
GEPOL Volume                                      ...     386.3481
GEPOL Surface-area                                ...     285.6373
Calculating surface distance matrix               ...        done! (  0.0s)
Performing Cholesky decomposition & store         ...        done! (  0.0s)
Overall time for CPCM initialization              ...                 0.0s
--------------
SCF ITERATIONS
--------------
ITER       Energy         Delta-E        Max-DP      RMS-DP      [F,P]     Damp
               ***  Starting incremental Fock matrix formation  ***
  0   -228.1544358741   0.000000000000 0.00693873  0.00039957  0.0223286 0.7000
                      *** Initiating the SOSCF procedure ***
                      *** Re-Reading the Fockian *** 
                      *** Removing any level shift *** 
ITER      Energy       Delta-E        Grad      Rot      Max-DP    RMS-DP
  1   -228.15525593  -0.0008200546  0.003184  0.003184  0.017899  0.001142
               *** Restarting incremental Fock matrix formation ***
  2   -228.15728806  -0.0020321276  0.004605  0.011648  0.011383  0.000519
  3   -228.15726520   0.0000228610  0.004865  0.003864  0.005688  0.000288
  4   -228.15745765  -0.0001924527  0.000183  0.000511  0.000408  0.000029
  5   -228.15745825  -0.0000005973  0.000102  0.000234  0.000250  0.000015
  6   -228.15745838  -0.0000001299  0.000034  0.000044  0.000057  0.000004
  7   -228.15745840  -0.0000000204  0.000012  0.000010  0.000030  0.000002
  8   -228.15745840  -0.0000000026  0.000005  0.000006  0.000012  0.000001
                 **** Energy Check signals convergence ****
              ***Rediagonalizing the Fockian in SOSCF/NRSCF***

               *****************************************************
               *                     SUCCESS                       *
               *           SCF CONVERGED AFTER   9 CYCLES          *
               *****************************************************


SMD CDS free energy correction energy :                 3.80100     Kcal/mol
Total Energy after SMD CDS correction =              -228.151401121 Eh
Total Energy       :         -228.15140112 Eh           -6208.31525 eV
  Last Energy change         ...   -1.0101e-09  Tolerance :   1.0000e-08
  Last MAX-Density change    ...    8.1768e-07  Tolerance :   1.0000e-07
             **** THE GBW FILE WAS UPDATED (acetate@water.gbw) ****
             **** DENSITY FILE WAS UPDATED (acetate@water.scfp.tmp) ****
             **** ENERGY FILE WAS UPDATED (acetate@water.en.tmp) ****
Total SCF time: 0 days 0 hours 0 min 5 sec 


-------------------------------------------------------------------------------
                          DFT DISPERSION CORRECTION                            
                                                                               
                              DFTD3 V3.1  Rev 1                                
                          USING Becke-Johnson damping                          
-------------------------------------------------------------------------------
-------------------------   ----------------
Dispersion correction           -0.002003039
-------------------------   ----------------

------------------   -----------------
gCP correction             0.011266294
------------------   -----------------

-------------------------   --------------------
FINAL SINGLE POINT ENERGY      -228.142137866065
-------------------------   --------------------



           ************************************************************
           *        Program running with 4 parallel MPI-processes     *
           *              working on a common directory               *
           ************************************************************
------------------------------------------------------------------------------
                         ORCA SCF GRADIENT CALCULATION
------------------------------------------------------------------------------

Gradient of the Kohn-Sham DFT energy:
Kohn-Sham wavefunction type      ... RKS
Hartree-Fock exchange scaling    ...    0.420
Number of operators              ...    1
Number of atoms                  ...    7
Basis set dimensions             ...   66
Integral neglect threshold       ... 2.5e-11
Integral primitive cutoff        ... 2.5e-12

Nuclear repulsion gradient       ... done
One Electron Gradient            ... done
Pre-screening matrix             ... done
Starting the two electron gradient:
Will do only exchange terms
Two electron gradient done
RI-J gradient                    ... done
Exchange-correlation gradient    ... done
Dispersion correction            ... done
gCP correction                   ... done

------------------
CARTESIAN GRADIENT
------------------

   1   C   :    0.010094345    0.006923256   -0.000045690
   2   C   :   -0.053210529   -0.042027105    0.000174973
   3   H   :   -0.000129057    0.000363807   -0.000631813
   4   H   :   -0.000122764    0.000328683    0.000632938
   5   H   :   -0.002656192    0.001403513   -0.000000045
   6   O   :    0.024395910    0.007672756    0.000027363
   7   O   :    0.021628286    0.025335091   -0.000157726

Difference to translation invariance:
           :    0.0000000000    0.0000000000   -0.0000000000

Norm of the cartesian gradient     ...    0.0807545781
RMS gradient                       ...    0.0176220937
MAX gradient                       ...    0.0532105288

-------
TIMINGS
-------

Total SCF gradient time            ...        1.149 sec

One electron gradient       ....       0.007 sec  (  0.6%)
Prescreening matrices       ....       0.018 sec  (  1.5%)
Two electron gradient       ....       0.357 sec  ( 31.1%)
RI-J Coulomb gradient       ....       0.149 sec  ( 13.0%)
XC gradient                 ....       0.208 sec  ( 18.1%)
CPCM gradient               ....       0.100 sec  (  8.7%)
   A-Matrix (El+Nuc)        ....       0.003 sec  (  0.3%)
   Potential                ....       0.097 sec  (  8.4%)
------------------------------------------------------------------------------
                         ORCA GEOMETRY RELAXATION STEP
------------------------------------------------------------------------------

Reading the OPT-File                    .... done
Getting information on internals        .... done
Copying old internal coords+grads       .... done
Making the new internal coordinates     .... (new redundants).... done
Validating the new internal coordinates .... (new redundants).... done
Calculating the B-matrix                .... done
Calculating the G,G- and P matrices     .... done
Transforming gradient to internals      .... done
Projecting the internal gradient        .... done
Number of atoms                         ....   7
Number of internal coordinates          ....  21
Current Energy                          ....  -228.142137866 Eh
Current gradient norm                   ....     0.080754578 Eh/bohr
Maximum allowed component of the step   ....  0.300
Current trust radius                    ....  0.300
Updating the Hessian (BFGS)             .... done
Forming the augmented Hessian           .... done
Diagonalizing the augmented Hessian     .... done
Last element of RFO vector              ....  0.988894782
Lowest eigenvalues of augmented Hessian:
 -0.006505134  0.012754635  0.012759514  0.135600346  0.136545301
Length of the computed step             ....  0.150286288
The final length of the internal step   ....  0.150286288
Converting the step to cartesian space:
 Initial RMS(Int)=    0.0327951568
Transforming coordinates:
 Iter   0:  RMS(Cart)=    0.0234697619 RMS(Int)=    1.3695927360
 Iter   1:  RMS(Cart)=    0.0009910886 RMS(Int)=    0.0007402207
 Iter   2:  RMS(Cart)=    0.0000249520 RMS(Int)=    0.0000285416
 Iter   3:  RMS(Cart)=    0.0000013375 RMS(Int)=    0.0000009602
 Iter   4:  RMS(Cart)=    0.0000000480 RMS(Int)=    0.0000000486
done
Storing new coordinates                 .... done

                                .--------------------.
          ----------------------|Geometry convergence|-------------------------
          Item                value                   Tolerance       Converged
          ---------------------------------------------------------------------
          Energy change      -0.0083240026            0.0000050000      NO
          RMS gradient        0.0099823425            0.0001000000      NO
          MAX gradient        0.0332743155            0.0003000000      NO
          RMS step            0.0327951568            0.0020000000      NO
          MAX step            0.1030833528            0.0040000000      NO
          ........................................................
          Max(Bonds)      0.0545      Max(Angles)    4.15
          Max(Dihed)        0.69      Max(Improp)    0.00
          ---------------------------------------------------------------------

The optimization has not yet converged - more geometry cycles are needed


    ---------------------------------------------------------------------------
                         Redundant Internal Coordinates
                            (Angstroem and degrees)

        Definition                    Value    dE/dq     Step     New-Value
    ----------------------------------------------------------------------------
     1. B(C   1,C   0)                1.5150 -0.004458  0.0117    1.5268   
     2. B(H   2,C   0)                1.0901 -0.000610  0.0018    1.0919   
     3. B(H   3,C   0)                1.0901 -0.000601  0.0018    1.0919   
     4. B(H   4,C   0)                1.0914  0.000601 -0.0017    1.0898   
     5. B(O   5,C   1)                1.2259 -0.023805  0.0237    1.2496   
     6. B(O   6,C   1)                1.2940  0.033274 -0.0545    1.2395   
     7. A(C   1,C   0,H   3)          110.24  0.000584   -0.22    110.02   
     8. A(C   1,C   0,H   4)          111.85 -0.004260    1.61    113.46   
     9. A(C   1,C   0,H   2)          110.25  0.000536   -0.20    110.04   
    10. A(H   2,C   0,H   4)          108.68  0.001709   -0.57    108.12   
    11. A(H   3,C   0,H   4)          108.68  0.001688   -0.56    108.12   
    12. A(H   2,C   0,H   3)          106.99 -0.000039   -0.13    106.85   
    13. A(C   0,C   1,O   5)          122.67  0.015624   -4.15    118.52   
    14. A(O   5,C   1,O   6)          123.96 -0.005993    1.42    125.38   
    15. A(C   0,C   1,O   6)          113.38 -0.009632    2.73    116.11   
    16. D(O   5,C   1,C   0,H   3)    121.00 -0.000332    0.32    121.32   
    17. D(O   5,C   1,C   0,H   4)     -0.05 -0.000016    0.11      0.06   
    18. D(O   6,C   1,C   0,H   2)     58.97  0.000396   -0.69     58.28   
    19. D(O   6,C   1,C   0,H   3)    -58.93 -0.000243   -0.26    -59.19   
    20. D(O   6,C   1,C   0,H   4)   -179.98  0.000073   -0.47   -180.45   
    21. D(O   5,C   1,C   0,H   2)   -121.10  0.000307   -0.10   -121.20   
    ----------------------------------------------------------------------------

         *************************************************************
         *                GEOMETRY OPTIMIZATION CYCLE   3            *
         *************************************************************
---------------------------------
CARTESIAN COORDINATES (ANGSTROEM)
---------------------------------
  C      0.622867   -1.306201   -0.000439
  C     -0.071485    0.053523   -0.002666
  H      1.267797   -1.395570    0.876107
  H      1.266400   -1.398703   -0.877688
  H     -0.070195   -2.147171    0.001695
  O     -1.320677    0.085434   -0.000643
  O      0.671674    1.045448    0.003632

----------------------------
CARTESIAN COORDINATES (A.U.)
----------------------------
  NO LB      ZA    FRAG     MASS         X           Y           Z
   0 C     6.0000    0    12.011    1.177048   -2.468363   -0.000829
   1 C     6.0000    0    12.011   -0.135088    0.101144   -0.005038
   2 H     1.0000    0     1.008    2.395789   -2.637246    1.655603
   3 H     1.0000    0     1.008    2.393149   -2.643165   -1.658589
   4 H     1.0000    0     1.008   -0.132650   -4.057565    0.003204
   5 O     8.0000    0    15.999   -2.495718    0.161447   -0.001215
   6 O     8.0000    0    15.999    1.269281    1.975610    0.006864

--------------------------------
INTERNAL COORDINATES (ANGSTROEM)
--------------------------------
 C      0   0   0     0.000000000000     0.00000000     0.00000000
 C      1   0   0     1.526755067957     0.00000000     0.00000000
 H      1   2   0     1.091904255013   110.04048064     0.00000000
 H      1   2   3     1.091905235824   110.01789861   242.52680795
 H      1   2   3     1.089756566114   113.45597349   121.26706484
 O      2   1   3     1.249600931507   118.51451312   238.79785796
 O      2   1   3     1.239451390158   116.10678794    58.28170385

---------------------------
INTERNAL COORDINATES (A.U.)
---------------------------
 C      0   0   0     0.000000000000     0.00000000     0.00000000
 C      1   0   0     2.885148952015     0.00000000     0.00000000
 H      1   2   0     2.063400006438   110.04048064     0.00000000
 H      1   2   3     2.063401859902   110.01789861   242.52680795
 H      1   2   3     2.059341462597   113.45597349   121.26706484
 O      2   1   3     2.361403537241   118.51451312   238.79785796
 O      2   1   3     2.342223683706   116.10678794    58.28170385



           ************************************************************
           *        Program running with 4 parallel MPI-processes     *
           *              working on a common directory               *
           ************************************************************
 One Electron integrals                  ... done
 Pre-screening matrix                    ... done


           ************************************************************
           *        Program running with 4 parallel MPI-processes     *
           *              working on a common directory               *
           ************************************************************

Diagonalization of the overlap matrix:
Smallest eigenvalue                        ... 8.007e-03
Time for diagonalization                   ...    0.001 sec
Threshold for overlap eigenvalues          ... 1.000e-08
Number of eigenvalues below threshold      ... 0
Time for construction of square roots      ...    0.000 sec
Total time needed                          ...    0.002 sec

-------------------
DFT GRID GENERATION
-------------------

General Integration Accuracy     IntAcc      ...  4.340
Radial Grid Type                 RadialGrid  ... Gauss-Chebyshev
Angular Grid (max. acc.)         AngularGrid ... Lebedev-194
Angular grid pruning method      GridPruning ... 3 (G Style)
Weight generation scheme         WeightScheme... Becke
Basis function cutoff            BFCut       ...    1.0000e-11
Integration weight cutoff        WCut        ...    1.0000e-14
Grids for H and He will be reduced by one unit

# of grid points (after initial pruning)     ...  17854 (   0.0 sec)
# of grid points (after weights+screening)   ...  17239 (   0.0 sec)
nearest neighbour list constructed           ...    0.0 sec
Grid point re-assignment to atoms done       ...    0.0 sec
Grid point division into batches done        ...    0.1 sec
Reduced shell lists constructed in    0.1 sec

Total number of grid points                  ...    17239
Total number of batches                      ...      273
Average number of points per batch           ...       63
Average number of grid points per atom       ...     2463
Average number of shells per batch           ...    25.97 (76.39%)
Average number of basis functions per batch  ...    54.06 (81.90%)
Average number of large shells per batch     ...    23.51 (90.54%)
Average number of large basis fcns per batch ...    50.11 (92.71%)
Maximum spatial batch extension              ...  16.38, 18.21, 16.72 au
Average spatial batch extension              ...   0.64,  0.70,  0.69 au

Time for grid setup =    0.099 sec


------------------------------------------------------------------------------
                           CPCM SOLVATION MODEL                               
------------------------------------------------------------------------------
CPCM parameters:
  Epsilon                                         ...      78.3550
  Refrac                                          ...       1.3300
  Rsolv                                           ...       1.3000
  Surface type                                    ...    GEPOL SES
  Epsilon function type                           ...         CPCM
Solvent:                                     ... WATER
SMD-CDS solvent descriptors:
  Soln                                       ...    1.3328
  Soln25                                     ...    1.3323
  Sola                                       ...    0.0000
  Solb                                       ...    0.0000
  Solg                                       ...    0.0000
  Solc                                       ...    0.0000
  Solh                                       ...    0.0000
Radii:
 Radius for C  used is    3.4960 Bohr (=   1.8500 Ang.)
 Radius for H  used is    2.2677 Bohr (=   1.2000 Ang.)
 Radius for O  used is    2.8724 Bohr (=   1.5200 Ang.)
Calculating surface                               ...        done! (  0.0s)
GEPOL surface points                              ...          265
GEPOL Volume                                      ...     385.6454
GEPOL Surface-area                                ...     284.9392
Calculating surface distance matrix               ...        done! (  0.0s)
Performing Cholesky decomposition & store         ...        done! (  0.0s)
Overall time for CPCM initialization              ...                 0.0s
--------------
SCF ITERATIONS
--------------
ITER       Energy         Delta-E        Max-DP      RMS-DP      [F,P]     Damp
               ***  Starting incremental Fock matrix formation  ***
  0   -228.1558893352   0.000000000000 0.00918405  0.00046816  0.0277263 0.7000
                      *** Initiating the SOSCF procedure ***
                      *** Re-Reading the Fockian *** 
                      *** Removing any level shift *** 
ITER      Energy       Delta-E        Grad      Rot      Max-DP    RMS-DP
  1   -228.15706584  -0.0011765035  0.002869  0.002869  0.023894  0.001349
               *** Restarting incremental Fock matrix formation ***
  2   -228.16000749  -0.0029416546  0.005059  0.012452  0.012976  0.000606
  3   -228.15999677   0.0000107257  0.005342  0.004389  0.006395  0.000325
  4   -228.16023704  -0.0002402732  0.000256  0.000508  0.000723  0.000039
  5   -228.16023777  -0.0000007301  0.000212  0.000119  0.000291  0.000018
  6   -228.16023817  -0.0000004015  0.000039  0.000049  0.000094  0.000005
  7   -228.16023818  -0.0000000087  0.000036  0.000025  0.000047  0.000002
                  ***Gradient check signals convergence***
              ***Rediagonalizing the Fockian in SOSCF/NRSCF***

               *****************************************************
               *                     SUCCESS                       *
               *           SCF CONVERGED AFTER   8 CYCLES          *
               *****************************************************


SMD CDS free energy correction energy :                 3.93300     Kcal/mol
Total Energy after SMD CDS correction =              -228.153970561 Eh
Total Energy       :         -228.15397056 Eh           -6208.38517 eV
  Last Energy change         ...   -1.3244e-08  Tolerance :   1.0000e-08
  Last MAX-Density change    ...    6.4211e-06  Tolerance :   1.0000e-07
             **** THE GBW FILE WAS UPDATED (acetate@water.gbw) ****
             **** DENSITY FILE WAS UPDATED (acetate@water.scfp.tmp) ****
             **** ENERGY FILE WAS UPDATED (acetate@water.en.tmp) ****
Total SCF time: 0 days 0 hours 0 min 5 sec 


-------------------------------------------------------------------------------
                          DFT DISPERSION CORRECTION                            
                                                                               
                              DFTD3 V3.1  Rev 1                                
                          USING Becke-Johnson damping                          
-------------------------------------------------------------------------------
-------------------------   ----------------
Dispersion correction           -0.002003509
-------------------------   ----------------

------------------   -----------------
gCP correction             0.011214102
------------------   -----------------

-------------------------   --------------------
FINAL SINGLE POINT ENERGY      -228.144759967285
-------------------------   --------------------



           ************************************************************
           *        Program running with 4 parallel MPI-processes     *
           *              working on a common directory               *
           ************************************************************
------------------------------------------------------------------------------
                         ORCA SCF GRADIENT CALCULATION
------------------------------------------------------------------------------

Gradient of the Kohn-Sham DFT energy:
Kohn-Sham wavefunction type      ... RKS
Hartree-Fock exchange scaling    ...    0.420
Number of operators              ...    1
Number of atoms                  ...    7
Basis set dimensions             ...   66
Integral neglect threshold       ... 2.5e-11
Integral primitive cutoff        ... 2.5e-12

Nuclear repulsion gradient       ... done
One Electron Gradient            ... done
Pre-screening matrix             ... done
Starting the two electron gradient:
Will do only exchange terms
Two electron gradient done
RI-J gradient                    ... done
Exchange-correlation gradient    ... done
Dispersion correction            ... done
gCP correction                   ... done

------------------
CARTESIAN GRADIENT
------------------

   1   C   :    0.001416807    0.001597297    0.000460739
   2   C   :    0.007236143    0.012249838   -0.001681270
   3   H   :   -0.000549419    0.000219129    0.000195048
   4   H   :   -0.000658632    0.000338677   -0.000171207
   5   H   :    0.000095613   -0.000487386    0.000055525
   6   O   :    0.003649003    0.001388628    0.000622943
   7   O   :   -0.011189516   -0.015306184    0.000518222

Difference to translation invariance:
           :    0.0000000000    0.0000000000    0.0000000000

Norm of the cartesian gradient     ...    0.0242202004
RMS gradient                       ...    0.0052852810
MAX gradient                       ...    0.0153061835

-------
TIMINGS
-------

Total SCF gradient time            ...        1.145 sec

One electron gradient       ....       0.007 sec  (  0.6%)
Prescreening matrices       ....       0.020 sec  (  1.8%)
Two electron gradient       ....       0.354 sec  ( 30.9%)
RI-J Coulomb gradient       ....       0.148 sec  ( 12.9%)
XC gradient                 ....       0.208 sec  ( 18.2%)
CPCM gradient               ....       0.096 sec  (  8.4%)
   A-Matrix (El+Nuc)        ....       0.003 sec  (  0.3%)
   Potential                ....       0.093 sec  (  8.1%)
------------------------------------------------------------------------------
                         ORCA GEOMETRY RELAXATION STEP
------------------------------------------------------------------------------

Reading the OPT-File                    .... done
Getting information on internals        .... done
Copying old internal coords+grads       .... done
Making the new internal coordinates     .... (new redundants).... done
Validating the new internal coordinates .... (new redundants).... done
Calculating the B-matrix                .... done
Calculating the G,G- and P matrices     .... done
Transforming gradient to internals      .... done
Projecting the internal gradient        .... done
Number of atoms                         ....   7
Number of internal coordinates          ....  21
Current Energy                          ....  -228.144759967 Eh
Current gradient norm                   ....     0.024220200 Eh/bohr
Maximum allowed component of the step   ....  0.300
Current trust radius                    ....  0.300
Updating the Hessian (BFGS)             .... done
Forming the augmented Hessian           .... done
Diagonalizing the augmented Hessian     .... done
Last element of RFO vector              ....  0.997541747
Lowest eigenvalues of augmented Hessian:
 -0.000609026  0.012753396  0.012854206  0.135600346  0.136418817
Length of the computed step             ....  0.070247385
The final length of the internal step   ....  0.070247385
Converting the step to cartesian space:
 Initial RMS(Int)=    0.0153292361
Transforming coordinates:
 Iter   0:  RMS(Cart)=    0.0109996041 RMS(Int)=    1.3654008973
 Iter   1:  RMS(Cart)=    0.0001853289 RMS(Int)=    0.0001816098
 Iter   2:  RMS(Cart)=    0.0000023703 RMS(Int)=    0.0000021366
 Iter   3:  RMS(Cart)=    0.0000000142 RMS(Int)=    0.0000000122
done
Storing new coordinates                 .... done

                                .--------------------.
          ----------------------|Geometry convergence|-------------------------
          Item                value                   Tolerance       Converged
          ---------------------------------------------------------------------
          Energy change      -0.0026221012            0.0000050000      NO
          RMS gradient        0.0042931745            0.0001000000      NO
          MAX gradient        0.0189488025            0.0003000000      NO
          RMS step            0.0153292361            0.0020000000      NO
          MAX step            0.0277566667            0.0040000000      NO
          ........................................................
          Max(Bonds)      0.0147      Max(Angles)    0.16
          Max(Dihed)        1.56      Max(Improp)    0.00
          ---------------------------------------------------------------------

The optimization has not yet converged - more geometry cycles are needed


    ---------------------------------------------------------------------------
                         Redundant Internal Coordinates
                            (Angstroem and degrees)

        Definition                    Value    dE/dq     Step     New-Value
    ----------------------------------------------------------------------------
     1. B(C   1,C   0)                1.5268 -0.001346  0.0008    1.5276   
     2. B(H   2,C   0)                1.0919 -0.000190  0.0002    1.0921   
     3. B(H   3,C   0)                1.0919 -0.000281  0.0003    1.0922   
[...]

------------------   -----------------
gCP correction             0.011135523
------------------   -----------------

-------------------------   --------------------
FINAL SINGLE POINT ENERGY      -228.145057950479
-------------------------   --------------------

                                *** OPTIMIZATION RUN DONE ***

                            ***************************************
                            *     ORCA property calculations      *
                            ***************************************

                                    ---------------------
                                    Active property flags
                                    ---------------------
   (+) Dipole Moment


------------------------------------------------------------------------------
                       ORCA ELECTRIC PROPERTIES CALCULATION
------------------------------------------------------------------------------

Dipole Moment Calculation                       ... on
Quadrupole Moment Calculation                   ... off
Polarizability Calculation                      ... off
GBWName                                         ... acetate@water.gbw
Electron density file                           ... acetate@water.scfp.tmp
The origin for moment calculation is the CENTER OF MASS  = (-0.040575, -0.059308 -0.000031)

-------------
DIPOLE MOMENT
-------------
                                X             Y             Z
Electronic contribution:     -1.49259       2.85382       0.00047
Nuclear contribution   :      2.36270      -4.53458      -0.00011
                        -----------------------------------------
Total Dipole Moment    :      0.87011      -1.68076       0.00036
                        -----------------------------------------
Magnitude (a.u.)       :      1.89263
Magnitude (Debye)      :      4.81067


----------------------------------------------------------------------------
                           ORCA NUMERICAL FREQUENCIES
                              (4-process run)
----------------------------------------------------------------------------

Number of atoms                ... 7
Central differences            ... used
Number of displacements        ... 42
Numerical increment            ...  0.005 bohr
IR-spectrum generation         ... on
Raman-spectrum generation      ... off
Surface Crossing Hessian       ... off

The output will be reduced. Please look at the following files:
SCF program output             ... >acetate@water.lastscf
Integral program output        ... >acetate@water.lastint
Gradient program output        ... >acetate@water.lastgrad
Dipole moment program output   ... >acetate@water.lastmom


         <<<Energy and Gradient at the input geometry>>>
             <<<Displacing   1/coordinate 3 (+)>>>
             <<<Displacing   2/coordinate 1 (+)>>>
             <<<Displacing   1/coordinate 2 (+)>>>
             <<<Displacing   1/coordinate 1 (+)>>>
             <<<Displacing   1/coordinate 1 (-)>>>
             <<<Displacing   2/coordinate 1 (-)>>>
             <<<Displacing   1/coordinate 2 (-)>>>
             <<<Displacing   1/coordinate 3 (-)>>>
             <<<Displacing   2/coordinate 2 (+)>>>
             <<<Displacing   2/coordinate 3 (+)>>>
             <<<Displacing   3/coordinate 1 (+)>>>
             <<<Displacing   3/coordinate 2 (+)>>>
             <<<Displacing   3/coordinate 2 (-)>>>
             <<<Displacing   2/coordinate 3 (-)>>>
             <<<Displacing   3/coordinate 1 (-)>>>
             <<<Displacing   2/coordinate 2 (-)>>>
             <<<Displacing   3/coordinate 3 (+)>>>
             <<<Displacing   4/coordinate 1 (+)>>>
             <<<Displacing   4/coordinate 2 (+)>>>
             <<<Displacing   4/coordinate 3 (+)>>>
             <<<Displacing   3/coordinate 3 (-)>>>
             <<<Displacing   4/coordinate 1 (-)>>>
             <<<Displacing   4/coordinate 2 (-)>>>
             <<<Displacing   4/coordinate 3 (-)>>>
             <<<Displacing   5/coordinate 1 (+)>>>
             <<<Displacing   5/coordinate 2 (+)>>>
             <<<Displacing   5/coordinate 3 (+)>>>
             <<<Displacing   6/coordinate 1 (+)>>>
             <<<Displacing   5/coordinate 3 (-)>>>
             <<<Displacing   5/coordinate 2 (-)>>>
             <<<Displacing   5/coordinate 1 (-)>>>
             <<<Displacing   6/coordinate 2 (+)>>>
             <<<Displacing   6/coordinate 1 (-)>>>
             <<<Displacing   6/coordinate 3 (+)>>>
             <<<Displacing   7/coordinate 1 (+)>>>
             <<<Displacing   6/coordinate 2 (-)>>>
             <<<Displacing   7/coordinate 2 (+)>>>
             <<<Displacing   6/coordinate 3 (-)>>>
             <<<Displacing   7/coordinate 1 (-)>>>
             <<<Displacing   7/coordinate 3 (+)>>>
             <<<Displacing   7/coordinate 2 (-)>>>
             <<<Displacing   7/coordinate 3 (-)>>>

-----------------------
VIBRATIONAL FREQUENCIES
-----------------------

   0:         0.00 cm**-1
   1:         0.00 cm**-1
   2:         0.00 cm**-1
   3:         0.00 cm**-1
   4:         0.00 cm**-1
   5:         0.00 cm**-1
   6:       108.04 cm**-1
   7:       469.82 cm**-1
   8:       660.52 cm**-1
   9:       666.73 cm**-1
  10:       942.96 cm**-1
  11:      1062.00 cm**-1
  12:      1092.49 cm**-1
  13:      1406.78 cm**-1
  14:      1478.37 cm**-1
  15:      1512.90 cm**-1
  16:      1525.30 cm**-1
  17:      1717.22 cm**-1
  18:      3111.99 cm**-1
  19:      3184.69 cm**-1
  20:      3213.69 cm**-1


------------
NORMAL MODES
------------

These modes are the cartesian displacements weighted by the diagonal matrix
M(i,i)=1/sqrt(m[i]) where m[i] is the mass of the displaced atom
Thus, these vectors are normalized but *not* orthogonal

                  0          1          2          3          4          5    
      0       0.000000   0.000000   0.000000   0.000000   0.000000   0.000000
      1       0.000000   0.000000   0.000000   0.000000   0.000000   0.000000
      2       0.000000   0.000000   0.000000   0.000000   0.000000   0.000000
      3       0.000000   0.000000   0.000000   0.000000   0.000000   0.000000
      4       0.000000   0.000000   0.000000   0.000000   0.000000   0.000000
      5       0.000000   0.000000   0.000000   0.000000   0.000000   0.000000
      6       0.000000   0.000000   0.000000   0.000000   0.000000   0.000000
      7       0.000000   0.000000   0.000000   0.000000   0.000000   0.000000
      8       0.000000   0.000000   0.000000   0.000000   0.000000   0.000000
      9       0.000000   0.000000   0.000000   0.000000   0.000000   0.000000
     10       0.000000   0.000000   0.000000   0.000000   0.000000   0.000000
     11       0.000000   0.000000   0.000000   0.000000   0.000000   0.000000
     12       0.000000   0.000000   0.000000   0.000000   0.000000   0.000000
     13       0.000000   0.000000   0.000000   0.000000   0.000000   0.000000
     14       0.000000   0.000000   0.000000   0.000000   0.000000   0.000000
     15       0.000000   0.000000   0.000000   0.000000   0.000000   0.000000
     16       0.000000   0.000000   0.000000   0.000000   0.000000   0.000000
     17       0.000000   0.000000   0.000000   0.000000   0.000000   0.000000
     18       0.000000   0.000000   0.000000   0.000000   0.000000   0.000000
     19       0.000000   0.000000   0.000000   0.000000   0.000000   0.000000
     20       0.000000   0.000000   0.000000   0.000000   0.000000   0.000000
                  6          7          8          9         10         11    
      0       0.000279  -0.168740  -0.020078   0.200337  -0.170335   0.145543
      1       0.000086  -0.096656   0.036264  -0.357104   0.280164   0.091054
      2      -0.008535  -0.000714   0.035374   0.009795   0.000714   0.000110
      3      -0.000123   0.136971  -0.005678   0.043731   0.150189  -0.003379
      4      -0.000160   0.065115   0.010975  -0.106671  -0.295794  -0.010586
      5      -0.023755   0.000824   0.291680   0.077483  -0.000530   0.000541
      6      -0.471142  -0.220372   0.177934   0.253083  -0.173107  -0.032031
      7      -0.176290  -0.422461  -0.499450  -0.524704   0.447501  -0.423611
      8       0.328095   0.004544  -0.175297  -0.046847   0.006642   0.074427
      9       0.474250  -0.218986  -0.218337   0.145562  -0.176682  -0.034642
     10       0.178185  -0.413430   0.582525  -0.236019   0.452107  -0.420596
     11       0.324605  -0.004883  -0.174968  -0.047169  -0.008920  -0.073969
     12      -0.000673  -0.577782  -0.018894   0.211086  -0.170456  -0.472386
     13      -0.000835   0.250552   0.034391  -0.373341   0.302575   0.607987
     14      -0.521141  -0.004750  -0.398667  -0.105471  -0.001523  -0.000654
     15      -0.000409   0.141577  -0.006666   0.066157   0.305511  -0.049588
     16       0.000264  -0.159241  -0.031495   0.311150   0.098608   0.021893
     17       0.057550   0.000398  -0.090669  -0.023467   0.001256  -0.000233
     18       0.000139  -0.053643   0.029738  -0.287802  -0.257608  -0.023177
     19      -0.000276   0.219798  -0.011371   0.108473  -0.162616  -0.067420
     20      -0.041598  -0.000160  -0.107677  -0.029487  -0.001155  -0.000244
                 12         13         14         15         16         17    
      0      -0.000324  -0.070635  -0.077129   0.006458   0.000386   0.046719
      1       0.000267   0.102777   0.037246   0.101031   0.001128   0.015162
      2      -0.172470   0.000241   0.000375  -0.001020   0.053839  -0.000253
      3      -0.000517  -0.032206   0.122533   0.036208  -0.000400  -0.678891
      4      -0.000127   0.084399  -0.219218  -0.141062  -0.001145  -0.308079
      5       0.232618  -0.000297   0.001023  -0.000348   0.022988  -0.002066
      6      -0.348276   0.263151   0.493652  -0.414447   0.175131   0.191840
      7       0.493764  -0.473757  -0.006318  -0.307129   0.447717  -0.107460
      8       0.152952  -0.289497  -0.422850   0.259714  -0.046517  -0.128700
      9       0.348179   0.264760   0.494905  -0.410236  -0.187270   0.193852
     10      -0.496290  -0.471471  -0.011939  -0.292031  -0.455210  -0.100385
     11       0.150876   0.288501   0.419013  -0.254972  -0.052190   0.127319
     12       0.000621   0.369002  -0.171896   0.463334   0.003905  -0.281670
     13       0.001169  -0.282195   0.147225  -0.302378  -0.004885   0.269989
     14       0.365417  -0.000610  -0.003776   0.010653  -0.719872   0.004179
     15       0.001022   0.054590  -0.142764  -0.050657   0.000108   0.296093
     16       0.000134  -0.006628   0.023851   0.010770   0.000042   0.007536
     17      -0.045625   0.000270  -0.000710  -0.000184  -0.002312   0.001015
     18      -0.000424  -0.033893   0.057225   0.041393   0.000421   0.171946
     19      -0.000153  -0.056559   0.104635   0.076084   0.000751   0.208452
     20      -0.041695  -0.000127   0.000140   0.000241  -0.003791   0.000549
                  18         19         20    
      0      -0.035542  -0.000083   0.078259
      1       0.039098   0.000237   0.051233
      2       0.000323  -0.091941   0.000092
      3       0.001406   0.000006   0.002430
      4      -0.003172  -0.000040  -0.000205
      5      -0.000001  -0.000400  -0.000009
      6       0.363349   0.427065  -0.187089
      7      -0.043110  -0.055868   0.033050
      8       0.500435   0.557285  -0.271155
      9       0.362125  -0.422898  -0.181720
     10      -0.044388   0.057026   0.033194
     11      -0.505617   0.559566   0.267701
     12      -0.312771  -0.003275  -0.572602
     13      -0.355385  -0.003756  -0.669297
     14       0.001333  -0.015552   0.002388
     15      -0.000472  -0.000004  -0.000847
     16       0.000328   0.000006  -0.000209
     17      -0.000007  -0.000215   0.000007
     18       0.000097   0.000005  -0.000417
     19       0.000605   0.000010  -0.000104
     20       0.000008   0.000153  -0.000002


-----------
IR SPECTRUM
-----------

 Mode    freq (cm**-1)   T**2         TX         TY         TZ
-------------------------------------------------------------------
   6:       108.04    0.730697  ( -0.009178  -0.001969   0.854757)
   7:       469.82    1.913345  ( -0.793543  -1.132967  -0.004544)
   8:       660.52   13.007556  ( -0.501252   1.140508   3.384604)
   9:       666.73   46.035487  (  3.075041  -6.025370   0.523951)
  10:       942.96   40.974902  (  2.812064  -5.750291  -0.036666)
  11:      1062.00    8.324433  (  2.698983   1.019361   0.028759)
  12:      1092.49   24.615389  ( -0.001744   0.094438   4.960491)
  13:      1406.78   10.847560  (  1.364078   2.997740   0.020143)
  14:      1478.37  332.928663  ( 11.552543 -14.123289  -0.010799)
  15:      1512.90  195.488877  (  0.230587 -13.979829  -0.009787)
  16:      1525.30   13.550343  ( -0.084921  -0.170479  -3.676149)
  17:      1717.22  970.765243  (-28.327203 -12.972997  -0.190252)
  18:      3111.99    6.114386  ( -1.468518   1.989181  -0.031630)
  19:      3184.69   17.668601  ( -0.032425   0.034788  -4.203134)
  20:      3213.69   34.871817  (  4.479726   3.847304   0.046135)

The first frequency considered to be a vibration is 6
The total number of vibrations considered is 15


--------------------------
THERMOCHEMISTRY AT 298.15K
--------------------------

Temperature         ... 298.15 K
Pressure            ... 1.00 atm
Total Mass          ... 59.04 AMU

Throughout the following assumptions are being made:
  (1) The electronic state is orbitally nondegenerate
  (2) There are no thermally accessible electronically excited states
  (3) Hindered rotations indicated by low frequency modes are not
      treated as such but are treated as vibrations and this may
      cause some error
  (4) All equations used are the standard statistical mechanics
      equations for an ideal gas
  (5) All vibrations are strictly harmonic

freq.     108.04  E(vib)   ...       0.45 
freq.     469.82  E(vib)   ...       0.16 
freq.     660.52  E(vib)   ...       0.08 
freq.     666.73  E(vib)   ...       0.08 
freq.     942.96  E(vib)   ...       0.03 
freq.    1062.00  E(vib)   ...       0.02 
freq.    1092.49  E(vib)   ...       0.02 
freq.    1406.78  E(vib)   ...       0.00 
freq.    1478.37  E(vib)   ...       0.00 
freq.    1512.90  E(vib)   ...       0.00 
freq.    1525.30  E(vib)   ...       0.00 
freq.    1717.22  E(vib)   ...       0.00 
freq.    3111.99  E(vib)   ...       0.00 
freq.    3184.69  E(vib)   ...       0.00 
freq.    3213.69  E(vib)   ...       0.00 

------------
INNER ENERGY
------------

The inner energy is: U= E(el) + E(ZPE) + E(vib) + E(rot) + E(trans)
    E(el)   - is the total energy from the electronic structure calculation
              = E(kin-el) + E(nuc-el) + E(el-el) + E(nuc-nuc)
    E(ZPE)  - the the zero temperature vibrational energy from the frequency calculation
    E(vib)  - the the finite temperature correction to E(ZPE) due to population
              of excited vibrational states
    E(rot)  - is the rotational thermal energy
    E(trans)- is the translational thermal energy

Summary of contributions to the inner energy U:
Electronic energy                ...   -228.14505795 Eh
Zero point energy                ...      0.05046934 Eh      31.67 kcal/mol
Thermal vibrational correction   ...      0.00134733 Eh       0.85 kcal/mol
Thermal rotational correction    ...      0.00141627 Eh       0.89 kcal/mol
Thermal translational correction ...      0.00141627 Eh       0.89 kcal/mol
-----------------------------------------------------------------------
Total thermal energy                   -228.09040873 Eh


Summary of corrections to the electronic energy:
(perhaps to be used in another calculation)
Total thermal correction                  0.00417988 Eh       2.62 kcal/mol
Non-thermal (ZPE) correction              0.05046934 Eh      31.67 kcal/mol
-----------------------------------------------------------------------
Total correction                          0.05464922 Eh      34.29 kcal/mol


--------
ENTHALPY
--------

The enthalpy is H = U + kB*T
                kB is Boltzmann's constant
Total free energy                 ...   -228.09040873 Eh 
Thermal Enthalpy correction       ...      0.00094421 Eh       0.59 kcal/mol
-----------------------------------------------------------------------
Total Enthalpy                    ...   -228.08946452 Eh


Vibrational entropy computed according to the QRRHO of S. Grimme
Chem.Eur.J. 2012 18 9955


-------
ENTROPY
-------

The entropy contributions are T*S = T*(S(el)+S(vib)+S(rot)+S(trans)
     S(el)   - electronic entropy
     S(vib)  - vibrational entropy
     S(rot)  - rotational entropy
     S(trans)- translational entropy
The entropies will be listed as mutliplied by the temperature to get
units of energy

Electronic entropy                ...      0.00000000 Eh      0.00 kcal/mol
Vibrational entropy               ...      0.00229847 Eh      1.44 kcal/mol
Rotational entropy                ...      0.01022466 Eh      6.42 kcal/mol
Translational entropy             ...      0.01812503 Eh     11.37 kcal/mol
-----------------------------------------------------------------------
Final entropy term                ...      0.03064816 Eh     19.23 kcal/mol


CAUTION: The rotational entropy is not quite correctly treated here
         because it includes a symmetry number that is not yet correctly
         implemented in ORCA!
For a nonlinear molecule the correct rotational entropy is:
    S(rot) = R*(ln(qrot/sn)+1.5)
    R    = 8.31441 J/mol/K = 1.987191683e-3 kcal/mol/K
    qrot = 33784.1457515
    sn is the rotational symmetry number. We have assumed 3 here
       if it is different for your molecule then you should correct
       the printed rotational entropy by manually evaluating the equation
       as given above

For convenience we print out the resulting values for sn=1 - 12:
 sn= 1  qrot/sn=   33784.1458 T*S(rot)=     7.07 kcal/mol T*S(tot)=    19.88 kcal/mol
 sn= 2  qrot/sn=   16892.0729 T*S(rot)=     6.66 kcal/mol T*S(tot)=    19.47 kcal/mol
 sn= 3  qrot/sn=   11261.3819 T*S(rot)=     6.42 kcal/mol T*S(tot)=    19.23 kcal/mol
 sn= 4  qrot/sn=    8446.0364 T*S(rot)=     6.25 kcal/mol T*S(tot)=    19.06 kcal/mol
 sn= 5  qrot/sn=    6756.8292 T*S(rot)=     6.11 kcal/mol T*S(tot)=    18.93 kcal/mol
 sn= 6  qrot/sn=    5630.6910 T*S(rot)=     6.01 kcal/mol T*S(tot)=    18.82 kcal/mol
 sn= 7  qrot/sn=    4826.3065 T*S(rot)=     5.91 kcal/mol T*S(tot)=    18.73 kcal/mol
 sn= 8  qrot/sn=    4223.0182 T*S(rot)=     5.83 kcal/mol T*S(tot)=    18.65 kcal/mol
 sn= 9  qrot/sn=    3753.7940 T*S(rot)=     5.77 kcal/mol T*S(tot)=    18.58 kcal/mol
 sn=10  qrot/sn=    3378.4146 T*S(rot)=     5.70 kcal/mol T*S(tot)=    18.52 kcal/mol
 sn=11  qrot/sn=    3071.2860 T*S(rot)=     5.65 kcal/mol T*S(tot)=    18.46 kcal/mol
 sn=12  qrot/sn=    2815.3455 T*S(rot)=     5.59 kcal/mol T*S(tot)=    18.41 kcal/mol


-------------------
GIBBS FREE ENTHALPY
-------------------

The Gibbs free enthalpy is G = H - T*S

Total enthalpy                    ...   -228.08946452 Eh 
Total entropy correction          ...     -0.03064816 Eh    -19.23 kcal/mol
-----------------------------------------------------------------------
Final Gibbs free enthalpy         ...   -228.12011268 Eh

For completeness - the Gibbs free enthalpy minus the electronic energy
G-E(el)                           ...      0.02494527 Eh     15.65 kcal/mol


Total Time for Numerical Frequencies  :       130.849 sec

Timings for individual modules:

Sum of individual times         ...       61.631 sec (=   1.027 min)
GTO integral calculation        ...        4.009 sec (=   0.067 min)   6.5 %
SCF iterations                  ...       46.364 sec (=   0.773 min)  75.2 %
SCF Gradient evaluation         ...       11.134 sec (=   0.186 min)  18.1 %
Geometry relaxation             ...        0.123 sec (=   0.002 min)   0.2 %
                             ****ORCA TERMINATED NORMALLY****
TOTAL RUN TIME: 0 days 0 hours 3 minutes 10 seconds 312 msec
