(SLURM) JOB ID:         309

                                 *****************
                                 * O   R   C   A *
                                 *****************

           --- An Ab Initio, DFT and Semiempirical electronic structure package ---

                  #######################################################
                  #                        -***-                        #
                  #          Department of theory and spectroscopy      #
                  #               Directorship: Frank Neese             #
                  #        Max Planck Institute fuer Kohlenforschung    #
                  #                Kaiser Wilhelm Platz 1               #
                  #                 D-45470 Muelheim/Ruhr               #
                  #                      Germany                        #
                  #                                                     #
                  #                  All rights reserved                #
                  #                        -***-                        #
                  #######################################################


                         Program Version 4.2.1 -  RELEASE  -


 With contributions from (in alphabetic order):
   Daniel Aravena         : Magnetic Suceptibility
   Michael Atanasov       : Ab Initio Ligand Field Theory (pilot matlab implementation)
   Alexander A. Auer      : GIAO ZORA, VPT2
   Ute Becker             : Parallelization
   Giovanni Bistoni       : ED, misc. LED, open-shell LED, HFLD
   Martin Brehm           : Molecular dynamics
   Dmytro Bykov           : SCF Hessian
   Vijay G. Chilkuri      : MRCI spin determinant printing, contributions to CSF-ICE
   Dipayan Datta          : RHF DLPNO-CCSD density
   Achintya Kumar Dutta   : EOM-CC, STEOM-CC
   Dmitry Ganyushin       : Spin-Orbit,Spin-Spin,Magnetic field MRCI
   Miquel Garcia          : C-PCM Hessian, Gaussian charge scheme
   Yang Guo               : DLPNO-NEVPT2, CIM, IAO-localization
   Andreas Hansen         : Spin unrestricted coupled pair/coupled cluster methods
   Benjamin Helmich-Paris : CASSCF linear response (MC-RPA)
   Lee Huntington         : MR-EOM, pCC
   Robert Izsak           : Overlap fitted RIJCOSX, COSX-SCS-MP3, EOM
   Christian Kollmar      : KDIIS, OOCD, Brueckner-CCSD(T), CCSD density
   Simone Kossmann        : Meta GGA functionals, TD-DFT gradient, OOMP2, MP2 Hessian
   Martin Krupicka        : AUTO-CI
   Lucas Lang             : DCDCAS
   Dagmar Lenk            : GEPOL surface, SMD
   Dimitrios Liakos       : Extrapolation schemes; Compound Job, initial MDCI parallelization
   Dimitrios Manganas     : Further ROCIS development; embedding schemes
   Dimitrios Pantazis     : SARC Basis sets
   Taras Petrenko         : DFT Hessian,TD-DFT gradient, ASA, ECA, R-Raman, ABS, FL, XAS/XES, NRVS
   Peter Pinski           : DLPNO-MP2, DLPNO-MP2 Gradient
   Christoph Reimann      : Effective Core Potentials
   Marius Retegan         : Local ZFS, SOC
   Christoph Riplinger    : Optimizer, TS searches, QM/MM, DLPNO-CCSD(T), (RO)-DLPNO pert. Triples
   Tobias Risthaus        : Range-separated hybrids, TD-DFT gradient, RPA, STAB
   Michael Roemelt        : Original ROCIS implementation
   Masaaki Saitow         : Open-shell DLPNO-CCSD energy and density
   Barbara Sandhoefer     : DKH picture change effects
   Avijit Sen             : IP-ROCIS
   Kantharuban Sivalingam : CASSCF convergence, NEVPT2, FIC-MRCI
   Bernardo de Souza      : ESD, SOC TD-DFT
   Georgi Stoychev        : AutoAux, RI-MP2 NMR
   Willem Van den Heuvel  : Paramagnetic NMR
   Boris Wezisla          : Elementary symmetry handling
   Frank Wennmohs         : Technical directorship


 We gratefully acknowledge several colleagues who have allowed us to
 interface, adapt or use parts of their codes:
   Stefan Grimme, W. Hujo, H. Kruse,             : VdW corrections, initial TS optimization,
                  C. Bannwarth                     DFT functionals, gCP, sTDA/sTD-DF
   Ed Valeev, F. Pavosevic, A. Kumar             : LibInt (2-el integral package), F12 methods
   Garnet Chan, S. Sharma, J. Yang, R. Olivares  : DMRG
   Ulf Ekstrom                                   : XCFun DFT Library
   Mihaly Kallay                                 : mrcc  (arbitrary order and MRCC methods)
   Andreas Klamt, Michael Diedenhofen            : otool_cosmo (COSMO solvation model)
   Jiri Pittner, Ondrej Demel                    : Mk-CCSD
   Frank Weinhold                                : gennbo (NPA and NBO analysis)
   Christopher J. Cramer and Donald G. Truhlar   : smd solvation model
   Lars Goerigk                                  : TD-DFT with DH, B97 family of functionals
   V. Asgeirsson, H. Jonsson                     : NEB implementation
   FAccTs GmbH                                   : IRC, NEB, NEB-TS, Multilevel, MM, QM/MM, CI optimization
   S Lehtola, MJT Oliveira, MAL Marques          : LibXC Library


 Your calculation uses the libint2 library for the computation of 2-el integrals
 For citations please refer to: http://libint.valeyev.net

 Your ORCA version has been built with support for libXC version: 4.2.3
 For citations please refer to: https://tddft.org/programs/libxc/

 This ORCA versions uses:
   CBLAS   interface :  Fast vector & matrix operations
   LAPACKE interface :  Fast linear algebra routines
   SCALAPACK package :  Parallel linear algebra routines




***************************************
The coordinates will be read from file: init.xyz
***************************************


Your calculation utilizes the SMD solvation module
Please cite in your paper:
A.V. Marenich, C.J. Cramer, D.G. Truhlar J. Phys. Chem. B, 113, (2009), 6378 

Your calculation utilizes the semiempirical GFN2-xTB method
Please cite in your paper:
C. Bannwarth, Ehlert S., S. Grimme,  J. Chem. Theory Comput., 15, (2019), 1652.
   

----- Orbital basis set information -----
Your calculation utilizes the basis: def2-SVP
   F. Weigend and R. Ahlrichs, Phys. Chem. Chem. Phys. 7, 3297 (2005).

================================================================================
                                        WARNINGS
                       Please study these warnings very carefully!
================================================================================

WARNING: Gradients needed for Numerical Frequencies
  ===> : Setting RunTyp to EnGrad

WARNING: The environment variable RSH_COMMAND is not set!
  ===> : All Displacements for the Numerical Hessian calculation
         will be started on localhost

WARNING: Found dipole moment calculation with XTB calculation
  ===> : Switching off dipole moment calculation


INFO   : the flag for use of LIBINT has been found!

================================================================================
                                       INPUT FILE
================================================================================
NAME = /tmp/slurm-scratch/freq.309/freq.inp
|  1> ! XTB2 NumFreq
|  2> %maxcore 1450
|  3> 
|  4> * xyzfile 0 1 init.xyz
|  5> 
|  6> %cpcm
|  7>  smd true
|  8>  smdsolvent "ch2cl2"
|  9> end
| 10> %pal nprocs 8 end
| 11> 
| 12>                          ****END OF INPUT****
================================================================================

                     *******************************
                     * Energy+Gradient Calculation *
                     *******************************

      -----------------------------------------------------------      
     |                   =====================                   |     
     |                           x T B                           |     
     |                   =====================                   |     
     |                         S. Grimme                         |     
     |          Mulliken Center for Theoretical Chemistry        |     
     |                    University of Bonn                     |     
      -----------------------------------------------------------      

   * xtb version 6.3.0 (preview) compiled by 'ehlert@majestix' on 2020-01-15

   This program is distributed in the hope that it will be useful,
   but WITHOUT ANY WARRANTY; without even the implied warranty of
   MERCHANTABILITY or FITNESS FOR A PARTICULAR PURPOSE.
   
   FOR NON-COMMERCIAL, ACADEMIA USE ONLY.
   
   Cite this work as:
   * S. Grimme, C. Bannwarth, P. Shushkov, J. Chem. Theory Comput., 2017,
     13, 1989-2009. DOI: 10.1021/acs.jctc.7b00118
   * C. Bannwarth, S. Ehlert and S. Grimme., J. Chem. Theory Comput., 2019,
     15, 1652-1671. DOI: 10.1021/acs.jctc.8b01176
   * P. Pracht, E. Caldeweyher, S. Ehlert, S. Grimme, ChemRxiv, 2019, preprint.
     DOI: 10.26434/chemrxiv.8326202.v1
   * S. Grimme, S. Spicher unpublished
   
   for DFT-D4:
   * E. Caldeweyher, C. Bannwarth and S. Grimme, J. Chem. Phys., 2017,
     147, 034112. DOI: 10.1063/1.4993215
   * E. Caldeweyher, S. Ehlert, A. Hansen, H. Neugebauer, S. Spicher,
     C. Bannwarth and S. Grimme, J. Chem. Phys., 2019, 150, 154122.
     DOI: 10.1063/1.5090222
   
   for sTDA-xTB:
   * S. Grimme and C. Bannwarth, J. Chem. Phys., 2016, 145, 054103.
     DOI: 10.1063/1.4959605
   
   in the mass-spec context:
   * V. Asgeirsson, C. Bauer and S. Grimme, Chem. Sci., 2017, 8, 4879.
     DOI: 10.1039/c7sc00601b
   
   for metadynamics refer to:
   * S. Grimme, J. Chem. Theory Comput., 2019, 155, 2847-2862
     DOI: 10.1021/acs.jctc.9b00143
   
   with help from (in alphabetical order)
   C. Bannwarth, F. Bohle, G. Brandenburg, E. Caldeweyher, M. Checinski,
   S. Dohm, S. Ehlert, S. Ehrlich, F. März, H. Neugebauer, J. Pisarek,
   P. Pracht, P. Shushkov, and S. Spicher.
   
 * started run on 2020/11/17 at 07:47:48.466     

           -------------------------------------------------
          |                Calculation Setup                |
           -------------------------------------------------

          program call               : /opt/orca/otool_xtb /tmp/slurm-scratch/freq.309/freq_XTB.xyz --grad -c 0 -u 0 -P 8 --namespace /tmp/slurm-scratch/freq.309/freq --gbsa CH2Cl2
          hostname                   : headnode-pbs
          calculation namespace      : /tmp/slurm-scratch/freq.309/freq
          coordinate file            : /tmp/slurm-scratch/freq.309/freq_XTB.xyz
          omp threads                :                     8
          number of atoms            :                    46
          number of electrons        :                   104
          charge                     :                     0
          spin                       :                   0.0
          first test random number   :      0.12207573111003


molecular fragmentation (1/2 indicates fragments):
1111111112222222111222222112222222222222222222
# atoms in fragment 1/2:    14    32
 fragment masses (1/2) :      106.12      146.27
CMA distance (Bohr)    :   9.318
constraining FC (au)   :  0.0500

########################################################################
# WARNING! Please study the warnings concerning your input carefully
#  - Process number higher than OMP_NUM_THREADS, I hope you know what you are doing.
########################################################################

           ------------------------------------------------- 
          |                 G F N 2 - x T B                 |
          | Geometry, Frequencies, Noncovalent interactions |
          |            JCTC 2019 parametrisation            |
           ------------------------------------------------- 
             k(s)              :                1.8500
             k(p)              :                2.2300
             k(d)              :                2.2300
             k(f)              :                2.0000
             kEN (H0ij)        :               -2.0000
             D4 a1             :                0.5200
             D4 a2             :                5.0000
             D4 s6             :                1.0000
             D4 s8             :                2.7000
             D4 s9             :                5.0000
             alphaj            :                2.0000

  Z AO/shell   Hii/eV     exponent
  1     Wed Apr 25 08:07:45 CEST 2018   EN: 2.200 GM2: 0.406  GM3: 0.0800  RAES: 1.40
     1s    -10.707211    1.230000
  6     Wed Apr 25 08:07:45 CEST 2018   EN: 2.550 GM2: 0.538  GM3: 0.1500  RAES: 3.00
     2s    -13.970922    2.096432
     2p    -10.063292    1.800000
  7     Wed Apr 25 08:07:45 CEST 2018   EN: 3.040 GM2: 0.461  GM3:-0.0640  RAES: 1.90
     2s    -16.686243    2.339881
     2p    -12.523956    2.014332
  8     Wed Apr 25 08:07:45 CEST 2018   EN: 3.440 GM2: 0.452  GM3:-0.0517  RAES: 1.80
     2s    -20.229985    2.439742
     2p    -15.503117    2.137023

 Solvent             : CH2Cl2
 Using internal parameter file: .param_gbsa2_CH2Cl2
 Gsolv ref. state (COSMO-RS): gsolv [1 M gas/solution]
 temperature (mdtemp)       :    298.150000000000     
 dielectric constant        :    8.93000000000000     
 rho                        :    1.33000000000000     
 mass                       :    84.9300000000000     
 surface tension            :    15.5689454083859     
 probe radius               :   0.719875900000000     
 Gshift (Eh)                :   4.440829173451759E-003
 c1                         :    1.49173776000000     
 soset                      :   0.000000000000000E+000
 HB correction              :  F
           ------------------------------------------------- 
          |        Self-Consistent Charge Iterations        |
           ------------------------------------------------- 

          ...................................................
          :                      SETUP                      :
          :.................................................:
          :  # basis functions                 100          :
          :  # atomic orbitals                 100          :
          :  # shells                           64          :
          :  # electrons                       104          :
          :  max. iterations                   250          :
          :  Hamiltonian                  GFN2-xTB          :
          :  GBSA solvation                   true          :
          :  PC potential                    false          :
          :  electronic temp.          300.0000000     K    :
          :  accuracy                    1.0000000          :
          :  -> integral cutoff          0.2500000E+02      :
          :  -> integral neglect         0.1000000E-07      :
          :  -> SCF convergence          0.1000000E-05 Eh   :
          :  -> wf. convergence          0.1000000E-03 e    :
          :  Broyden damping             0.4000000          :
          ...................................................
  Checking positiv definite overlap ...  done.
 

 iter      E             dE          RMSdq      gap      omega  full diag
   1    -56.9868274 -0.569868E+02  0.342E+00    2.37       0.0  T
   2    -57.0762368 -0.894094E-01  0.180E+00    2.16       1.0  T
   3    -57.0781884 -0.195159E-02  0.892E-01    2.26       1.0  T
   4    -57.0822276 -0.403922E-02  0.212E-01    2.06       1.0  T
   5    -57.0831573 -0.929742E-03  0.663E-02    2.08       1.0  T
   6    -57.0831989 -0.415876E-04  0.321E-02    2.09       1.0  T
   7    -57.0832149 -0.159803E-04  0.116E-02    2.09       1.3  T
   8    -57.0832159 -0.968707E-06  0.320E-03    2.09       4.6  T
   9    -57.0832160 -0.106103E-06  0.123E-03    2.09      12.0  T
  10    -57.0832160 -0.164701E-07  0.590E-04    2.09      25.0  T
  11    -57.0832160 -0.345071E-08  0.264E-04    2.09      55.8  T

   *** convergence criteria satisfied after 11 iterations ***

         #    Occupation            Energy/Eh            Energy/eV
      -------------------------------------------------------------
         1        2.0000           -0.7135078             -19.4155
       ...           ...                  ...                  ...
        46        2.0000           -0.4252378             -11.5713
        47        2.0000           -0.4227036             -11.5024
        48        2.0000           -0.4187744             -11.3954
        49        2.0000           -0.4169327             -11.3453
        50        2.0000           -0.4025035             -10.9527
        51        2.0000           -0.3790947             -10.3157
        52        2.0000           -0.3690620             -10.0427 (HOMO)
        53                         -0.2921722              -7.9504 (LUMO)
        54                         -0.2362177              -6.4278
        55                         -0.2028650              -5.5202
        56                         -0.0966949              -2.6312
        57                          0.0176874               0.4813
       ...                                ...                  ...
       100                          0.6483325              17.6420
      -------------------------------------------------------------
                  HL-Gap            0.0768899 Eh            2.0923 eV
             Fermi-level           -0.3306171 Eh           -8.9965 eV

 SCC (total)                   0 d,  0 h,  0 min,  0.061 sec
 SCC setup                      ...        0 min,  0.002 sec (  3.628%)
 Dispersion                     ...        0 min,  0.001 sec (  1.304%)
 integral evaluation            ...        0 min,  0.014 sec ( 22.579%)
 zeroth order Hamiltonian       ...        0 min,  0.000 sec (  0.024%)
 iterations                     ...        0 min,  0.029 sec ( 47.103%)
 molecular gradient             ...        0 min,  0.015 sec ( 24.365%)
 printout                       ...        0 min,  0.001 sec (  0.899%)

         :::::::::::::::::::::::::::::::::::::::::::::::::::::
         ::                     SUMMARY                     ::
         :::::::::::::::::::::::::::::::::::::::::::::::::::::
         :: total energy             -56.281071219866 Eh    ::
         :: total w/o Gsasa/hb       -56.256651400568 Eh    ::
         :: gradient norm              0.027005650742 Eh/a0 ::
         :: HOMO-LUMO gap              2.092280115335 eV    ::
         ::.................................................::
         :: SCC energy               -57.107635796334 Eh    ::
         :: -> isotropic ES            0.060365810007 Eh    ::
         :: -> anisotropic ES          0.007523757990 Eh    ::
         :: -> anisotropic XC          0.038379487604 Eh    ::
         :: -> dispersion             -0.035350647978 Eh    ::
         :: -> Gsolv                  -0.032510527076 Eh    ::
         ::    -> Gborn               -0.008090707778 Eh    ::
         ::    -> Gsasa               -0.028860648471 Eh    ::
         ::    -> Ghb                  0.000000000000 Eh    ::
         ::    -> Gshift               0.004440829173 Eh    ::
         :: repulsion energy           0.826295663245 Eh    ::
         :: add. restraining           0.000000000000 Eh    ::
         :::::::::::::::::::::::::::::::::::::::::::::::::::::

           -------------------------------------------------
          |                Property Printout                |
           -------------------------------------------------

    * Orbital Energies and Occupations

         #    Occupation            Energy/Eh            Energy/eV
      -------------------------------------------------------------
         1        2.0000           -0.7135078             -19.4155
       ...           ...                  ...                  ...
        40        2.0000           -0.4460559             -12.1378
        41        2.0000           -0.4400980             -11.9757
        42        2.0000           -0.4382126             -11.9244
        43        2.0000           -0.4355562             -11.8521
        44        2.0000           -0.4344534             -11.8221
        45        2.0000           -0.4327404             -11.7755
        46        2.0000           -0.4252378             -11.5713
        47        2.0000           -0.4227036             -11.5024
        48        2.0000           -0.4187744             -11.3954
        49        2.0000           -0.4169327             -11.3453
        50        2.0000           -0.4025035             -10.9527
        51        2.0000           -0.3790947             -10.3157
        52        2.0000           -0.3690620             -10.0427 (HOMO)
        53                         -0.2921722              -7.9504 (LUMO)
        54                         -0.2362177              -6.4278
        55                         -0.2028650              -5.5202
        56                         -0.0966949              -2.6312
        57                          0.0176874               0.4813
        58                          0.0373896               1.0174
        59                          0.0730731               1.9884
        60                          0.0874399               2.3794
        61                          0.0932983               2.5388
        62                          0.1043494               2.8395
        63                          0.1120050               3.0478
       ...                                ...                  ...
       100                          0.6483325              17.6420
      -------------------------------------------------------------
                  HL-Gap            0.0768899 Eh            2.0923 eV
             Fermi-level           -0.3306171 Eh           -8.9965 eV

     #   Z        covCN         q      C6AA      α(0)
     1   6 C      2.913    -0.024    28.601     8.770
     2   6 C      2.921    -0.022    28.545     8.761
     3   6 C      2.968    -0.009    28.246     8.718
     4   6 C      2.918    -0.015    28.389     8.737
     5   6 C      2.914    -0.026    28.658     8.778
     6   6 C      2.917    -0.018    28.451     8.747
     7   1 H      0.925     0.054     2.266     2.354
     8   1 H      0.926     0.047     2.355     2.400
     9   1 H      0.925     0.054     2.265     2.354
    10   7 N      2.628    -0.378    29.760     8.102
    11   1 H      0.860     0.163     1.317     1.797
    12   6 C      3.731     0.025    20.250     6.423
    13   1 H      0.923     0.003     3.010     2.713
    14   1 H      0.924     0.029     2.608     2.525
    15   1 H      0.860     0.142     1.457     1.891
    16   1 H      0.860     0.162     1.320     1.800
    17   6 C      2.767     0.213    23.499     7.939
    18   1 H      0.923     0.032     2.564     2.504
    19   8 O      0.856    -0.403    21.750     6.253
    20   6 C      3.802    -0.063    21.712     6.634
    21   1 H      0.924     0.039     2.467     2.456
    22   1 H      0.924     0.034     2.526     2.485
    23   6 C      3.800    -0.053    21.524     6.606
    24   1 H      0.924     0.030     2.589     2.516
    25   1 H      0.924     0.030     2.590     2.517
    26   1 H      0.925     0.050     2.319     2.381
    27   1 H      0.925     0.054     2.267     2.354
    28   1 H      0.860     0.143     1.451     1.887
    29   6 C      3.731     0.017    20.373     6.443
    30   1 H      0.924     0.032     2.562     2.503
    31   1 H      0.924     0.029     2.605     2.524
    32   6 C      3.800    -0.066    21.760     6.642
    33   1 H      0.924     0.029     2.603     2.523
    34   1 H      0.924     0.029     2.600     2.522
    35   6 C      3.799    -0.053    21.535     6.607
    36   1 H      0.924     0.031     2.569     2.507
    37   1 H      0.924     0.030     2.588     2.516
    38   7 N      2.627    -0.381    29.864     8.116
    39   6 C      3.749    -0.101    22.494     6.764
    40   1 H      0.924     0.037     2.492     2.469
    41   1 H      0.924     0.035     2.517     2.481
    42   1 H      0.924     0.034     2.526     2.486
    43   6 C      3.749    -0.102    22.508     6.766
    44   1 H      0.924     0.037     2.495     2.470
    45   1 H      0.924     0.036     2.505     2.475
    46   1 H      0.924     0.036     2.505     2.475

 Mol. C6AA /au·bohr⁶  :      17445.287891
 Mol. C8AA /au·bohr⁸  :     381485.800639
 Mol. α(0) /au        :        202.693013


Wiberg/Mayer (AO) data.
largest (>0.10) Wiberg bond orders for each atom
          total WBO             WBO to atom ...
     1  C   3.991        C    2 1.458    C    6 1.430    H   27 0.969    C    4 0.105
     2  C   3.988        C    1 1.458    C    3 1.370    H    7 0.966    C    5 0.105
     3  C   3.989        C    2 1.370    C    4 1.367    C   17 1.069
     4  C   3.990        C    5 1.462    C    3 1.367    H    8 0.966    C    1 0.105
     5  C   3.991        C    4 1.462    C    6 1.425    H   26 0.969    C    2 0.105
     6  C   3.987        C    1 1.430    C    5 1.425    H    9 0.970
     7  H   0.997        C    2 0.966
     8  H   0.998        C    4 0.966
     9  H   0.997        C    6 0.970
    10  N   3.013        C   12 1.019    H   15 0.966    H   11 0.944
    11  H   0.973        N   10 0.944
    12  C   3.985        N   10 1.019    C   20 1.006    H   14 0.975    H   13 0.970
    13  H   1.000        C   12 0.970
    14  H   0.999        C   12 0.975
    15  H   0.980        N   10 0.966
    16  H   0.974        N   38 0.948
    17  C   3.909        O   19 1.807    C    3 1.069    H   18 0.935
    18  H   0.999        C   17 0.935
    19  O   2.034        C   17 1.807
    20  C   3.996        C   23 1.007    C   12 1.006    H   22 0.976    H   21 0.976
    21  H   0.998        C   20 0.976
    22  H   0.999        C   20 0.976
    23  C   3.997        C   43 1.019    C   20 1.007    H   25 0.978    H   24 0.978
    24  H   0.999        C   23 0.978
    25  H   0.999        C   23 0.978
    26  H   0.997        C    5 0.969
    27  H   0.997        C    1 0.969
    28  H   0.980        N   38 0.966
    29  C   3.983        N   38 1.020    C   32 0.997    H   30 0.975    H   31 0.975
    30  H   0.999        C   29 0.975
    31  H   0.999        C   29 0.975
    32  C   3.997        C   35 1.007    C   29 0.997    H   34 0.977    H   33 0.977
    33  H   0.999        C   32 0.977
    34  H   0.999        C   32 0.977
    35  C   3.997        C   39 1.019    C   32 1.007    H   37 0.978    H   36 0.978
    36  H   0.999        C   35 0.978
    37  H   0.999        C   35 0.978
    38  N   3.013        C   29 1.020    H   28 0.966    H   16 0.948
    39  C   3.996        C   35 1.019    H   42 0.988    H   41 0.988    H   40 0.987
    40  H   0.998        C   39 0.987
    41  H   0.999        C   39 0.988
    42  H   0.999        C   39 0.988
    43  C   3.996        C   23 1.019    H   45 0.988    H   46 0.988    H   44 0.987
    44  H   0.998        C   43 0.987
    45  H   0.999        C   43 0.988
    46  H   0.999        C   43 0.988

molecular dipole:
                 x           y           z       tot (Debye)
 q only:       -0.014       0.616      -1.269
   full:        0.081       0.313      -1.244       3.268
molecular quadrupole (traceless):
                xx          xy          yy          xz          yz          zz
 q only:        2.503      -2.052       2.635      -6.616      -1.315      -5.138
  q+dip:        3.730      -4.206       2.839      -6.787      -1.623      -6.569
   full:        3.416      -2.327       3.812      -5.884      -0.805      -7.228

           -------------------------------------------------
          |                Property Printout                |
           -------------------------------------------------

    * Orbital Energies and Occupations

         #    Occupation            Energy/Eh            Energy/eV
      -------------------------------------------------------------
         1        2.0000           -0.7135078             -19.4155
       ...           ...                  ...                  ...
        40        2.0000           -0.4460559             -12.1378
        41        2.0000           -0.4400980             -11.9757
        42        2.0000           -0.4382126             -11.9244
        43        2.0000           -0.4355562             -11.8521
        44        2.0000           -0.4344534             -11.8221
        45        2.0000           -0.4327404             -11.7755
        46        2.0000           -0.4252378             -11.5713
        47        2.0000           -0.4227036             -11.5024
        48        2.0000           -0.4187744             -11.3954
        49        2.0000           -0.4169327             -11.3453
        50        2.0000           -0.4025035             -10.9527
        51        2.0000           -0.3790947             -10.3157
        52        2.0000           -0.3690620             -10.0427 (HOMO)
        53                         -0.2921722              -7.9504 (LUMO)
        54                         -0.2362177              -6.4278
        55                         -0.2028650              -5.5202
        56                         -0.0966949              -2.6312
        57                          0.0176874               0.4813
        58                          0.0373896               1.0174
        59                          0.0730731               1.9884
        60                          0.0874399               2.3794
        61                          0.0932983               2.5388
        62                          0.1043494               2.8395
        63                          0.1120050               3.0478
       ...                                ...                  ...
       100                          0.6483325              17.6420
      -------------------------------------------------------------
                  HL-Gap            0.0768899 Eh            2.0923 eV
             Fermi-level           -0.3306171 Eh           -8.9965 eV

     #   Z        covCN         q      C6AA      α(0)
     1   6 C      2.913    -0.024    28.601     8.770
     2   6 C      2.921    -0.022    28.545     8.761
     3   6 C      2.968    -0.009    28.246     8.718
     4   6 C      2.918    -0.015    28.389     8.737
     5   6 C      2.914    -0.026    28.658     8.778
     6   6 C      2.917    -0.018    28.451     8.747
     7   1 H      0.925     0.054     2.266     2.354
     8   1 H      0.926     0.047     2.355     2.400
     9   1 H      0.925     0.054     2.265     2.354
    10   7 N      2.628    -0.378    29.760     8.102
    11   1 H      0.860     0.163     1.317     1.797
    12   6 C      3.731     0.025    20.250     6.423
    13   1 H      0.923     0.003     3.010     2.713
    14   1 H      0.924     0.029     2.608     2.525
    15   1 H      0.860     0.142     1.457     1.891
    16   1 H      0.860     0.162     1.320     1.800
    17   6 C      2.767     0.213    23.499     7.939
    18   1 H      0.923     0.032     2.564     2.504
    19   8 O      0.856    -0.403    21.750     6.253
    20   6 C      3.802    -0.063    21.712     6.634
    21   1 H      0.924     0.039     2.467     2.456
    22   1 H      0.924     0.034     2.526     2.485
    23   6 C      3.800    -0.053    21.524     6.606
    24   1 H      0.924     0.030     2.589     2.516
    25   1 H      0.924     0.030     2.590     2.517
    26   1 H      0.925     0.050     2.319     2.381
    27   1 H      0.925     0.054     2.267     2.354
    28   1 H      0.860     0.143     1.451     1.887
    29   6 C      3.731     0.017    20.373     6.443
    30   1 H      0.924     0.032     2.562     2.503
    31   1 H      0.924     0.029     2.605     2.524
    32   6 C      3.800    -0.066    21.760     6.642
    33   1 H      0.924     0.029     2.603     2.523
    34   1 H      0.924     0.029     2.600     2.522
    35   6 C      3.799    -0.053    21.535     6.607
    36   1 H      0.924     0.031     2.569     2.507
    37   1 H      0.924     0.030     2.588     2.516
    38   7 N      2.627    -0.381    29.864     8.116
    39   6 C      3.749    -0.101    22.494     6.764
    40   1 H      0.924     0.037     2.492     2.469
    41   1 H      0.924     0.035     2.517     2.481
    42   1 H      0.924     0.034     2.526     2.486
    43   6 C      3.749    -0.102    22.508     6.766
    44   1 H      0.924     0.037     2.495     2.470
    45   1 H      0.924     0.036     2.505     2.475
    46   1 H      0.924     0.036     2.505     2.475

 Mol. C6AA /au·bohr⁶  :      17445.287891
 Mol. C8AA /au·bohr⁸  :     381485.800639
 Mol. α(0) /au        :        202.693013


Wiberg/Mayer (AO) data.
largest (>0.10) Wiberg bond orders for each atom
          total WBO             WBO to atom ...
     1  C   3.991        C    2 1.458    C    6 1.430    H   27 0.969    C    4 0.105
     2  C   3.988        C    1 1.458    C    3 1.370    H    7 0.966    C    5 0.105
     3  C   3.989        C    2 1.370    C    4 1.367    C   17 1.069
     4  C   3.990        C    5 1.462    C    3 1.367    H    8 0.966    C    1 0.105
     5  C   3.991        C    4 1.462    C    6 1.425    H   26 0.969    C    2 0.105
     6  C   3.987        C    1 1.430    C    5 1.425    H    9 0.970
     7  H   0.997        C    2 0.966
     8  H   0.998        C    4 0.966
     9  H   0.997        C    6 0.970
    10  N   3.013        C   12 1.019    H   15 0.966    H   11 0.944
    11  H   0.973        N   10 0.944
    12  C   3.985        N   10 1.019    C   20 1.006    H   14 0.975    H   13 0.970
    13  H   1.000        C   12 0.970
    14  H   0.999        C   12 0.975
    15  H   0.980        N   10 0.966
    16  H   0.974        N   38 0.948
    17  C   3.909        O   19 1.807    C    3 1.069    H   18 0.935
    18  H   0.999        C   17 0.935
    19  O   2.034        C   17 1.807
    20  C   3.996        C   23 1.007    C   12 1.006    H   22 0.976    H   21 0.976
    21  H   0.998        C   20 0.976
    22  H   0.999        C   20 0.976
    23  C   3.997        C   43 1.019    C   20 1.007    H   25 0.978    H   24 0.978
    24  H   0.999        C   23 0.978
    25  H   0.999        C   23 0.978
    26  H   0.997        C    5 0.969
    27  H   0.997        C    1 0.969
    28  H   0.980        N   38 0.966
    29  C   3.983        N   38 1.020    C   32 0.997    H   30 0.975    H   31 0.975
    30  H   0.999        C   29 0.975
    31  H   0.999        C   29 0.975
    32  C   3.997        C   35 1.007    C   29 0.997    H   34 0.977    H   33 0.977
    33  H   0.999        C   32 0.977
    34  H   0.999        C   32 0.977
    35  C   3.997        C   39 1.019    C   32 1.007    H   37 0.978    H   36 0.978
    36  H   0.999        C   35 0.978
    37  H   0.999        C   35 0.978
    38  N   3.013        C   29 1.020    H   28 0.966    H   16 0.948
    39  C   3.996        C   35 1.019    H   42 0.988    H   41 0.988    H   40 0.987
    40  H   0.998        C   39 0.987
    41  H   0.999        C   39 0.988
    42  H   0.999        C   39 0.988
    43  C   3.996        C   23 1.019    H   45 0.988    H   46 0.988    H   44 0.987
    44  H   0.998        C   43 0.987
    45  H   0.999        C   43 0.988
    46  H   0.999        C   43 0.988

molecular dipole:
                 x           y           z       tot (Debye)
 q only:       -0.014       0.616      -1.269
   full:        0.081       0.313      -1.244       3.268
molecular quadrupole (traceless):
                xx          xy          yy          xz          yz          zz
 q only:        2.503      -2.052       2.635      -6.616      -1.315      -5.138
  q+dip:        3.730      -4.206       2.839      -6.787      -1.623      -6.569
   full:        3.416      -2.327       3.812      -5.884      -0.805      -7.228


           -------------------------------------------------
          | TOTAL ENERGY              -56.281071219866 Eh   |
          | GRADIENT NORM               0.027005650742 Eh/α |
          | HOMO-LUMO GAP               2.092280115335 eV   |
           -------------------------------------------------

------------------------------------------------------------------------
 * finished run on 2020/11/17 at 07:47:48.592     
------------------------------------------------------------------------
 total:
 * wall-time:     0 d,  0 h,  0 min,  0.125 sec
 *  cpu-time:     0 d,  0 h,  0 min,  1.022 sec
 * ratio c/w:     8.163 speedup
 SCF:
 * wall-time:     0 d,  0 h,  0 min,  0.062 sec
 *  cpu-time:     0 d,  0 h,  0 min,  0.536 sec
 * ratio c/w:     8.630 speedup


-------------------------   --------------------
FINAL SINGLE POINT ENERGY       -56.281071219870
-------------------------   --------------------


----------------------------------------------------------------------------
                           ORCA NUMERICAL FREQUENCIES
                              (8-process run)
----------------------------------------------------------------------------

Number of atoms                ... 46
Central differences            ... used
Number of displacements        ... 276
Numerical increment            ... 5.000e-03 bohr
IR-spectrum generation         ... on
Raman-spectrum generation      ... off
Surface Crossing Hessian       ... off
List of participating nodes    ...  /tmp/slurm-scratch/freq.309/freq.hostnames

The output will be reduced. Please look at the following files:
SCF program output             ... >/tmp/slurm-scratch/freq.309/freq.lastscf
Integral program output        ... >/tmp/slurm-scratch/freq.309/freq.lastint
Gradient program output        ... >/tmp/slurm-scratch/freq.309/freq.lastgrad
Dipole moment program output   ... >/tmp/slurm-scratch/freq.309/freq.lastmom
AutoCI program output          ... >/tmp/slurm-scratch/freq.309/freq.lastautoci


         <<< Energy and Gradient at the input geometry >>>

        <<< Energy and Gradient at displaced geometries >>>
             <<<Displacing   2/coordinate 2 (+)>>>
             <<<Displacing   3/coordinate 1 (+)>>>
             <<<Displacing   2/coordinate 2 (-)>>>
             <<<Displacing   3/coordinate 2 (+)>>>
             <<<Displacing   1/coordinate 3 (+)>>>
             <<<Displacing   2/coordinate 3 (+)>>>
             <<<Displacing   3/coordinate 1 (-)>>>
             <<<Displacing   1/coordinate 2 (+)>>>
             <<<Displacing   2/coordinate 1 (+)>>>
             <<<Displacing   3/coordinate 2 (-)>>>
             <<<Displacing   1/coordinate 1 (+)>>>
             <<<Displacing   1/coordinate 3 (-)>>>
             <<<Displacing   1/coordinate 2 (-)>>>
             <<<Displacing   2/coordinate 3 (-)>>>
             <<<Displacing   2/coordinate 1 (-)>>>
             <<<Displacing   1/coordinate 1 (-)>>>
             <<<Displacing   3/coordinate 3 (+)>>>
             <<<Displacing   4/coordinate 1 (+)>>>
             <<<Displacing   4/coordinate 1 (-)>>>
             <<<Displacing   3/coordinate 3 (-)>>>
             <<<Displacing   4/coordinate 2 (+)>>>
             <<<Displacing   4/coordinate 3 (+)>>>
             <<<Displacing   5/coordinate 3 (+)>>>
             <<<Displacing   5/coordinate 2 (+)>>>
             <<<Displacing   5/coordinate 1 (+)>>>
             <<<Displacing   4/coordinate 2 (-)>>>
             <<<Displacing   6/coordinate 1 (+)>>>
             <<<Displacing   4/coordinate 3 (-)>>>
             <<<Displacing   5/coordinate 3 (-)>>>
             <<<Displacing   5/coordinate 2 (-)>>>
             <<<Displacing   5/coordinate 1 (-)>>>
             <<<Displacing   6/coordinate 1 (-)>>>
             <<<Displacing   6/coordinate 2 (+)>>>
             <<<Displacing   6/coordinate 2 (-)>>>
             <<<Displacing   6/coordinate 3 (+)>>>
             <<<Displacing   6/coordinate 3 (-)>>>
             <<<Displacing   7/coordinate 1 (+)>>>
             <<<Displacing   7/coordinate 2 (+)>>>
             <<<Displacing   8/coordinate 1 (+)>>>
             <<<Displacing   7/coordinate 3 (+)>>>
             <<<Displacing   7/coordinate 1 (-)>>>
             <<<Displacing   7/coordinate 2 (-)>>>
             <<<Displacing   8/coordinate 3 (+)>>>
             <<<Displacing   8/coordinate 1 (-)>>>
             <<<Displacing   8/coordinate 2 (+)>>>
             <<<Displacing   7/coordinate 3 (-)>>>
             <<<Displacing   8/coordinate 2 (-)>>>
             <<<Displacing   8/coordinate 3 (-)>>>
             <<<Displacing   9/coordinate 1 (+)>>>
             <<<Displacing   9/coordinate 2 (+)>>>
             <<<Displacing   9/coordinate 1 (-)>>>
             <<<Displacing   9/coordinate 3 (+)>>>
             <<<Displacing   9/coordinate 2 (-)>>>
             <<<Displacing  10/coordinate 1 (+)>>>
             <<<Displacing  10/coordinate 3 (+)>>>
             <<<Displacing   9/coordinate 3 (-)>>>
             <<<Displacing  10/coordinate 2 (+)>>>
             <<<Displacing  10/coordinate 1 (-)>>>
             <<<Displacing  11/coordinate 1 (+)>>>
             <<<Displacing  10/coordinate 3 (-)>>>
             <<<Displacing  10/coordinate 2 (-)>>>
             <<<Displacing  11/coordinate 2 (+)>>>
             <<<Displacing  11/coordinate 1 (-)>>>
             <<<Displacing  11/coordinate 2 (-)>>>
             <<<Displacing  11/coordinate 3 (+)>>>
             <<<Displacing  11/coordinate 3 (-)>>>
             <<<Displacing  12/coordinate 2 (+)>>>
             <<<Displacing  12/coordinate 1 (+)>>>
             <<<Displacing  12/coordinate 2 (-)>>>
             <<<Displacing  12/coordinate 1 (-)>>>
             <<<Displacing  13/coordinate 1 (+)>>>
             <<<Displacing  13/coordinate 2 (+)>>>
             <<<Displacing  12/coordinate 3 (+)>>>
             <<<Displacing  13/coordinate 3 (+)>>>
             <<<Displacing  14/coordinate 1 (+)>>>
             <<<Displacing  13/coordinate 2 (-)>>>
             <<<Displacing  12/coordinate 3 (-)>>>
             <<<Displacing  13/coordinate 1 (-)>>>
             <<<Displacing  13/coordinate 3 (-)>>>
             <<<Displacing  14/coordinate 1 (-)>>>
             <<<Displacing  14/coordinate 2 (+)>>>
             <<<Displacing  14/coordinate 2 (-)>>>
             <<<Displacing  14/coordinate 3 (+)>>>
             <<<Displacing  15/coordinate 1 (+)>>>
             <<<Displacing  14/coordinate 3 (-)>>>
             <<<Displacing  15/coordinate 2 (+)>>>
             <<<Displacing  15/coordinate 1 (-)>>>
             <<<Displacing  15/coordinate 2 (-)>>>
             <<<Displacing  16/coordinate 2 (+)>>>
             <<<Displacing  15/coordinate 3 (+)>>>
             <<<Displacing  16/coordinate 1 (+)>>>
             <<<Displacing  16/coordinate 3 (+)>>>
             <<<Displacing  16/coordinate 2 (-)>>>
             <<<Displacing  16/coordinate 1 (-)>>>
             <<<Displacing  15/coordinate 3 (-)>>>
             <<<Displacing  16/coordinate 3 (-)>>>
             <<<Displacing  17/coordinate 1 (+)>>>
             <<<Displacing  17/coordinate 1 (-)>>>
             <<<Displacing  17/coordinate 2 (+)>>>
             <<<Displacing  17/coordinate 2 (-)>>>
             <<<Displacing  17/coordinate 3 (+)>>>
             <<<Displacing  18/coordinate 1 (+)>>>
             <<<Displacing  18/coordinate 2 (+)>>>
             <<<Displacing  18/coordinate 3 (+)>>>
             <<<Displacing  17/coordinate 3 (-)>>>
             <<<Displacing  18/coordinate 1 (-)>>>
             <<<Displacing  18/coordinate 2 (-)>>>
             <<<Displacing  18/coordinate 3 (-)>>>
             <<<Displacing  19/coordinate 1 (+)>>>
             <<<Displacing  19/coordinate 2 (+)>>>
             <<<Displacing  19/coordinate 1 (-)>>>
             <<<Displacing  19/coordinate 2 (-)>>>
             <<<Displacing  19/coordinate 3 (+)>>>
             <<<Displacing  19/coordinate 3 (-)>>>
             <<<Displacing  20/coordinate 1 (+)>>>
             <<<Displacing  20/coordinate 1 (-)>>>
             <<<Displacing  20/coordinate 3 (+)>>>
             <<<Displacing  20/coordinate 2 (+)>>>
             <<<Displacing  21/coordinate 1 (+)>>>
             <<<Displacing  20/coordinate 3 (-)>>>
             <<<Displacing  21/coordinate 2 (+)>>>
             <<<Displacing  20/coordinate 2 (-)>>>
             <<<Displacing  21/coordinate 1 (-)>>>
             <<<Displacing  22/coordinate 1 (+)>>>
             <<<Displacing  21/coordinate 3 (+)>>>
             <<<Displacing  21/coordinate 2 (-)>>>
             <<<Displacing  22/coordinate 1 (-)>>>
             <<<Displacing  21/coordinate 3 (-)>>>
             <<<Displacing  22/coordinate 2 (+)>>>
             <<<Displacing  22/coordinate 2 (-)>>>
             <<<Displacing  22/coordinate 3 (+)>>>
             <<<Displacing  22/coordinate 3 (-)>>>
             <<<Displacing  23/coordinate 1 (+)>>>
             <<<Displacing  23/coordinate 3 (+)>>>
             <<<Displacing  23/coordinate 2 (+)>>>
             <<<Displacing  24/coordinate 1 (+)>>>
             <<<Displacing  23/coordinate 1 (-)>>>
             <<<Displacing  23/coordinate 3 (-)>>>
             <<<Displacing  23/coordinate 2 (-)>>>
             <<<Displacing  24/coordinate 1 (-)>>>
             <<<Displacing  24/coordinate 2 (+)>>>
             <<<Displacing  24/coordinate 3 (+)>>>
             <<<Displacing  24/coordinate 2 (-)>>>
             <<<Displacing  24/coordinate 3 (-)>>>
             <<<Displacing  25/coordinate 1 (+)>>>
             <<<Displacing  25/coordinate 1 (-)>>>
             <<<Displacing  25/coordinate 2 (+)>>>
             <<<Displacing  25/coordinate 2 (-)>>>
             <<<Displacing  26/coordinate 1 (+)>>>
             <<<Displacing  26/coordinate 2 (+)>>>
             <<<Displacing  25/coordinate 3 (+)>>>
             <<<Displacing  26/coordinate 2 (-)>>>
             <<<Displacing  26/coordinate 1 (-)>>>
             <<<Displacing  25/coordinate 3 (-)>>>
             <<<Displacing  26/coordinate 3 (+)>>>
             <<<Displacing  26/coordinate 3 (-)>>>
             <<<Displacing  27/coordinate 2 (+)>>>
             <<<Displacing  27/coordinate 1 (+)>>>
             <<<Displacing  27/coordinate 2 (-)>>>
             <<<Displacing  27/coordinate 1 (-)>>>
             <<<Displacing  27/coordinate 3 (+)>>>
             <<<Displacing  27/coordinate 3 (-)>>>
             <<<Displacing  28/coordinate 1 (+)>>>
             <<<Displacing  28/coordinate 2 (+)>>>
             <<<Displacing  29/coordinate 1 (+)>>>
             <<<Displacing  28/coordinate 3 (+)>>>
             <<<Displacing  29/coordinate 2 (+)>>>
             <<<Displacing  28/coordinate 1 (-)>>>
             <<<Displacing  28/coordinate 2 (-)>>>
             <<<Displacing  29/coordinate 1 (-)>>>
             <<<Displacing  29/coordinate 2 (-)>>>
             <<<Displacing  28/coordinate 3 (-)>>>
             <<<Displacing  29/coordinate 3 (+)>>>
             <<<Displacing  29/coordinate 3 (-)>>>
             <<<Displacing  30/coordinate 1 (+)>>>
             <<<Displacing  30/coordinate 1 (-)>>>
             <<<Displacing  30/coordinate 2 (+)>>>
             <<<Displacing  30/coordinate 2 (-)>>>
             <<<Displacing  31/coordinate 1 (+)>>>
             <<<Displacing  30/coordinate 3 (+)>>>
             <<<Displacing  31/coordinate 2 (+)>>>
             <<<Displacing  31/coordinate 1 (-)>>>
             <<<Displacing  30/coordinate 3 (-)>>>
             <<<Displacing  32/coordinate 1 (+)>>>
             <<<Displacing  31/coordinate 3 (+)>>>
             <<<Displacing  31/coordinate 2 (-)>>>
             <<<Displacing  32/coordinate 2 (+)>>>
             <<<Displacing  32/coordinate 1 (-)>>>
             <<<Displacing  31/coordinate 3 (-)>>>
             <<<Displacing  32/coordinate 2 (-)>>>
             <<<Displacing  32/coordinate 3 (+)>>>
             <<<Displacing  32/coordinate 3 (-)>>>
             <<<Displacing  33/coordinate 1 (+)>>>
             <<<Displacing  33/coordinate 2 (+)>>>
             <<<Displacing  33/coordinate 3 (+)>>>
             <<<Displacing  33/coordinate 1 (-)>>>
             <<<Displacing  33/coordinate 2 (-)>>>
             <<<Displacing  33/coordinate 3 (-)>>>
             <<<Displacing  34/coordinate 1 (+)>>>
             <<<Displacing  35/coordinate 1 (+)>>>
             <<<Displacing  34/coordinate 2 (+)>>>
             <<<Displacing  34/coordinate 1 (-)>>>
             <<<Displacing  35/coordinate 1 (-)>>>
             <<<Displacing  34/coordinate 2 (-)>>>
             <<<Displacing  34/coordinate 3 (+)>>>
             <<<Displacing  34/coordinate 3 (-)>>>
             <<<Displacing  35/coordinate 2 (+)>>>
             <<<Displacing  35/coordinate 2 (-)>>>
             <<<Displacing  36/coordinate 1 (+)>>>
             <<<Displacing  35/coordinate 3 (+)>>>
             <<<Displacing  36/coordinate 2 (+)>>>
             <<<Displacing  36/coordinate 1 (-)>>>
             <<<Displacing  35/coordinate 3 (-)>>>
             <<<Displacing  36/coordinate 2 (-)>>>
             <<<Displacing  36/coordinate 3 (+)>>>
             <<<Displacing  37/coordinate 2 (+)>>>
             <<<Displacing  37/coordinate 1 (+)>>>
             <<<Displacing  36/coordinate 3 (-)>>>
             <<<Displacing  37/coordinate 3 (+)>>>
             <<<Displacing  37/coordinate 2 (-)>>>
             <<<Displacing  37/coordinate 1 (-)>>>
             <<<Displacing  37/coordinate 3 (-)>>>
             <<<Displacing  38/coordinate 1 (+)>>>
             <<<Displacing  38/coordinate 1 (-)>>>
             <<<Displacing  38/coordinate 2 (+)>>>
             <<<Displacing  39/coordinate 1 (+)>>>
             <<<Displacing  38/coordinate 3 (+)>>>
             <<<Displacing  38/coordinate 2 (-)>>>
             <<<Displacing  39/coordinate 1 (-)>>>
             <<<Displacing  38/coordinate 3 (-)>>>
             <<<Displacing  39/coordinate 2 (+)>>>
             <<<Displacing  40/coordinate 1 (+)>>>
             <<<Displacing  39/coordinate 3 (+)>>>
             <<<Displacing  39/coordinate 2 (-)>>>
             <<<Displacing  40/coordinate 1 (-)>>>
             <<<Displacing  40/coordinate 2 (+)>>>
             <<<Displacing  39/coordinate 3 (-)>>>
             <<<Displacing  40/coordinate 2 (-)>>>
             <<<Displacing  40/coordinate 3 (+)>>>
             <<<Displacing  40/coordinate 3 (-)>>>
             <<<Displacing  41/coordinate 1 (+)>>>
             <<<Displacing  41/coordinate 2 (+)>>>
             <<<Displacing  41/coordinate 3 (+)>>>
             <<<Displacing  41/coordinate 1 (-)>>>
             <<<Displacing  41/coordinate 2 (-)>>>
             <<<Displacing  42/coordinate 1 (+)>>>
             <<<Displacing  41/coordinate 3 (-)>>>
             <<<Displacing  42/coordinate 2 (+)>>>
             <<<Displacing  42/coordinate 1 (-)>>>
             <<<Displacing  42/coordinate 3 (+)>>>
             <<<Displacing  42/coordinate 2 (-)>>>
             <<<Displacing  43/coordinate 1 (+)>>>
             <<<Displacing  42/coordinate 3 (-)>>>
             <<<Displacing  43/coordinate 1 (-)>>>
             <<<Displacing  43/coordinate 2 (+)>>>
             <<<Displacing  43/coordinate 2 (-)>>>
             <<<Displacing  43/coordinate 3 (+)>>>
             <<<Displacing  44/coordinate 2 (+)>>>
             <<<Displacing  44/coordinate 1 (+)>>>
             <<<Displacing  43/coordinate 3 (-)>>>
             <<<Displacing  44/coordinate 2 (-)>>>
             <<<Displacing  44/coordinate 3 (+)>>>
             <<<Displacing  44/coordinate 1 (-)>>>
             <<<Displacing  45/coordinate 1 (+)>>>
             <<<Displacing  45/coordinate 2 (+)>>>
             <<<Displacing  44/coordinate 3 (-)>>>
             <<<Displacing  45/coordinate 1 (-)>>>
             <<<Displacing  45/coordinate 2 (-)>>>
             <<<Displacing  45/coordinate 3 (+)>>>
             <<<Displacing  45/coordinate 3 (-)>>>
             <<<Displacing  46/coordinate 1 (+)>>>
             <<<Displacing  46/coordinate 1 (-)>>>
             <<<Displacing  46/coordinate 2 (+)>>>
             <<<Displacing  46/coordinate 2 (-)>>>
             <<<Displacing  46/coordinate 3 (+)>>>
             <<<Displacing  46/coordinate 3 (-)>>>

-----------------------
VIBRATIONAL FREQUENCIES
-----------------------

Scaling factor for frequencies =  1.000000000 (already applied!)

   0:         0.00 cm**-1
   1:         0.00 cm**-1
   2:         0.00 cm**-1
   3:         0.00 cm**-1
   4:         0.00 cm**-1
   5:         0.00 cm**-1
   6:       -66.18 cm**-1 ***imaginary mode***
   7:        10.62 cm**-1
   8:        25.28 cm**-1
   9:        33.52 cm**-1
  10:        41.05 cm**-1
  11:        47.56 cm**-1
  12:        49.35 cm**-1
  13:        54.73 cm**-1
  14:        68.21 cm**-1
  15:        77.94 cm**-1
  16:        81.99 cm**-1
  17:        86.82 cm**-1
  18:       112.61 cm**-1
  19:       117.51 cm**-1
  20:       128.73 cm**-1
  21:       139.69 cm**-1
  22:       153.23 cm**-1
  23:       202.06 cm**-1
  24:       204.42 cm**-1
  25:       219.43 cm**-1
  26:       263.76 cm**-1
  27:       271.86 cm**-1
  28:       279.30 cm**-1
  29:       320.11 cm**-1
  30:       382.34 cm**-1
  31:       390.99 cm**-1
  32:       393.44 cm**-1
  33:       398.45 cm**-1
  34:       425.37 cm**-1
  35:       432.41 cm**-1
  36:       440.85 cm**-1
  37:       445.34 cm**-1
  38:       587.54 cm**-1
  39:       627.02 cm**-1
  40:       661.32 cm**-1
  41:       745.82 cm**-1
  42:       772.02 cm**-1
  43:       776.28 cm**-1
  44:       819.51 cm**-1
  45:       822.18 cm**-1
  46:       828.31 cm**-1
  47:       879.23 cm**-1
  48:       897.12 cm**-1
  49:       916.12 cm**-1
  50:       920.78 cm**-1
  51:       923.75 cm**-1
  52:       934.36 cm**-1
  53:       935.10 cm**-1
  54:       937.40 cm**-1
  55:       938.55 cm**-1
  56:       973.90 cm**-1
  57:       981.53 cm**-1
  58:       985.49 cm**-1
  59:      1012.12 cm**-1
  60:      1016.23 cm**-1
  61:      1060.80 cm**-1
  62:      1066.44 cm**-1
  63:      1067.17 cm**-1
  64:      1086.49 cm**-1
  65:      1099.63 cm**-1
  66:      1104.18 cm**-1
  67:      1114.50 cm**-1
  68:      1123.68 cm**-1
  69:      1136.17 cm**-1
  70:      1150.19 cm**-1
  71:      1175.93 cm**-1
  72:      1181.21 cm**-1
  73:      1203.07 cm**-1
  74:      1207.62 cm**-1
  75:      1209.06 cm**-1
  76:      1234.66 cm**-1
  77:      1262.38 cm**-1
  78:      1270.04 cm**-1
  79:      1272.78 cm**-1
  80:      1276.23 cm**-1
  81:      1280.05 cm**-1
  82:      1282.15 cm**-1
  83:      1293.30 cm**-1
  84:      1301.92 cm**-1
  85:      1308.81 cm**-1
  86:      1335.53 cm**-1
  87:      1353.58 cm**-1
  88:      1358.36 cm**-1
  89:      1373.76 cm**-1
  90:      1379.81 cm**-1
  91:      1426.61 cm**-1
  92:      1428.54 cm**-1
  93:      1428.72 cm**-1
  94:      1449.14 cm**-1
  95:      1494.90 cm**-1
  96:      1502.71 cm**-1
  97:      1504.65 cm**-1
  98:      1507.43 cm**-1
  99:      1508.07 cm**-1
 100:      1508.39 cm**-1
 101:      1508.90 cm**-1
 102:      1510.01 cm**-1
 103:      1513.00 cm**-1
 104:      1514.16 cm**-1
 105:      1548.79 cm**-1
 106:      1561.38 cm**-1
 107:      1568.12 cm**-1
 108:      1569.41 cm**-1
 109:      1663.81 cm**-1
 110:      2834.53 cm**-1
 111:      2851.07 cm**-1
 112:      2928.50 cm**-1
 113:      2929.33 cm**-1
 114:      2942.14 cm**-1
 115:      2943.97 cm**-1
 116:      2952.45 cm**-1
 117:      2955.14 cm**-1
 118:      2961.11 cm**-1
 119:      2963.68 cm**-1
 120:      2965.48 cm**-1
 121:      2970.50 cm**-1
 122:      2974.59 cm**-1
 123:      2978.18 cm**-1
 124:      2979.09 cm**-1
 125:      2983.76 cm**-1
 126:      2984.29 cm**-1
 127:      2996.26 cm**-1
 128:      2996.53 cm**-1
 129:      3055.79 cm**-1
 130:      3060.21 cm**-1
 131:      3066.36 cm**-1
 132:      3073.05 cm**-1
 133:      3078.45 cm**-1
 134:      3321.78 cm**-1
 135:      3378.36 cm**-1
 136:      3401.64 cm**-1
 137:      3409.48 cm**-1


------------
NORMAL MODES
------------

These modes are the cartesian displacements weighted by the diagonal matrix
M(i,i)=1/sqrt(m[i]) where m[i] is the mass of the displaced atom
Thus, these vectors are normalized but *not* orthogonal

                  0          1          2          3          4          5    
      0       0.000000   0.000000   0.000000   0.000000   0.000000   0.000000
      1       0.000000   0.000000   0.000000   0.000000   0.000000   0.000000
      2       0.000000   0.000000   0.000000   0.000000   0.000000   0.000000
      3       0.000000   0.000000   0.000000   0.000000   0.000000   0.000000
      4       0.000000   0.000000   0.000000   0.000000   0.000000   0.000000
      5       0.000000   0.000000   0.000000   0.000000   0.000000   0.000000
      6       0.000000   0.000000   0.000000   0.000000   0.000000   0.000000
      7       0.000000   0.000000   0.000000   0.000000   0.000000   0.000000
      8       0.000000   0.000000   0.000000   0.000000   0.000000   0.000000
      9       0.000000   0.000000   0.000000   0.000000   0.000000   0.000000
     10       0.000000   0.000000   0.000000   0.000000   0.000000   0.000000
     11       0.000000   0.000000   0.000000   0.000000   0.000000   0.000000
     12       0.000000   0.000000   0.000000   0.000000   0.000000   0.000000
     13       0.000000   0.000000   0.000000   0.000000   0.000000   0.000000
     14       0.000000   0.000000   0.000000   0.000000   0.000000   0.000000
     15       0.000000   0.000000   0.000000   0.000000   0.000000   0.000000
     16       0.000000   0.000000   0.000000   0.000000   0.000000   0.000000
     17       0.000000   0.000000   0.000000   0.000000   0.000000   0.000000
     18       0.000000   0.000000   0.000000   0.000000   0.000000   0.000000
     19       0.000000   0.000000   0.000000   0.000000   0.000000   0.000000
     20       0.000000   0.000000   0.000000   0.000000   0.000000   0.000000
     21       0.000000   0.000000   0.000000   0.000000   0.000000   0.000000
     22       0.000000   0.000000   0.000000   0.000000   0.000000   0.000000
     23       0.000000   0.000000   0.000000   0.000000   0.000000   0.000000
     24       0.000000   0.000000   0.000000   0.000000   0.000000   0.000000
     25       0.000000   0.000000   0.000000   0.000000   0.000000   0.000000
     26       0.000000   0.000000   0.000000   0.000000   0.000000   0.000000
     27       0.000000   0.000000   0.000000   0.000000   0.000000   0.000000
     28       0.000000   0.000000   0.000000   0.000000   0.000000   0.000000
     29       0.000000   0.000000   0.000000   0.000000   0.000000   0.000000
     30       0.000000   0.000000   0.000000   0.000000   0.000000   0.000000
     31       0.000000   0.000000   0.000000   0.000000   0.000000   0.000000
     32       0.000000   0.000000   0.000000   0.000000   0.000000   0.000000
     33       0.000000   0.000000   0.000000   0.000000   0.000000   0.000000
     34       0.000000   0.000000   0.000000   0.000000   0.000000   0.000000
     35       0.000000   0.000000   0.000000   0.000000   0.000000   0.000000
     36       0.000000   0.000000   0.000000   0.000000   0.000000   0.000000
     37       0.000000   0.000000   0.000000   0.000000   0.000000   0.000000
     38       0.000000   0.000000   0.000000   0.000000   0.000000   0.000000
     39       0.000000   0.000000   0.000000   0.000000   0.000000   0.000000
     40       0.000000   0.000000   0.000000   0.000000   0.000000   0.000000
     41       0.000000   0.000000   0.000000   0.000000   0.000000   0.000000
     42       0.000000   0.000000   0.000000   0.000000   0.000000   0.000000
     43       0.000000   0.000000   0.000000   0.000000   0.000000   0.000000
     44       0.000000   0.000000   0.000000   0.000000   0.000000   0.000000
     45       0.000000   0.000000   0.000000   0.000000   0.000000   0.000000
     46       0.000000   0.000000   0.000000   0.000000   0.000000   0.000000
     47       0.000000   0.000000   0.000000   0.000000   0.000000   0.000000
     48       0.000000   0.000000   0.000000   0.000000   0.000000   0.000000
     49       0.000000   0.000000   0.000000   0.000000   0.000000   0.000000
     50       0.000000   0.000000   0.000000   0.000000   0.000000   0.000000
     51       0.000000   0.000000   0.000000   0.000000   0.000000   0.000000
     52       0.000000   0.000000   0.000000   0.000000   0.000000   0.000000
     53       0.000000   0.000000   0.000000   0.000000   0.000000   0.000000
     54       0.000000   0.000000   0.000000   0.000000   0.000000   0.000000
     55       0.000000   0.000000   0.000000   0.000000   0.000000   0.000000
     56       0.000000   0.000000   0.000000   0.000000   0.000000   0.000000
     57       0.000000   0.000000   0.000000   0.000000   0.000000   0.000000
     58       0.000000   0.000000   0.000000   0.000000   0.000000   0.000000
     59       0.000000   0.000000   0.000000   0.000000   0.000000   0.000000
     60       0.000000   0.000000   0.000000   0.000000   0.000000   0.000000
     61       0.000000   0.000000   0.000000   0.000000   0.000000   0.000000
     62       0.000000   0.000000   0.000000   0.000000   0.000000   0.000000
     63       0.000000   0.000000   0.000000   0.000000   0.000000   0.000000
     64       0.000000   0.000000   0.000000   0.000000   0.000000   0.000000
     65       0.000000   0.000000   0.000000   0.000000   0.000000   0.000000
     66       0.000000   0.000000   0.000000   0.000000   0.000000   0.000000
     67       0.000000   0.000000   0.000000   0.000000   0.000000   0.000000
     68       0.000000   0.000000   0.000000   0.000000   0.000000   0.000000
     69       0.000000   0.000000   0.000000   0.000000   0.000000   0.000000
     70       0.000000   0.000000   0.000000   0.000000   0.000000   0.000000
     71       0.000000   0.000000   0.000000   0.000000   0.000000   0.000000
     72       0.000000   0.000000   0.000000   0.000000   0.000000   0.000000
     73       0.000000   0.000000   0.000000   0.000000   0.000000   0.000000
     74       0.000000   0.000000   0.000000   0.000000   0.000000   0.000000
     75       0.000000   0.000000   0.000000   0.000000   0.000000   0.000000
     76       0.000000   0.000000   0.000000   0.000000   0.000000   0.000000
     77       0.000000   0.000000   0.000000   0.000000   0.000000   0.000000
     78       0.000000   0.000000   0.000000   0.000000   0.000000   0.000000
     79       0.000000   0.000000   0.000000   0.000000   0.000000   0.000000
     80       0.000000   0.000000   0.000000   0.000000   0.000000   0.000000
     81       0.000000   0.000000   0.000000   0.000000   0.000000   0.000000
     82       0.000000   0.000000   0.000000   0.000000   0.000000   0.000000
     83       0.000000   0.000000   0.000000   0.000000   0.000000   0.000000
     84       0.000000   0.000000   0.000000   0.000000   0.000000   0.000000
     85       0.000000   0.000000   0.000000   0.000000   0.000000   0.000000
     86       0.000000   0.000000   0.000000   0.000000   0.000000   0.000000
     87       0.000000   0.000000   0.000000   0.000000   0.000000   0.000000
     88       0.000000   0.000000   0.000000   0.000000   0.000000   0.000000
     89       0.000000   0.000000   0.000000   0.000000   0.000000   0.000000
     90       0.000000   0.000000   0.000000   0.000000   0.000000   0.000000
     91       0.000000   0.000000   0.000000   0.000000   0.000000   0.000000
     92       0.000000   0.000000   0.000000   0.000000   0.000000   0.000000
     93       0.000000   0.000000   0.000000   0.000000   0.000000   0.000000
     94       0.000000   0.000000   0.000000   0.000000   0.000000   0.000000
     95       0.000000   0.000000   0.000000   0.000000   0.000000   0.000000
     96       0.000000   0.000000   0.000000   0.000000   0.000000   0.000000
     97       0.000000   0.000000   0.000000   0.000000   0.000000   0.000000
     98       0.000000   0.000000   0.000000   0.000000   0.000000   0.000000
     99       0.000000   0.000000   0.000000   0.000000   0.000000   0.000000
    100       0.000000   0.000000   0.000000   0.000000   0.000000   0.000000
    101       0.000000   0.000000   0.000000   0.000000   0.000000   0.000000
    102       0.000000   0.000000   0.000000   0.000000   0.000000   0.000000
    103       0.000000   0.000000   0.000000   0.000000   0.000000   0.000000
    104       0.000000   0.000000   0.000000   0.000000   0.000000   0.000000
    105       0.000000   0.000000   0.000000   0.000000   0.000000   0.000000
    106       0.000000   0.000000   0.000000   0.000000   0.000000   0.000000
    107       0.000000   0.000000   0.000000   0.000000   0.000000   0.000000
    108       0.000000   0.000000   0.000000   0.000000   0.000000   0.000000
    109       0.000000   0.000000   0.000000   0.000000   0.000000   0.000000
    110       0.000000   0.000000   0.000000   0.000000   0.000000   0.000000
    111       0.000000   0.000000   0.000000   0.000000   0.000000   0.000000
    112       0.000000   0.000000   0.000000   0.000000   0.000000   0.000000
    113       0.000000   0.000000   0.000000   0.000000   0.000000   0.000000
    114       0.000000   0.000000   0.000000   0.000000   0.000000   0.000000
    115       0.000000   0.000000   0.000000   0.000000   0.000000   0.000000
    116       0.000000   0.000000   0.000000   0.000000   0.000000   0.000000
    117       0.000000   0.000000   0.000000   0.000000   0.000000   0.000000
    118       0.000000   0.000000   0.000000   0.000000   0.000000   0.000000
    119       0.000000   0.000000   0.000000   0.000000   0.000000   0.000000
    120       0.000000   0.000000   0.000000   0.000000   0.000000   0.000000
    121       0.000000   0.000000   0.000000   0.000000   0.000000   0.000000
    122       0.000000   0.000000   0.000000   0.000000   0.000000   0.000000
    123       0.000000   0.000000   0.000000   0.000000   0.000000   0.000000
    124       0.000000   0.000000   0.000000   0.000000   0.000000   0.000000
    125       0.000000   0.000000   0.000000   0.000000   0.000000   0.000000
    126       0.000000   0.000000   0.000000   0.000000   0.000000   0.000000
    127       0.000000   0.000000   0.000000   0.000000   0.000000   0.000000
    128       0.000000   0.000000   0.000000   0.000000   0.000000   0.000000
    129       0.000000   0.000000   0.000000   0.000000   0.000000   0.000000
    130       0.000000   0.000000   0.000000   0.000000   0.000000   0.000000
    131       0.000000   0.000000   0.000000   0.000000   0.000000   0.000000
    132       0.000000   0.000000   0.000000   0.000000   0.000000   0.000000
    133       0.000000   0.000000   0.000000   0.000000   0.000000   0.000000
    134       0.000000   0.000000   0.000000   0.000000   0.000000   0.000000
    135       0.000000   0.000000   0.000000   0.000000   0.000000   0.000000
    136       0.000000   0.000000   0.000000   0.000000   0.000000   0.000000
    137       0.000000   0.000000   0.000000   0.000000   0.000000   0.000000
                  6          7          8          9         10         11    
      0      -0.042028   0.019431   0.018418   0.091877  -0.139967   0.046145
      1      -0.005539   0.020795   0.098025  -0.100364  -0.111049   0.070204
      2       0.004009   0.017984  -0.059735  -0.059902   0.048248   0.037710
      3      -0.077243   0.010117   0.013630   0.062102  -0.070953   0.027220
      4      -0.029110   0.010743   0.084992  -0.068588  -0.083520   0.031833
      5      -0.014495   0.011849  -0.064762  -0.062164   0.080160   0.020864
      6      -0.103219  -0.002998   0.007357   0.044704   0.006014   0.003614
      7      -0.045611  -0.005750   0.073088  -0.046347  -0.022926  -0.007216
      8      -0.013771   0.003571  -0.073637  -0.020036   0.085706  -0.006262
      9      -0.085507  -0.004103   0.005464   0.059284   0.006825   0.002053
     10      -0.029441  -0.008493   0.073719  -0.056198   0.003845  -0.003580
     11       0.009751   0.004012  -0.078382   0.023863   0.056585  -0.013849
     12      -0.048439   0.006186   0.010512   0.088760  -0.065220   0.022713
     13      -0.006184   0.003334   0.086745  -0.089306  -0.026689   0.036862
     14       0.028297   0.010944  -0.073168   0.025202   0.023036   0.004245
     15      -0.028488   0.017197   0.017240   0.105081  -0.137692   0.044015
     16       0.003869   0.016861   0.099266  -0.111309  -0.082988   0.073011
     17       0.023660   0.017491  -0.063821  -0.016713   0.019750   0.029502
     18      -0.086328   0.011710   0.014873   0.052047  -0.073408   0.029408
     19      -0.033590   0.013676   0.085162  -0.060004  -0.108291   0.030643
     20      -0.029263   0.012117  -0.061789  -0.094228   0.101829   0.027080
     21      -0.098681  -0.014800  -0.001363   0.051093   0.067195  -0.015829
     22      -0.036263  -0.020494   0.062237  -0.035070   0.051344  -0.033891
     23       0.013026  -0.001030  -0.086193   0.056506   0.060266  -0.033790
     24      -0.002289   0.024141   0.021089   0.128308  -0.191494   0.058789
     25       0.020979   0.024386   0.109424  -0.135717  -0.104410   0.102881
     26       0.037598   0.021991  -0.059757  -0.014770  -0.005301   0.042719
     27       0.298236  -0.067846   0.083042   0.027078   0.061405  -0.009187
     28       0.159904  -0.001770  -0.024732   0.098367  -0.023798   0.013599
     29       0.125429  -0.070086   0.034523   0.113706  -0.095178  -0.067229
     30       0.165525  -0.104335   0.116322   0.009167   0.103560  -0.038232
     31       0.046720  -0.012932   0.006729   0.093918   0.010063  -0.009576
     32       0.051315  -0.132736   0.043010   0.075328  -0.070696  -0.090299
     33       0.076393  -0.036743   0.123178   0.002164   0.080850  -0.030103
     34       0.034052  -0.037534  -0.032800   0.028436  -0.023822  -0.026556
     35      -0.019690  -0.066770   0.050951   0.079723  -0.086836  -0.090334
     36      -0.024495  -0.093995   0.210625   0.032880   0.100847  -0.090560
     37       0.092606  -0.009213  -0.075403   0.016838  -0.034334   0.004770
     38      -0.244376  -0.100042   0.085841   0.020501  -0.069604  -0.151383
     39      -0.025047  -0.011038   0.132957  -0.015196   0.086585  -0.029814
     40      -0.168708  -0.118778   0.061884   0.019209   0.001711  -0.121130
     41       0.075999  -0.101752   0.048134   0.098443  -0.091219  -0.098717
     42       0.375774  -0.095675   0.072643   0.034484   0.063945  -0.005634
     43       0.514698   0.064201  -0.084884   0.170974  -0.091205   0.082653
     44       0.055250  -0.042284   0.043622   0.107287  -0.098338  -0.069842
     45      -0.016331  -0.117540   0.072177  -0.007495   0.125433  -0.053601
     46      -0.016622  -0.004673  -0.001095   0.079856   0.065910  -0.052253
     47       0.006886  -0.053118   0.042431  -0.095241  -0.076657  -0.081255
     48      -0.131603  -0.018575   0.008553   0.014892   0.072072  -0.013188
     49      -0.058051  -0.024504   0.065763  -0.005744  -0.000609  -0.047938
     50      -0.021685  -0.008005  -0.074273  -0.018588   0.113726  -0.022067
     51      -0.098596  -0.011529  -0.000126   0.025359   0.065048  -0.010078
     52      -0.022746  -0.017638   0.054430   0.021712  -0.018574  -0.051100
     53      -0.007545  -0.001996  -0.076115  -0.043598   0.129943  -0.009442
     54      -0.127312  -0.043464   0.024388  -0.005018   0.114976  -0.022958
     55      -0.055426  -0.052808   0.078891   0.005804   0.023824  -0.073209
     56      -0.017858  -0.023500  -0.069732   0.008878   0.111948  -0.044681
     57       0.121410   0.035591   0.038798  -0.040866   0.066067   0.032963
     58       0.067860  -0.006095  -0.108071  -0.024361  -0.038492   0.003841
     59       0.005226   0.025904   0.025159   0.097455  -0.088541  -0.017332
     60       0.184077   0.087583  -0.038404  -0.070068   0.046264   0.084180
     61       0.029425  -0.033307  -0.069360  -0.015073  -0.026422  -0.024285
     62       0.114544   0.050547   0.009688   0.163596  -0.120656   0.025562
     63       0.165844   0.007890   0.036557  -0.018128   0.048717   0.021494
     64       0.183135   0.067381  -0.182991  -0.007436  -0.072104   0.083647
     65      -0.028259   0.062539   0.019118   0.075641  -0.074140   0.003331
     66       0.026479   0.071601   0.061160  -0.076713   0.104804   0.042848
     67      -0.000938  -0.036107  -0.132269  -0.110862  -0.022912  -0.038613
     68      -0.057620   0.034476   0.029096   0.056987  -0.066488  -0.024478
     69       0.002565   0.047123   0.105181  -0.047167   0.111570   0.015070
     70       0.018404  -0.023029  -0.153854  -0.119495  -0.028525  -0.022223
     71      -0.149766   0.017982   0.035165  -0.008844  -0.038292  -0.061313
     72      -0.021110   0.093536   0.067959  -0.100406   0.125388   0.051927
     73      -0.072509  -0.077313  -0.093419  -0.127254  -0.003739  -0.093397
     74      -0.016963   0.006627   0.026697   0.079561  -0.085458  -0.040506
     75      -0.034908   0.004991   0.009147   0.099889  -0.064449   0.021664
     76       0.003404   0.001325   0.086896  -0.097271  -0.005525   0.039589
     77       0.047214   0.010713  -0.076389   0.059310   0.000142  -0.001245
     78      -0.025209   0.028382   0.022931   0.104952  -0.195264   0.062543
     79       0.006217   0.031381   0.107125  -0.115815  -0.154273   0.097819
     80       0.002855   0.022949  -0.052666  -0.090764   0.045143   0.056838
     81       0.046826   0.172763   0.011260  -0.107390  -0.048238  -0.272867
     82      -0.002876   0.043944  -0.043720   0.065800   0.006963  -0.149348
     83       0.016031   0.010207   0.050341  -0.117991  -0.093331  -0.086586
     84       0.015125   0.039396  -0.045269  -0.055918  -0.037228  -0.120107
     85      -0.026505  -0.053820   0.028781   0.101903   0.120107  -0.015321
     86      -0.021346  -0.149773   0.067886  -0.057199  -0.001169   0.109628
     87       0.050607   0.259776  -0.106686  -0.095336  -0.160365  -0.282231
     88      -0.030996  -0.096299   0.048410   0.098798   0.138198  -0.032858
     89      -0.035324  -0.218879   0.078248  -0.032334   0.044159   0.215784
     90      -0.010386  -0.117753  -0.022340  -0.024511   0.035166   0.009764
     91      -0.043397  -0.149092   0.088769   0.124981   0.210579   0.077937
     92      -0.045699  -0.300777   0.076946  -0.028037   0.055480   0.230097
     93       0.001234  -0.041373  -0.073030  -0.034807  -0.029255  -0.025352
     94      -0.007161   0.085099  -0.051293   0.097544   0.028644  -0.039628
     95       0.014207   0.078437   0.057585  -0.095943  -0.078826  -0.062458
     96       0.024785   0.108125  -0.093700  -0.069404  -0.106081  -0.160467
     97       0.006932   0.173750  -0.113605   0.055184  -0.092792  -0.155738
     98       0.036795   0.222131   0.050855  -0.123479  -0.132771  -0.183101
     99      -0.030930  -0.248805  -0.011136   0.011089   0.105863   0.143240
    100      -0.001984   0.124461  -0.070475   0.112156   0.026530  -0.006583
    101       0.025106   0.141992   0.047241  -0.137033  -0.147492  -0.189527
    102      -0.000519  -0.043145  -0.153888  -0.029637  -0.098260   0.026464
    103      -0.013214   0.050858  -0.024641   0.132626   0.102496   0.050492
    104       0.003643   0.022798   0.071781  -0.038744   0.014189   0.099670
    105       0.012630   0.059427  -0.196017  -0.049907  -0.177770  -0.064452
    106      -0.011783   0.047507  -0.011831   0.107977   0.084107  -0.010416
    107      -0.005052  -0.028459   0.079774   0.000320   0.077888   0.218009
    108      -0.010136  -0.116551  -0.145649  -0.013571  -0.060038   0.105606
    109      -0.022301  -0.010474   0.031267   0.168894   0.209048   0.145266
    110      -0.004851  -0.043715   0.065895  -0.030391   0.028545   0.163550
    111       0.019564   0.044839   0.026281  -0.064491   0.016464  -0.170664
    112      -0.019655  -0.028979   0.008173   0.090391   0.085146  -0.072495
    113      -0.009146  -0.109104   0.054856  -0.077956  -0.041918   0.005113
    114      -0.005732  -0.079735  -0.186796  -0.018582  -0.110076   0.091233
    115      -0.009620   0.097168  -0.085918   0.154289   0.065251   0.098578
    116       0.014559   0.114747   0.083509  -0.042376   0.007414   0.026432
    117      -0.007329  -0.086331  -0.235289  -0.009448  -0.143770   0.138043
    118      -0.011339   0.087494  -0.074310   0.168329   0.096036   0.133475
    119       0.011116   0.096339   0.082139  -0.015853   0.043256   0.102444
    120       0.001278  -0.022408  -0.191697  -0.027611  -0.134899   0.034035
    121      -0.005700   0.127032  -0.124809   0.137950   0.002309   0.056283
    122       0.021464   0.172027   0.090797  -0.047467  -0.000582  -0.026487
    123      -0.014735  -0.157167  -0.156962  -0.010412  -0.059520   0.149280
    124      -0.009209   0.110066  -0.102973   0.173299   0.071702   0.142645
    125       0.018775   0.141253   0.086014  -0.066632  -0.025558  -0.050028
    126       0.029558   0.107265   0.018312  -0.119535   0.108250   0.076722
    127      -0.000349  -0.028462  -0.175687  -0.161587  -0.024153  -0.031871
    128      -0.051421   0.097297   0.028782   0.073104  -0.056809   0.035491
    129      -0.005177   0.128996   0.029149  -0.130527   0.125591   0.087271
    130      -0.030123  -0.047712  -0.193216  -0.209916  -0.017941  -0.057961
    131      -0.076198   0.101270   0.028375   0.053518  -0.047089   0.032375
    132       0.043170   0.130415  -0.020753  -0.151943   0.105856   0.101852
    133      -0.012961  -0.040823  -0.157987  -0.152370  -0.021090  -0.046748
    134       0.001277   0.112205   0.029845   0.118839  -0.072879   0.063770
    135       0.052858   0.088065   0.015848  -0.107062   0.095979   0.065452
    136       0.042104   0.008590  -0.206885  -0.159019  -0.033945   0.014131
    137      -0.072407   0.123468   0.027718   0.059401  -0.044200   0.053832
                 12         13         14         15         16         17    
      0       0.062804  -0.022438   0.067404  -0.041682   0.067968   0.001150
      1      -0.064969   0.008200   0.089098  -0.027334   0.076728  -0.007843
      2      -0.074196   0.016611   0.066637   0.002908   0.036039  -0.036995
      3      -0.003925   0.041053   0.081752  -0.035141   0.055001   0.009606
      4       0.002015   0.030911   0.113930  -0.082216   0.060697   0.045392
      5      -0.080641   0.045427   0.078264  -0.009454   0.027358  -0.019426
      6      -0.054006   0.053460   0.001843   0.017700  -0.012019   0.012720
      7       0.031675   0.010010   0.013894  -0.052443  -0.023929   0.075164
      8       0.000283   0.009032   0.026968  -0.019891  -0.016352   0.014228
      9      -0.036743  -0.000893  -0.087993   0.061165  -0.060677   0.004198
     10      -0.009686  -0.036897  -0.106964   0.029915  -0.087549   0.047269
     11       0.086635  -0.058534  -0.034366  -0.018716  -0.052279   0.027782
     12       0.028731  -0.063919  -0.103749   0.057539  -0.052437  -0.005676
     13      -0.078820  -0.058338  -0.133616   0.089383  -0.078704  -0.008369
     14       0.091425  -0.086756  -0.046770  -0.004406  -0.046873   0.009490
     15       0.079116  -0.074492  -0.027070   0.006920   0.011930  -0.007024
     16      -0.105814  -0.035670  -0.036595   0.061242   0.003839  -0.035176
     17       0.011708  -0.049109   0.002988   0.006958  -0.003405  -0.022656
     18      -0.017277   0.080560   0.150050  -0.068774   0.094507   0.015681
     19       0.033401   0.064153   0.208416  -0.148258   0.116227   0.067786
     20      -0.145725   0.095611   0.123954  -0.010195   0.053453  -0.030428
     21      -0.075558   0.006882  -0.142629   0.096282  -0.099820   0.001495
     22       0.013309  -0.055938  -0.178369   0.047779  -0.142639   0.065886
     23       0.148013  -0.088176  -0.071867  -0.027866  -0.084479   0.052879
     24       0.130640  -0.123395  -0.040731   0.005114   0.018674  -0.014829
     25      -0.157916  -0.053229  -0.059626   0.107666   0.011567  -0.077387
     26       0.016505  -0.071386  -0.008001   0.018610   0.001099  -0.036650
     27      -0.045754  -0.016284   0.039829   0.044178   0.015307   0.065606
     28       0.016703   0.168999  -0.022296  -0.069383  -0.126222  -0.114706
     29      -0.119450  -0.050604  -0.006411   0.023715   0.050271   0.069128
     30      -0.021667  -0.052395   0.070121   0.050917   0.018672   0.033477
[...]
  13:        54.73    0.000000  (  0.000000   0.000000   0.000000)
  14:        68.21    0.000000  (  0.000000   0.000000   0.000000)
  15:        77.94    0.000000  (  0.000000   0.000000   0.000000)
  16:        81.99    0.000000  (  0.000000   0.000000   0.000000)
  17:        86.82    0.000000  (  0.000000   0.000000   0.000000)
  18:       112.61    0.000000  (  0.000000   0.000000   0.000000)
  19:       117.51    0.000000  (  0.000000   0.000000   0.000000)
  20:       128.73    0.000000  (  0.000000   0.000000   0.000000)
  21:       139.69    0.000000  (  0.000000   0.000000   0.000000)
  22:       153.23    0.000000  (  0.000000   0.000000   0.000000)
  23:       202.06    0.000000  (  0.000000   0.000000   0.000000)
  24:       204.42    0.000000  (  0.000000   0.000000   0.000000)
  25:       219.43    0.000000  (  0.000000   0.000000   0.000000)
  26:       263.76    0.000000  (  0.000000   0.000000   0.000000)
  27:       271.86    0.000000  (  0.000000   0.000000   0.000000)
  28:       279.30    0.000000  (  0.000000   0.000000   0.000000)
  29:       320.11    0.000000  (  0.000000   0.000000   0.000000)
  30:       382.34    0.000000  (  0.000000   0.000000   0.000000)
  31:       390.99    0.000000  (  0.000000   0.000000   0.000000)
  32:       393.44    0.000000  (  0.000000   0.000000   0.000000)
  33:       398.45    0.000000  (  0.000000   0.000000   0.000000)
  34:       425.37    0.000000  (  0.000000   0.000000   0.000000)
  35:       432.41    0.000000  (  0.000000   0.000000   0.000000)
  36:       440.85    0.000000  (  0.000000   0.000000   0.000000)
  37:       445.34    0.000000  (  0.000000   0.000000   0.000000)
  38:       587.54    0.000000  (  0.000000   0.000000   0.000000)
  39:       627.02    0.000000  (  0.000000   0.000000   0.000000)
  40:       661.32    0.000000  (  0.000000   0.000000   0.000000)
  41:       745.82    0.000000  (  0.000000   0.000000   0.000000)
  42:       772.02    0.000000  (  0.000000   0.000000   0.000000)
  43:       776.28    0.000000  (  0.000000   0.000000   0.000000)
  44:       819.51    0.000000  (  0.000000   0.000000   0.000000)
  45:       822.18    0.000000  (  0.000000   0.000000   0.000000)
  46:       828.31    0.000000  (  0.000000   0.000000   0.000000)
  47:       879.23    0.000000  (  0.000000   0.000000   0.000000)
  48:       897.12    0.000000  (  0.000000   0.000000   0.000000)
  49:       916.12    0.000000  (  0.000000   0.000000   0.000000)
  50:       920.78    0.000000  (  0.000000   0.000000   0.000000)
  51:       923.75    0.000000  (  0.000000   0.000000   0.000000)
  52:       934.36    0.000000  (  0.000000   0.000000   0.000000)
  53:       935.10    0.000000  (  0.000000   0.000000   0.000000)
  54:       937.40    0.000000  (  0.000000   0.000000   0.000000)
  55:       938.55    0.000000  (  0.000000   0.000000   0.000000)
  56:       973.90    0.000000  (  0.000000   0.000000   0.000000)
  57:       981.53    0.000000  (  0.000000   0.000000   0.000000)
  58:       985.49    0.000000  (  0.000000   0.000000   0.000000)
  59:      1012.12    0.000000  (  0.000000   0.000000   0.000000)
  60:      1016.23    0.000000  (  0.000000   0.000000   0.000000)
  61:      1060.80    0.000000  (  0.000000   0.000000   0.000000)
  62:      1066.44    0.000000  (  0.000000   0.000000   0.000000)
  63:      1067.17    0.000000  (  0.000000   0.000000   0.000000)
  64:      1086.49    0.000000  (  0.000000   0.000000   0.000000)
  65:      1099.63    0.000000  (  0.000000   0.000000   0.000000)
  66:      1104.18    0.000000  (  0.000000   0.000000   0.000000)
  67:      1114.50    0.000000  (  0.000000   0.000000   0.000000)
  68:      1123.68    0.000000  (  0.000000   0.000000   0.000000)
  69:      1136.17    0.000000  (  0.000000   0.000000   0.000000)
  70:      1150.19    0.000000  (  0.000000   0.000000   0.000000)
  71:      1175.93    0.000000  (  0.000000   0.000000   0.000000)
  72:      1181.21    0.000000  (  0.000000   0.000000   0.000000)
  73:      1203.07    0.000000  (  0.000000   0.000000   0.000000)
  74:      1207.62    0.000000  (  0.000000   0.000000   0.000000)
  75:      1209.06    0.000000  (  0.000000   0.000000   0.000000)
  76:      1234.66    0.000000  (  0.000000   0.000000   0.000000)
  77:      1262.38    0.000000  (  0.000000   0.000000   0.000000)
  78:      1270.04    0.000000  (  0.000000   0.000000   0.000000)
  79:      1272.78    0.000000  (  0.000000   0.000000   0.000000)
  80:      1276.23    0.000000  (  0.000000   0.000000   0.000000)
  81:      1280.05    0.000000  (  0.000000   0.000000   0.000000)
  82:      1282.15    0.000000  (  0.000000   0.000000   0.000000)
  83:      1293.30    0.000000  (  0.000000   0.000000   0.000000)
  84:      1301.92    0.000000  (  0.000000   0.000000   0.000000)
  85:      1308.81    0.000000  (  0.000000   0.000000   0.000000)
  86:      1335.53    0.000000  (  0.000000   0.000000   0.000000)
  87:      1353.58    0.000000  (  0.000000   0.000000   0.000000)
  88:      1358.36    0.000000  (  0.000000   0.000000   0.000000)
  89:      1373.76    0.000000  (  0.000000   0.000000   0.000000)
  90:      1379.81    0.000000  (  0.000000   0.000000   0.000000)
  91:      1426.61    0.000000  (  0.000000   0.000000   0.000000)
  92:      1428.54    0.000000  (  0.000000   0.000000   0.000000)
  93:      1428.72    0.000000  (  0.000000   0.000000   0.000000)
  94:      1449.14    0.000000  (  0.000000   0.000000   0.000000)
  95:      1494.90    0.000000  (  0.000000   0.000000   0.000000)
  96:      1502.71    0.000000  (  0.000000   0.000000   0.000000)
  97:      1504.65    0.000000  (  0.000000   0.000000   0.000000)
  98:      1507.43    0.000000  (  0.000000   0.000000   0.000000)
  99:      1508.07    0.000000  (  0.000000   0.000000   0.000000)
 100:      1508.39    0.000000  (  0.000000   0.000000   0.000000)
 101:      1508.90    0.000000  (  0.000000   0.000000   0.000000)
 102:      1510.01    0.000000  (  0.000000   0.000000   0.000000)
 103:      1513.00    0.000000  (  0.000000   0.000000   0.000000)
 104:      1514.16    0.000000  (  0.000000   0.000000   0.000000)
 105:      1548.79    0.000000  (  0.000000   0.000000   0.000000)
 106:      1561.38    0.000000  (  0.000000   0.000000   0.000000)
 107:      1568.12    0.000000  (  0.000000   0.000000   0.000000)
 108:      1569.41    0.000000  (  0.000000   0.000000   0.000000)
 109:      1663.81    0.000000  (  0.000000   0.000000   0.000000)
 110:      2834.53    0.000000  (  0.000000   0.000000   0.000000)
 111:      2851.07    0.000000  (  0.000000   0.000000   0.000000)
 112:      2928.50    0.000000  (  0.000000   0.000000   0.000000)
 113:      2929.33    0.000000  (  0.000000   0.000000   0.000000)
 114:      2942.14    0.000000  (  0.000000   0.000000   0.000000)
 115:      2943.97    0.000000  (  0.000000   0.000000   0.000000)
 116:      2952.45    0.000000  (  0.000000   0.000000   0.000000)
 117:      2955.14    0.000000  (  0.000000   0.000000   0.000000)
 118:      2961.11    0.000000  (  0.000000   0.000000   0.000000)
 119:      2963.68    0.000000  (  0.000000   0.000000   0.000000)
 120:      2965.48    0.000000  (  0.000000   0.000000   0.000000)
 121:      2970.50    0.000000  (  0.000000   0.000000   0.000000)
 122:      2974.59    0.000000  (  0.000000   0.000000   0.000000)
 123:      2978.18    0.000000  (  0.000000   0.000000   0.000000)
 124:      2979.09    0.000000  (  0.000000   0.000000   0.000000)
 125:      2983.76    0.000000  (  0.000000   0.000000   0.000000)
 126:      2984.29    0.000000  (  0.000000   0.000000   0.000000)
 127:      2996.26    0.000000  (  0.000000   0.000000   0.000000)
 128:      2996.53    0.000000  (  0.000000   0.000000   0.000000)
 129:      3055.79    0.000000  (  0.000000   0.000000   0.000000)
 130:      3060.21    0.000000  (  0.000000   0.000000   0.000000)
 131:      3066.36    0.000000  (  0.000000   0.000000   0.000000)
 132:      3073.05    0.000000  (  0.000000   0.000000   0.000000)
 133:      3078.45    0.000000  (  0.000000   0.000000   0.000000)
 134:      3321.78    0.000000  (  0.000000   0.000000   0.000000)
 135:      3378.36    0.000000  (  0.000000   0.000000   0.000000)
 136:      3401.64    0.000000  (  0.000000   0.000000   0.000000)
 137:      3409.48    0.000000  (  0.000000   0.000000   0.000000)

The first frequency considered to be a vibration is 7
The total number of vibrations considered is 131


--------------------------
THERMOCHEMISTRY AT 298.15K
--------------------------

Temperature         ... 298.15 K
Pressure            ... 1.00 atm
Total Mass          ... 252.40 AMU

Throughout the following assumptions are being made:
  (1) The electronic state is orbitally nondegenerate
  (2) There are no thermally accessible electronically excited states
  (3) Hindered rotations indicated by low frequency modes are not
      treated as such but are treated as vibrations and this may
      cause some error
  (4) All equations used are the standard statistical mechanics
      equations for an ideal gas
  (5) All vibrations are strictly harmonic

freq.      10.62  E(vib)   ...       0.58 
freq.      25.28  E(vib)   ...       0.56 
freq.      33.52  E(vib)   ...       0.55 
freq.      41.05  E(vib)   ...       0.54 
freq.      47.56  E(vib)   ...       0.53 
freq.      49.35  E(vib)   ...       0.52 
freq.      54.73  E(vib)   ...       0.52 
freq.      68.21  E(vib)   ...       0.50 
freq.      77.94  E(vib)   ...       0.49 
freq.      81.99  E(vib)   ...       0.48 
freq.      86.82  E(vib)   ...       0.48 
freq.     112.61  E(vib)   ...       0.45 
freq.     117.51  E(vib)   ...       0.44 
freq.     128.73  E(vib)   ...       0.43 
freq.     139.69  E(vib)   ...       0.42 
freq.     153.23  E(vib)   ...       0.40 
freq.     202.06  E(vib)   ...       0.35 
freq.     204.42  E(vib)   ...       0.35 
freq.     219.43  E(vib)   ...       0.33 
freq.     263.76  E(vib)   ...       0.29 
freq.     271.86  E(vib)   ...       0.29 
freq.     279.30  E(vib)   ...       0.28 
freq.     320.11  E(vib)   ...       0.25 
freq.     382.34  E(vib)   ...       0.21 
freq.     390.99  E(vib)   ...       0.20 
freq.     393.44  E(vib)   ...       0.20 
freq.     398.45  E(vib)   ...       0.20 
freq.     425.37  E(vib)   ...       0.18 
freq.     432.41  E(vib)   ...       0.18 
freq.     440.85  E(vib)   ...       0.17 
freq.     445.34  E(vib)   ...       0.17 
freq.     587.54  E(vib)   ...       0.10 
freq.     627.02  E(vib)   ...       0.09 
freq.     661.32  E(vib)   ...       0.08 
freq.     745.82  E(vib)   ...       0.06 
freq.     772.02  E(vib)   ...       0.05 
freq.     776.28  E(vib)   ...       0.05 
freq.     819.51  E(vib)   ...       0.05 
freq.     822.18  E(vib)   ...       0.05 
freq.     828.31  E(vib)   ...       0.04 
freq.     879.23  E(vib)   ...       0.04 
freq.     897.12  E(vib)   ...       0.03 
freq.     916.12  E(vib)   ...       0.03 
freq.     920.78  E(vib)   ...       0.03 
freq.     923.75  E(vib)   ...       0.03 
freq.     934.36  E(vib)   ...       0.03 
freq.     935.10  E(vib)   ...       0.03 
freq.     937.40  E(vib)   ...       0.03 
freq.     938.55  E(vib)   ...       0.03 
freq.     973.90  E(vib)   ...       0.03 
freq.     981.53  E(vib)   ...       0.02 
freq.     985.49  E(vib)   ...       0.02 
freq.    1012.12  E(vib)   ...       0.02 
freq.    1016.23  E(vib)   ...       0.02 
freq.    1060.80  E(vib)   ...       0.02 
freq.    1066.44  E(vib)   ...       0.02 
freq.    1067.17  E(vib)   ...       0.02 
freq.    1086.49  E(vib)   ...       0.02 
freq.    1099.63  E(vib)   ...       0.02 
freq.    1104.18  E(vib)   ...       0.02 
freq.    1114.50  E(vib)   ...       0.01 
freq.    1123.68  E(vib)   ...       0.01 
freq.    1136.17  E(vib)   ...       0.01 
freq.    1150.19  E(vib)   ...       0.01 
freq.    1175.93  E(vib)   ...       0.01 
freq.    1181.21  E(vib)   ...       0.01 
freq.    1203.07  E(vib)   ...       0.01 
freq.    1207.62  E(vib)   ...       0.01 
freq.    1209.06  E(vib)   ...       0.01 
freq.    1234.66  E(vib)   ...       0.01 
freq.    1262.38  E(vib)   ...       0.01 
freq.    1270.04  E(vib)   ...       0.01 
freq.    1272.78  E(vib)   ...       0.01 
freq.    1276.23  E(vib)   ...       0.01 
freq.    1280.05  E(vib)   ...       0.01 
freq.    1282.15  E(vib)   ...       0.01 
freq.    1293.30  E(vib)   ...       0.01 
freq.    1301.92  E(vib)   ...       0.01 
freq.    1308.81  E(vib)   ...       0.01 
freq.    1335.53  E(vib)   ...       0.01 
freq.    1353.58  E(vib)   ...       0.01 
freq.    1358.36  E(vib)   ...       0.01 
freq.    1373.76  E(vib)   ...       0.01 
freq.    1379.81  E(vib)   ...       0.01 
freq.    1426.61  E(vib)   ...       0.00 
freq.    1428.54  E(vib)   ...       0.00 
freq.    1428.72  E(vib)   ...       0.00 
freq.    1449.14  E(vib)   ...       0.00 
freq.    1494.90  E(vib)   ...       0.00 
freq.    1502.71  E(vib)   ...       0.00 
freq.    1504.65  E(vib)   ...       0.00 
freq.    1507.43  E(vib)   ...       0.00 
freq.    1508.07  E(vib)   ...       0.00 
freq.    1508.39  E(vib)   ...       0.00 
freq.    1508.90  E(vib)   ...       0.00 
freq.    1510.01  E(vib)   ...       0.00 
freq.    1513.00  E(vib)   ...       0.00 
freq.    1514.16  E(vib)   ...       0.00 
freq.    1548.79  E(vib)   ...       0.00 
freq.    1561.38  E(vib)   ...       0.00 
freq.    1568.12  E(vib)   ...       0.00 
freq.    1569.41  E(vib)   ...       0.00 
freq.    1663.81  E(vib)   ...       0.00 
freq.    2834.53  E(vib)   ...       0.00 
freq.    2851.07  E(vib)   ...       0.00 
freq.    2928.50  E(vib)   ...       0.00 
freq.    2929.33  E(vib)   ...       0.00 
freq.    2942.14  E(vib)   ...       0.00 
freq.    2943.97  E(vib)   ...       0.00 
freq.    2952.45  E(vib)   ...       0.00 
freq.    2955.14  E(vib)   ...       0.00 
freq.    2961.11  E(vib)   ...       0.00 
freq.    2963.68  E(vib)   ...       0.00 
freq.    2965.48  E(vib)   ...       0.00 
freq.    2970.50  E(vib)   ...       0.00 
freq.    2974.59  E(vib)   ...       0.00 
freq.    2978.18  E(vib)   ...       0.00 
freq.    2979.09  E(vib)   ...       0.00 
freq.    2983.76  E(vib)   ...       0.00 
freq.    2984.29  E(vib)   ...       0.00 
freq.    2996.26  E(vib)   ...       0.00 
freq.    2996.53  E(vib)   ...       0.00 
freq.    3055.79  E(vib)   ...       0.00 
freq.    3060.21  E(vib)   ...       0.00 
freq.    3066.36  E(vib)   ...       0.00 
freq.    3073.05  E(vib)   ...       0.00 
freq.    3078.45  E(vib)   ...       0.00 
freq.    3321.78  E(vib)   ...       0.00 
freq.    3378.36  E(vib)   ...       0.00 
freq.    3401.64  E(vib)   ...       0.00 
freq.    3409.48  E(vib)   ...       0.00 

------------
INNER ENERGY
------------

The inner energy is: U= E(el) + E(ZPE) + E(vib) + E(rot) + E(trans)
    E(el)   - is the total energy from the electronic structure calculation
              = E(kin-el) + E(nuc-el) + E(el-el) + E(nuc-nuc)
    E(ZPE)  - the the zero temperature vibrational energy from the frequency calculation
    E(vib)  - the the finite temperature correction to E(ZPE) due to population
              of excited vibrational states
    E(rot)  - is the rotational thermal energy
    E(trans)- is the translational thermal energy

Summary of contributions to the inner energy U:
Electronic energy                ...    -56.28107122 Eh
Zero point energy                ...      0.40189760 Eh     252.19 kcal/mol
Thermal vibrational correction   ...      0.02047493 Eh      12.85 kcal/mol
Thermal rotational correction    ...      0.00141627 Eh       0.89 kcal/mol
Thermal translational correction ...      0.00141627 Eh       0.89 kcal/mol
-----------------------------------------------------------------------
Total thermal energy                    -55.85586615 Eh


Summary of corrections to the electronic energy:
(perhaps to be used in another calculation)
Total thermal correction                  0.02330747 Eh      14.63 kcal/mol
Non-thermal (ZPE) correction              0.40189760 Eh     252.19 kcal/mol
-----------------------------------------------------------------------
Total correction                          0.42520507 Eh     266.82 kcal/mol


--------
ENTHALPY
--------

The enthalpy is H = U + kB*T
                kB is Boltzmann's constant
Total free energy                 ...    -55.85586615 Eh 
Thermal Enthalpy correction       ...      0.00094421 Eh       0.59 kcal/mol
-----------------------------------------------------------------------
Total Enthalpy                    ...    -55.85492194 Eh


Note: Only C1 symmetry has been detected, increase convergence thresholds 
      if your molecule has a higher symmetry. Symmetry factor of 1.0 is   
      used for the rotational entropy correction. 
 

Note: Rotational entropy computed according to Herzberg 
Infrared and Raman Spectra, Chapter V,1, Van Nostrand Reinhold, 1945 
Point Group:  C1, Symmetry Number:   1  
Rotational constants in cm-1:     0.009010     0.007560     0.004483 

Vibrational entropy computed according to the QRRHO of S. Grimme
Chem.Eur.J. 2012 18 9955


-------
ENTROPY
-------

The entropy contributions are T*S = T*(S(el)+S(vib)+S(rot)+S(trans))
     S(el)   - electronic entropy
     S(vib)  - vibrational entropy
     S(rot)  - rotational entropy
     S(trans)- translational entropy
The entropies will be listed as mutliplied by the temperature to get
units of energy

Electronic entropy                ...      0.00000000 Eh      0.00 kcal/mol
Vibrational entropy               ...      0.03833423 Eh     24.06 kcal/mol
Rotational entropy                ...      0.01659302 Eh     10.41 kcal/mol
Translational entropy             ...      0.02018250 Eh     12.66 kcal/mol
-----------------------------------------------------------------------
Final entropy term                ...      0.07510975 Eh     47.13 kcal/mol

In case the symmetry of your molecule has not been determined correctly
or in case you have a reason to use a different symmetry number we print 
out the resulting rotational entropy values for sn=1,12 :
 --------------------------------------------------------
|  sn= 1 | S(rot)=       0.01659302 Eh     10.41 kcal/mol|
|  sn= 2 | S(rot)=       0.01593856 Eh     10.00 kcal/mol|
|  sn= 3 | S(rot)=       0.01555573 Eh      9.76 kcal/mol|
|  sn= 4 | S(rot)=       0.01528411 Eh      9.59 kcal/mol|
|  sn= 5 | S(rot)=       0.01507342 Eh      9.46 kcal/mol|
|  sn= 6 | S(rot)=       0.01490127 Eh      9.35 kcal/mol|
|  sn= 7 | S(rot)=       0.01475573 Eh      9.26 kcal/mol|
|  sn= 8 | S(rot)=       0.01462965 Eh      9.18 kcal/mol|
|  sn= 9 | S(rot)=       0.01451844 Eh      9.11 kcal/mol|
|  sn=10 | S(rot)=       0.01441896 Eh      9.05 kcal/mol|
|  sn=11 | S(rot)=       0.01432897 Eh      8.99 kcal/mol|
|  sn=12 | S(rot)=       0.01424682 Eh      8.94 kcal/mol|
 --------------------------------------------------------


-------------------
GIBBS FREE ENERGY
-------------------

The Gibbs free energy is G = H - T*S

Total enthalpy                    ...    -55.85492194 Eh 
Total entropy correction          ...     -0.07510975 Eh    -47.13 kcal/mol
-----------------------------------------------------------------------
Final Gibbs free energy         ...    -55.93003169 Eh

For completeness - the Gibbs free energy minus the electronic energy
G-E(el)                           ...      0.35103953 Eh    220.28 kcal/mol


Total Time for Numerical Frequencies  :       154.637 sec
Time for Reference State(s)           :         0.133 sec
Time for Displacements                :       139.446 sec

Timings for individual modules:

Sum of individual times         ...        0.267 sec (=   0.004 min)
XTB module                      ...        0.267 sec (=   0.004 min) 100.0 %
                             ****ORCA TERMINATED NORMALLY****
TOTAL RUN TIME: 0 days 0 hours 2 minutes 35 seconds 294 msec
(SLURM) EXECUTION TIME: 155.320177072 seconds.
