(SLURM) JOB ID:         785

                                 *****************
                                 * O   R   C   A *
                                 *****************

           --- An Ab Initio, DFT and Semiempirical electronic structure package ---

                  #######################################################
                  #                        -***-                        #
                  #          Department of theory and spectroscopy      #
                  #               Directorship: Frank Neese             #
                  #        Max Planck Institute fuer Kohlenforschung    #
                  #                Kaiser Wilhelm Platz 1               #
                  #                 D-45470 Muelheim/Ruhr               #
                  #                      Germany                        #
                  #                                                     #
                  #                  All rights reserved                #
                  #                        -***-                        #
                  #######################################################


                         Program Version 4.2.1 -  RELEASE  -


 With contributions from (in alphabetic order):
   Daniel Aravena         : Magnetic Suceptibility
   Michael Atanasov       : Ab Initio Ligand Field Theory (pilot matlab implementation)
   Alexander A. Auer      : GIAO ZORA, VPT2
   Ute Becker             : Parallelization
   Giovanni Bistoni       : ED, misc. LED, open-shell LED, HFLD
   Martin Brehm           : Molecular dynamics
   Dmytro Bykov           : SCF Hessian
   Vijay G. Chilkuri      : MRCI spin determinant printing, contributions to CSF-ICE
   Dipayan Datta          : RHF DLPNO-CCSD density
   Achintya Kumar Dutta   : EOM-CC, STEOM-CC
   Dmitry Ganyushin       : Spin-Orbit,Spin-Spin,Magnetic field MRCI
   Miquel Garcia          : C-PCM Hessian, Gaussian charge scheme
   Yang Guo               : DLPNO-NEVPT2, CIM, IAO-localization
   Andreas Hansen         : Spin unrestricted coupled pair/coupled cluster methods
   Benjamin Helmich-Paris : CASSCF linear response (MC-RPA)
   Lee Huntington         : MR-EOM, pCC
   Robert Izsak           : Overlap fitted RIJCOSX, COSX-SCS-MP3, EOM
   Christian Kollmar      : KDIIS, OOCD, Brueckner-CCSD(T), CCSD density
   Simone Kossmann        : Meta GGA functionals, TD-DFT gradient, OOMP2, MP2 Hessian
   Martin Krupicka        : AUTO-CI
   Lucas Lang             : DCDCAS
   Dagmar Lenk            : GEPOL surface, SMD
   Dimitrios Liakos       : Extrapolation schemes; Compound Job, initial MDCI parallelization
   Dimitrios Manganas     : Further ROCIS development; embedding schemes
   Dimitrios Pantazis     : SARC Basis sets
   Taras Petrenko         : DFT Hessian,TD-DFT gradient, ASA, ECA, R-Raman, ABS, FL, XAS/XES, NRVS
   Peter Pinski           : DLPNO-MP2, DLPNO-MP2 Gradient
   Christoph Reimann      : Effective Core Potentials
   Marius Retegan         : Local ZFS, SOC
   Christoph Riplinger    : Optimizer, TS searches, QM/MM, DLPNO-CCSD(T), (RO)-DLPNO pert. Triples
   Tobias Risthaus        : Range-separated hybrids, TD-DFT gradient, RPA, STAB
   Michael Roemelt        : Original ROCIS implementation
   Masaaki Saitow         : Open-shell DLPNO-CCSD energy and density
   Barbara Sandhoefer     : DKH picture change effects
   Avijit Sen             : IP-ROCIS
   Kantharuban Sivalingam : CASSCF convergence, NEVPT2, FIC-MRCI
   Bernardo de Souza      : ESD, SOC TD-DFT
   Georgi Stoychev        : AutoAux, RI-MP2 NMR
   Willem Van den Heuvel  : Paramagnetic NMR
   Boris Wezisla          : Elementary symmetry handling
   Frank Wennmohs         : Technical directorship


 We gratefully acknowledge several colleagues who have allowed us to
 interface, adapt or use parts of their codes:
   Stefan Grimme, W. Hujo, H. Kruse,             : VdW corrections, initial TS optimization,
                  C. Bannwarth                     DFT functionals, gCP, sTDA/sTD-DF
   Ed Valeev, F. Pavosevic, A. Kumar             : LibInt (2-el integral package), F12 methods
   Garnet Chan, S. Sharma, J. Yang, R. Olivares  : DMRG
   Ulf Ekstrom                                   : XCFun DFT Library
   Mihaly Kallay                                 : mrcc  (arbitrary order and MRCC methods)
   Andreas Klamt, Michael Diedenhofen            : otool_cosmo (COSMO solvation model)
   Jiri Pittner, Ondrej Demel                    : Mk-CCSD
   Frank Weinhold                                : gennbo (NPA and NBO analysis)
   Christopher J. Cramer and Donald G. Truhlar   : smd solvation model
   Lars Goerigk                                  : TD-DFT with DH, B97 family of functionals
   V. Asgeirsson, H. Jonsson                     : NEB implementation
   FAccTs GmbH                                   : IRC, NEB, NEB-TS, Multilevel, MM, QM/MM, CI optimization
   S Lehtola, MJT Oliveira, MAL Marques          : LibXC Library


 Your calculation uses the libint2 library for the computation of 2-el integrals
 For citations please refer to: http://libint.valeyev.net

 Your ORCA version has been built with support for libXC version: 4.2.3
 For citations please refer to: https://tddft.org/programs/libxc/

 This ORCA versions uses:
   CBLAS   interface :  Fast vector & matrix operations
   LAPACKE interface :  Fast linear algebra routines
   SCALAPACK package :  Parallel linear algebra routines




***************************************
The coordinates will be read from file: init.xyz
***************************************


Your calculation utilizes the SMD solvation module
Please cite in your paper:
A.V. Marenich, C.J. Cramer, D.G. Truhlar J. Phys. Chem. B, 113, (2009), 6378 

Your calculation utilizes the semiempirical GFN2-xTB method
Please cite in your paper:
C. Bannwarth, Ehlert S., S. Grimme,  J. Chem. Theory Comput., 15, (2019), 1652.
   

----- Orbital basis set information -----
Your calculation utilizes the basis: def2-SVP
   F. Weigend and R. Ahlrichs, Phys. Chem. Chem. Phys. 7, 3297 (2005).

================================================================================
                                        WARNINGS
                       Please study these warnings very carefully!
================================================================================

WARNING: Gradients needed for Numerical Frequencies
  ===> : Setting RunTyp to EnGrad

WARNING: The environment variable RSH_COMMAND is not set!
  ===> : All Displacements for the Numerical Hessian calculation
         will be started on localhost

WARNING: Found dipole moment calculation with XTB calculation
  ===> : Switching off dipole moment calculation


INFO   : the flag for use of LIBINT has been found!

================================================================================
                                       INPUT FILE
================================================================================
NAME = /tmp/slurm-scratch/freq.785/freq.inp
|  1> ! XTB2 NumFreq
|  2> %maxcore 1150
|  3> 
|  4> * xyzfile 0 1 init.xyz
|  5> 
|  6> %cpcm
|  7>  smd true
|  8>  smdsolvent "ch2cl2"
|  9> end
| 10> %pal nprocs 9 end
| 11> 
| 12>                          ****END OF INPUT****
================================================================================

                     *******************************
                     * Energy+Gradient Calculation *
                     *******************************

      -----------------------------------------------------------      
     |                   =====================                   |     
     |                           x T B                           |     
     |                   =====================                   |     
     |                         S. Grimme                         |     
     |          Mulliken Center for Theoretical Chemistry        |     
     |                    University of Bonn                     |     
      -----------------------------------------------------------      

   * xtb version 6.3.2 (30e43eb) compiled by 'schneider@apollo14' on 2020-08-08

   xtb is free software: you can redistribute it and/or modify it under
   the terms of the GNU Lesser General Public License as published by
   the Free Software Foundation, either version 3 of the License, or
   (at your option) any later version.
   
   xtb is distributed in the hope that it will be useful,
   but WITHOUT ANY WARRANTY; without even the implied warranty of
   MERCHANTABILITY or FITNESS FOR A PARTICULAR PURPOSE.  See the
   GNU Lesser General Public License for more details.
   
   Cite this work as:
   * S. Grimme, C. Bannwarth, P. Shushkov, J. Chem. Theory Comput., 2017,
     13, 1989-2009. DOI: 10.1021/acs.jctc.7b00118
   * C. Bannwarth, S. Ehlert and S. Grimme., J. Chem. Theory Comput., 2019,
     15, 1652-1671. DOI: 10.1021/acs.jctc.8b01176
   * P. Pracht, E. Caldeweyher, S. Ehlert, S. Grimme, ChemRxiv, 2019, preprint.
     DOI: 10.26434/chemrxiv.8326202.v1
   
   for GFN-FF:
   * S. Spicher and S. Grimme, Angew. Chem. Int. Ed., 2020,
     DOI: 10.1002/anie.202004239
   
   for DFT-D4:
   * E. Caldeweyher, C. Bannwarth and S. Grimme, J. Chem. Phys., 2017,
     147, 034112. DOI: 10.1063/1.4993215
   * E. Caldeweyher, S. Ehlert, A. Hansen, H. Neugebauer, S. Spicher,
     C. Bannwarth and S. Grimme, J. Chem. Phys., 2019, 150, 154122.
     DOI: 10.1063/1.5090222
   
   for sTDA-xTB:
   * S. Grimme and C. Bannwarth, J. Chem. Phys., 2016, 145, 054103.
     DOI: 10.1063/1.4959605
   
   in the mass-spec context:
   * V. Asgeirsson, C. Bauer and S. Grimme, Chem. Sci., 2017, 8, 4879.
     DOI: 10.1039/c7sc00601b
   * J. Koopman and S. Grimme, ACS Omega 2019, 4, 12, 15120-15133.
     DOI: 10.1021/acsomega.9b02011
   
   for metadynamics refer to:
   * S. Grimme, J. Chem. Theory Comput., 2019, 155, 2847-2862
     DOI: 10.1021/acs.jctc.9b00143
   
   with help from (in alphabetical order)
   C. Bannwarth, F. Bohle, G. Brandenburg, E. Caldeweyher, M. Checinski,
   S. Dohm, S. Ehlert, S. Ehrlich, F. März, H. Neugebauer, J. Pisarek,
   P. Pracht, P. Shushkov, and S. Spicher.
   
 * started run on 2021/03/24 at 11:16:51.795     

           -------------------------------------------------
          |                Calculation Setup                |
           -------------------------------------------------

          program call               : /opt/orca/otool_xtb /tmp/slurm-scratch/freq.785/freq_XTB.xyz --grad -c 0 -u 0 -P 9 --namespace /tmp/slurm-scratch/freq.785/freq --gbsa CH2Cl2
          hostname                   : apollo14
          calculation namespace      : /tmp/slurm-scratch/freq.785/freq
          coordinate file            : /tmp/slurm-scratch/freq.785/freq_XTB.xyz
          omp threads                :                     9
          number of atoms            :                    36
          number of electrons        :                    88
          charge                     :                     0
          spin                       :                   0.0
          first test random number   :      0.15597242680735

   ID    Z sym.   atoms
    1    6 C      1-7, 12, 14, 30, 33
    2    1 H      8-10, 13, 15-18, 20, 21, 23, 24, 26-29, 31, 32, 34-36
    3    7 N      11
    4    8 O      19, 22, 25

molecular fragmentation (1/2 indicates fragments):
111111111111211111212222222111111111
# atoms in fragment 1/2:    27     9
 fragment masses (1/2) :      161.24       54.05
CMA distance (Bohr)    :   7.037
constraining FC (au)   :  0.0500
########################################################################
[WARNING] Please study the warnings concerning your input carefully
-1- prog_main_parseArguments: Process number higher than OMP_NUM_THREADS, I hope you know what you are doing.
########################################################################

           -------------------------------------------------
          |                 G F N 2 - x T B                 |
           -------------------------------------------------

        Reference                      10.1021/acs.jctc.8b01176
      * Hamiltonian:
        H0-scaling (s, p, d)           1.850000    2.230000    2.230000
        zeta-weighting                 0.500000
      * Dispersion:
        s8                             2.700000
        a1                             0.520000
        a2                             5.000000
        s9                             5.000000
      * Repulsion:
        kExp                           1.500000    1.000000
        rExp                           1.000000
      * Coulomb:
        alpha                          2.000000
        third order                    shell-resolved
        anisotropic                    true
        a3                             3.000000
        a5                             4.000000
        cn-shift                       1.200000
        cn-exp                         4.000000
        max-rad                        5.000000

      * Solvation model:               GBSA
        Solvent                        CH2Cl2
        Parameter file                 internal GFN2-xTB/GBSA
        Dielectric constant                8.9300E+00
        Reference state                gsolv [1 M gas/solution]
        Free energy shift                  4.4408E-03 Eh       2.7867E+00 kcal/mol
        Temperature                        2.9815E+02 K
        Density                            1.3300E+00 kg/L
        Solvent mass                       8.4930E+01 g/mol
        Interaction kernel             Still
        Born radius scaling (c1)           1.4917E+00
        Born radii integrator          GBOBC
        Born offset                        0.0000E+00 a0       0.0000E+00 AA
        H-bond correction              false
        Ion screening                  false
        Surface tension                    1.0000E-05 Eh       1.5569E+01 dyn/cm
        Grid points                               230 per atom

          ...................................................
          :                      SETUP                      :
          :.................................................:
          :  # basis functions                  81          :
          :  # atomic orbitals                  81          :
          :  # shells                           51          :
          :  # electrons                        88          :
          :  max. iterations                   250          :
          :  Hamiltonian                  GFN2-xTB          :
          :  restarted?                      false          :
          :  GBSA solvation                   true          :
          :  PC potential                    false          :
          :  electronic temp.          300.0000000     K    :
          :  accuracy                    1.0000000          :
          :  -> integral cutoff          0.2500000E+02      :
          :  -> integral neglect         0.1000000E-07      :
          :  -> SCF convergence          0.1000000E-05 Eh   :
          :  -> wf. convergence          0.1000000E-03 e    :
          :  Broyden damping             0.4000000          :
          ...................................................

 iter      E             dE          RMSdq      gap      omega  full diag
   1    -49.9336250 -0.499336E+02  0.361E+00    3.25       0.0  T
   2    -49.9707594 -0.371343E-01  0.216E+00    3.32       1.0  T
   3    -49.9627262  0.803312E-02  0.826E-01    2.92       1.0  T
   4    -49.9749246 -0.121983E-01  0.333E-01    3.12       1.0  T
   5    -49.9770298 -0.210526E-02  0.702E-02    3.06       1.0  T
   6    -49.9770447 -0.148698E-04  0.337E-02    3.07       1.0  T
   7    -49.9770526 -0.793670E-05  0.162E-02    3.06       1.0  T
   8    -49.9770552 -0.260611E-05  0.442E-03    3.07       3.8  T
   9    -49.9770555 -0.235023E-06  0.169E-03    3.07       9.9  T
  10    -49.9770555 -0.685220E-08  0.961E-04    3.07      17.3  T
  11    -49.9770555 -0.113317E-07  0.303E-04    3.07      55.1  T

   *** convergence criteria satisfied after 11 iterations ***

         #    Occupation            Energy/Eh            Energy/eV
      -------------------------------------------------------------
         1        2.0000           -0.6768274             -18.4174
       ...           ...                  ...                  ...
        38        2.0000           -0.4339622             -11.8087
        39        2.0000           -0.4302131             -11.7067
        40        2.0000           -0.4274858             -11.6325
        41        2.0000           -0.4269006             -11.6166
        42        2.0000           -0.4132914             -11.2462
        43        2.0000           -0.4058088             -11.0426
        44        2.0000           -0.3958138             -10.7706 (HOMO)
        45                         -0.2831117              -7.7039 (LUMO)
        46                         -0.2361284              -6.4254
        47                         -0.2018846              -5.4936
        48                         -0.1011029              -2.7511
        49                          0.0019801               0.0539
       ...                                ...                  ...
        81                          0.6188164              16.8389
      -------------------------------------------------------------
                  HL-Gap            0.1127021 Eh            3.0668 eV
             Fermi-level           -0.3394627 Eh           -9.2373 eV

 SCC (total)                   0 d,  0 h,  0 min,  0.135 sec
 SCC setup                      ...        0 min,  0.007 sec (  4.910%)
 Dispersion                     ...        0 min,  0.005 sec (  3.627%)
 classical contributions        ...        0 min,  0.007 sec (  4.799%)
 integral evaluation            ...        0 min,  0.018 sec ( 13.630%)
 iterations                     ...        0 min,  0.053 sec ( 39.386%)
 molecular gradient             ...        0 min,  0.042 sec ( 31.029%)
 printout                       ...        0 min,  0.004 sec (  2.596%)

         :::::::::::::::::::::::::::::::::::::::::::::::::::::
         ::                     SUMMARY                     ::
         :::::::::::::::::::::::::::::::::::::::::::::::::::::
         :: total energy             -49.363362556137 Eh    ::
         :: total w/o Gsasa/hb       -49.343772281350 Eh    ::
         :: gradient norm              0.056096068143 Eh/a0 ::
         :: HOMO-LUMO gap              3.066781327684 eV    ::
         ::.................................................::
         :: SCC energy               -49.977055485029 Eh    ::
         :: -> isotropic ES            0.117682195098 Eh    ::
         :: -> anisotropic ES         -0.006416919762 Eh    ::
         :: -> anisotropic XC          0.027592176861 Eh    ::
         :: -> dispersion             -0.027160029945 Eh    ::
         :: -> Gsolv                  -0.029427127781 Eh    ::
         ::    -> Gborn               -0.009836852994 Eh    ::
         ::    -> Gsasa               -0.024031103961 Eh    ::
         ::    -> Ghb                  0.000000000000 Eh    ::
         ::    -> Gshift               0.004440829173 Eh    ::
         :: repulsion energy           0.613511263582 Eh    ::
         :: add. restraining           0.000000000000 Eh    ::
         :: total charge               0.000000000000 e     ::
         :::::::::::::::::::::::::::::::::::::::::::::::::::::

           -------------------------------------------------
          |                Property Printout                |
           -------------------------------------------------

    * Orbital Energies and Occupations

         #    Occupation            Energy/Eh            Energy/eV
      -------------------------------------------------------------
         1        2.0000           -0.6768274             -18.4174
       ...           ...                  ...                  ...
        32        2.0000           -0.4647324             -12.6460
        33        2.0000           -0.4500591             -12.2467
        34        2.0000           -0.4441762             -12.0866
        35        2.0000           -0.4433070             -12.0630
        36        2.0000           -0.4406037             -11.9894
        37        2.0000           -0.4385488             -11.9335
        38        2.0000           -0.4339622             -11.8087
        39        2.0000           -0.4302131             -11.7067
        40        2.0000           -0.4274858             -11.6325
        41        2.0000           -0.4269006             -11.6166
        42        2.0000           -0.4132914             -11.2462
        43        2.0000           -0.4058088             -11.0426
        44        2.0000           -0.3958138             -10.7706 (HOMO)
        45                         -0.2831117              -7.7039 (LUMO)
        46                         -0.2361284              -6.4254
        47                         -0.2018846              -5.4936
        48                         -0.1011029              -2.7511
        49                          0.0019801               0.0539
        50                          0.0243921               0.6637
        51                          0.0755171               2.0549
        52                          0.0809234               2.2020
        53                          0.0855663               2.3284
        54                          0.1054751               2.8701
        55                          0.1067856               2.9058
       ...                                ...                  ...
        81                          0.6188164              16.8389
      -------------------------------------------------------------
                  HL-Gap            0.1127021 Eh            3.0668 eV
             Fermi-level           -0.3394627 Eh           -9.2373 eV

     #   Z          covCN         q      C6AA      α(0)
     1   6 C        2.963     0.006    27.878     8.660
     2   6 C        2.911    -0.026    28.651     8.777
     3   6 C        2.907    -0.028    28.711     8.786
     4   6 C        2.909    -0.028    28.688     8.783
     5   6 C        2.907    -0.029    28.716     8.787
     6   6 C        2.915    -0.027    28.683     8.782
     7   6 C        2.846     0.078    26.244     8.396
     8   1 H        0.925     0.061     2.190     2.314
     9   1 H        0.925     0.041     2.434     2.440
    10   1 H        0.925     0.046     2.370     2.407
    11   7 N        1.824    -0.257    27.541     7.776
    12   6 C        3.753     0.015    20.375     6.437
    13   1 H        0.798     0.318     0.671     1.288
    14   6 C        3.797    -0.058    21.617     6.620
    15   1 H        0.923     0.015     2.806     2.620
    16   1 H        0.923     0.049     2.338     2.391
    17   1 H        0.923     0.046     2.370     2.408
    18   1 H        0.923     0.035     2.512     2.479
    19   8 O        1.605    -0.631    25.937     6.873
    20   1 H        0.923     0.013     2.836     2.634
    21   1 H        0.804     0.280     0.785     1.392
    22   8 O        1.603    -0.625    25.792     6.854
    23   1 H        0.801     0.312     0.686     1.301
    24   1 H        0.804     0.288     0.759     1.369
    25   8 O        1.600    -0.622    25.726     6.845
    26   1 H        0.799     0.325     0.652     1.268
    27   1 H        0.804     0.288     0.759     1.368
    28   1 H        0.925     0.050     2.323     2.384
    29   1 H        0.925     0.044     2.393     2.419
    30   6 C        3.796    -0.052    21.520     6.606
    31   1 H        0.923     0.034     2.533     2.489
    32   1 H        0.923     0.031     2.574     2.509
    33   6 C        3.745    -0.101    22.499     6.766
    34   1 H        0.923     0.037     2.495     2.470
    35   1 H        0.923     0.037     2.494     2.470
    36   1 H        0.923     0.035     2.519     2.482

 Mol. C6AA /au·bohr⁶  :      10951.093185
 Mol. C8AA /au·bohr⁸  :     241475.891849
 Mol. α(0) /au        :        160.649538


Wiberg/Mayer (AO) data.
largest (>0.10) Wiberg bond orders for each atom

 ---------------------------------------------------------------------------
     #   Z sym  total        # sym  WBO       # sym  WBO       # sym  WBO
 ---------------------------------------------------------------------------
     1   6 C    3.988 --     6 C    1.373     2 C    1.364     7 C    1.091
     2   6 C    3.988 --     3 C    1.463     1 C    1.364     8 H    0.963
                             5 C    0.106
     3   6 C    3.990 --     2 C    1.463     4 C    1.420    28 H    0.969
                             6 C    0.105
     4   6 C    3.986 --     5 C    1.432     3 C    1.420    10 H    0.971
     5   6 C    3.990 --     6 C    1.453     4 C    1.432    29 H    0.970
                             2 C    0.106
     6   6 C    3.985 --     5 C    1.453     1 C    1.373     9 H    0.968
                             3 C    0.105
     7   6 C    3.965 --    11 N    1.820     1 C    1.091    20 H    0.942
     8   1 H    0.996 --     2 C    0.963
     9   1 H    0.998 --     6 C    0.968
    10   1 H    0.997 --     4 C    0.971
    11   7 N    3.135 --     7 C    1.820    12 C    1.016
    12   6 C    3.981 --    11 N    1.016    14 C    0.987    15 H    0.967
                            16 H    0.959
    13   1 H    0.899 --    25 O    0.813
    14   6 C    3.990 --    30 C    1.005    12 C    0.987    18 H    0.978
                            17 H    0.976
    15   1 H    1.000 --    12 C    0.967
    16   1 H    0.995 --    12 C    0.959
    17   1 H    0.998 --    14 C    0.976
    18   1 H    0.999 --    14 C    0.978
    19   8 O    1.799 --    21 H    0.914    23 H    0.858
    20   1 H    0.999 --     7 C    0.942
    21   1 H    0.922 --    19 O    0.914
    22   8 O    1.842 --    24 H    0.915    26 H    0.832
    23   1 H    0.902 --    19 O    0.858
    24   1 H    0.917 --    22 O    0.915
    25   8 O    1.859 --    27 H    0.914    13 H    0.813
    26   1 H    0.894 --    22 O    0.832
    27   1 H    0.917 --    25 O    0.914
    28   1 H    0.997 --     3 C    0.969
    29   1 H    0.998 --     5 C    0.970
    30   6 C    3.995 --    33 C    1.018    14 C    1.005    32 H    0.978
                            31 H    0.978
    31   1 H    0.999 --    30 C    0.978
    32   1 H    0.999 --    30 C    0.978
    33   6 C    3.995 --    30 C    1.018    36 H    0.988    34 H    0.988
                            35 H    0.987
    34   1 H    0.999 --    33 C    0.988
    35   1 H    0.998 --    33 C    0.987
    36   1 H    0.999 --    33 C    0.988
 ---------------------------------------------------------------------------

Topologies differ in total number of bonds
Writing topology from bond orders to xtbtopo.mol

molecular dipole:
                 x           y           z       tot (Debye)
 q only:       -0.992      -1.271       0.676
   full:       -1.138      -1.776       0.620       5.589
molecular quadrupole (traceless):
                xx          xy          yy          xz          yz          zz
 q only:        6.548      -4.826      -6.763       6.778       6.155       0.214
  q+dip:        6.489      -9.503      -7.083       8.233      11.555       0.594
   full:        5.442      -7.843      -6.365       7.408       8.827       0.923


           -------------------------------------------------
          | TOTAL ENERGY              -49.363362556137 Eh   |
          | GRADIENT NORM               0.056096068143 Eh/α |
          | HOMO-LUMO GAP               3.066781327684 eV   |
           -------------------------------------------------

------------------------------------------------------------------------
 * finished run on 2021/03/24 at 11:16:51.996     
------------------------------------------------------------------------
 total:
 * wall-time:     0 d,  0 h,  0 min,  0.201 sec
 *  cpu-time:     0 d,  0 h,  0 min,  2.178 sec
 * ratio c/w:    10.811 speedup
 SCF:
 * wall-time:     0 d,  0 h,  0 min,  0.139 sec
 *  cpu-time:     0 d,  0 h,  0 min,  1.567 sec
 * ratio c/w:    11.293 speedup


-------------------------   --------------------
FINAL SINGLE POINT ENERGY       -49.363362556140
-------------------------   --------------------


----------------------------------------------------------------------------
                           ORCA NUMERICAL FREQUENCIES
                              (9-process run)
----------------------------------------------------------------------------

Number of atoms                ... 36
Central differences            ... used
Number of displacements        ... 216
Numerical increment            ... 5.000e-03 bohr
IR-spectrum generation         ... on
Raman-spectrum generation      ... off
Surface Crossing Hessian       ... off
List of participating nodes    ...  /tmp/slurm-scratch/freq.785/freq.hostnames

The output will be reduced. Please look at the following files:
SCF program output             ... >/tmp/slurm-scratch/freq.785/freq.lastscf
Integral program output        ... >/tmp/slurm-scratch/freq.785/freq.lastint
Gradient program output        ... >/tmp/slurm-scratch/freq.785/freq.lastgrad
Dipole moment program output   ... >/tmp/slurm-scratch/freq.785/freq.lastmom
AutoCI program output          ... >/tmp/slurm-scratch/freq.785/freq.lastautoci


         <<< Energy and Gradient at the input geometry >>>

        <<< Energy and Gradient at displaced geometries >>>
             <<<Displacing   2/coordinate 2 (+)>>>
             <<<Displacing   3/coordinate 3 (+)>>>
             <<<Displacing   3/coordinate 1 (+)>>>
             <<<Displacing   2/coordinate 3 (+)>>>
             <<<Displacing   1/coordinate 3 (+)>>>
             <<<Displacing   1/coordinate 2 (+)>>>
             <<<Displacing   1/coordinate 1 (+)>>>
             <<<Displacing   2/coordinate 1 (+)>>>
             <<<Displacing   3/coordinate 2 (+)>>>
             <<<Displacing   1/coordinate 1 (-)>>>
             <<<Displacing   3/coordinate 2 (-)>>>
             <<<Displacing   2/coordinate 3 (-)>>>
             <<<Displacing   3/coordinate 3 (-)>>>
             <<<Displacing   1/coordinate 2 (-)>>>
             <<<Displacing   2/coordinate 2 (-)>>>
             <<<Displacing   2/coordinate 1 (-)>>>
             <<<Displacing   3/coordinate 1 (-)>>>
             <<<Displacing   1/coordinate 3 (-)>>>
             <<<Displacing   5/coordinate 1 (+)>>>
             <<<Displacing   4/coordinate 2 (+)>>>
             <<<Displacing   5/coordinate 3 (+)>>>
             <<<Displacing   6/coordinate 1 (+)>>>
             <<<Displacing   5/coordinate 1 (-)>>>
             <<<Displacing   4/coordinate 1 (+)>>>
             <<<Displacing   4/coordinate 2 (-)>>>
             <<<Displacing   5/coordinate 3 (-)>>>
             <<<Displacing   4/coordinate 3 (+)>>>
             <<<Displacing   4/coordinate 1 (-)>>>
             <<<Displacing   6/coordinate 3 (+)>>>
             <<<Displacing   6/coordinate 1 (-)>>>
             <<<Displacing   6/coordinate 2 (+)>>>
             <<<Displacing   4/coordinate 3 (-)>>>
             <<<Displacing   6/coordinate 3 (-)>>>
             <<<Displacing   6/coordinate 2 (-)>>>
             <<<Displacing   5/coordinate 2 (+)>>>
             <<<Displacing   5/coordinate 2 (-)>>>
             <<<Displacing   7/coordinate 1 (+)>>>
             <<<Displacing   8/coordinate 1 (+)>>>
             <<<Displacing   8/coordinate 2 (+)>>>
             <<<Displacing   7/coordinate 1 (-)>>>
             <<<Displacing   8/coordinate 2 (-)>>>
             <<<Displacing   7/coordinate 2 (+)>>>
             <<<Displacing   8/coordinate 1 (-)>>>
             <<<Displacing   7/coordinate 3 (+)>>>
             <<<Displacing   7/coordinate 2 (-)>>>
             <<<Displacing   8/coordinate 3 (+)>>>
             <<<Displacing   7/coordinate 3 (-)>>>
             <<<Displacing   9/coordinate 1 (+)>>>
             <<<Displacing   8/coordinate 3 (-)>>>
             <<<Displacing   9/coordinate 2 (+)>>>
             <<<Displacing   9/coordinate 1 (-)>>>
             <<<Displacing   9/coordinate 2 (-)>>>
             <<<Displacing   9/coordinate 3 (+)>>>
             <<<Displacing   9/coordinate 3 (-)>>>
             <<<Displacing  10/coordinate 1 (+)>>>
             <<<Displacing  10/coordinate 1 (-)>>>
             <<<Displacing  11/coordinate 3 (+)>>>
             <<<Displacing  10/coordinate 3 (+)>>>
             <<<Displacing  12/coordinate 1 (+)>>>
             <<<Displacing  10/coordinate 2 (+)>>>
             <<<Displacing  11/coordinate 1 (+)>>>
             <<<Displacing  12/coordinate 1 (-)>>>
             <<<Displacing  10/coordinate 3 (-)>>>
             <<<Displacing  11/coordinate 2 (+)>>>
             <<<Displacing  11/coordinate 3 (-)>>>
             <<<Displacing  11/coordinate 1 (-)>>>
             <<<Displacing  10/coordinate 2 (-)>>>
             <<<Displacing  11/coordinate 2 (-)>>>
             <<<Displacing  12/coordinate 3 (+)>>>
             <<<Displacing  12/coordinate 2 (+)>>>
             <<<Displacing  12/coordinate 3 (-)>>>
             <<<Displacing  12/coordinate 2 (-)>>>
             <<<Displacing  13/coordinate 1 (+)>>>
             <<<Displacing  14/coordinate 1 (+)>>>
             <<<Displacing  13/coordinate 1 (-)>>>
             <<<Displacing  14/coordinate 1 (-)>>>
             <<<Displacing  13/coordinate 3 (+)>>>
             <<<Displacing  14/coordinate 3 (+)>>>
             <<<Displacing  13/coordinate 3 (-)>>>
             <<<Displacing  14/coordinate 3 (-)>>>
             <<<Displacing  13/coordinate 2 (+)>>>
             <<<Displacing  15/coordinate 1 (+)>>>
             <<<Displacing  13/coordinate 2 (-)>>>
             <<<Displacing  15/coordinate 1 (-)>>>
             <<<Displacing  14/coordinate 2 (+)>>>
             <<<Displacing  14/coordinate 2 (-)>>>
             <<<Displacing  15/coordinate 2 (+)>>>
             <<<Displacing  15/coordinate 3 (+)>>>
             <<<Displacing  15/coordinate 2 (-)>>>
             <<<Displacing  15/coordinate 3 (-)>>>
             <<<Displacing  16/coordinate 1 (+)>>>
             <<<Displacing  16/coordinate 1 (-)>>>
             <<<Displacing  16/coordinate 2 (+)>>>
             <<<Displacing  16/coordinate 2 (-)>>>
             <<<Displacing  16/coordinate 3 (+)>>>
             <<<Displacing  17/coordinate 3 (+)>>>
             <<<Displacing  17/coordinate 1 (+)>>>
             <<<Displacing  17/coordinate 3 (-)>>>
             <<<Displacing  16/coordinate 3 (-)>>>
             <<<Displacing  17/coordinate 2 (+)>>>
             <<<Displacing  17/coordinate 1 (-)>>>
             <<<Displacing  17/coordinate 2 (-)>>>
             <<<Displacing  18/coordinate 1 (+)>>>
             <<<Displacing  18/coordinate 1 (-)>>>
             <<<Displacing  18/coordinate 3 (+)>>>
             <<<Displacing  18/coordinate 2 (+)>>>
             <<<Displacing  18/coordinate 3 (-)>>>
             <<<Displacing  18/coordinate 2 (-)>>>
             <<<Displacing  19/coordinate 1 (+)>>>
             <<<Displacing  19/coordinate 2 (+)>>>
             <<<Displacing  19/coordinate 2 (-)>>>
             <<<Displacing  19/coordinate 1 (-)>>>
             <<<Displacing  20/coordinate 1 (+)>>>
             <<<Displacing  20/coordinate 2 (+)>>>
             <<<Displacing  20/coordinate 1 (-)>>>
             <<<Displacing  19/coordinate 3 (+)>>>
             <<<Displacing  20/coordinate 2 (-)>>>
             <<<Displacing  20/coordinate 3 (+)>>>
             <<<Displacing  21/coordinate 1 (+)>>>
             <<<Displacing  19/coordinate 3 (-)>>>
             <<<Displacing  20/coordinate 3 (-)>>>
             <<<Displacing  21/coordinate 1 (-)>>>
             <<<Displacing  21/coordinate 2 (+)>>>
             <<<Displacing  21/coordinate 3 (+)>>>
             <<<Displacing  21/coordinate 2 (-)>>>
             <<<Displacing  21/coordinate 3 (-)>>>
             <<<Displacing  22/coordinate 1 (+)>>>
             <<<Displacing  22/coordinate 1 (-)>>>
             <<<Displacing  22/coordinate 2 (+)>>>
             <<<Displacing  22/coordinate 2 (-)>>>
             <<<Displacing  23/coordinate 2 (+)>>>
             <<<Displacing  22/coordinate 3 (+)>>>
             <<<Displacing  23/coordinate 2 (-)>>>
             <<<Displacing  22/coordinate 3 (-)>>>
             <<<Displacing  23/coordinate 3 (+)>>>
             <<<Displacing  23/coordinate 1 (+)>>>
             <<<Displacing  24/coordinate 1 (+)>>>
             <<<Displacing  23/coordinate 3 (-)>>>
             <<<Displacing  23/coordinate 1 (-)>>>
             <<<Displacing  24/coordinate 1 (-)>>>
             <<<Displacing  24/coordinate 2 (+)>>>
             <<<Displacing  24/coordinate 2 (-)>>>
             <<<Displacing  24/coordinate 3 (+)>>>
             <<<Displacing  24/coordinate 3 (-)>>>
             <<<Displacing  25/coordinate 2 (+)>>>
             <<<Displacing  25/coordinate 1 (+)>>>
             <<<Displacing  25/coordinate 1 (-)>>>
             <<<Displacing  25/coordinate 2 (-)>>>
             <<<Displacing  26/coordinate 1 (+)>>>
             <<<Displacing  25/coordinate 3 (+)>>>
             <<<Displacing  25/coordinate 3 (-)>>>
             <<<Displacing  26/coordinate 3 (+)>>>
             <<<Displacing  26/coordinate 1 (-)>>>
             <<<Displacing  27/coordinate 1 (+)>>>
             <<<Displacing  26/coordinate 3 (-)>>>
             <<<Displacing  26/coordinate 2 (+)>>>
             <<<Displacing  27/coordinate 1 (-)>>>
             <<<Displacing  26/coordinate 2 (-)>>>
             <<<Displacing  27/coordinate 3 (+)>>>
             <<<Displacing  27/coordinate 2 (+)>>>
             <<<Displacing  27/coordinate 2 (-)>>>
             <<<Displacing  27/coordinate 3 (-)>>>
             <<<Displacing  28/coordinate 1 (+)>>>
             <<<Displacing  28/coordinate 2 (+)>>>
             <<<Displacing  28/coordinate 1 (-)>>>
             <<<Displacing  28/coordinate 3 (+)>>>
             <<<Displacing  28/coordinate 2 (-)>>>
             <<<Displacing  28/coordinate 3 (-)>>>
             <<<Displacing  29/coordinate 3 (+)>>>
             <<<Displacing  29/coordinate 3 (-)>>>
             <<<Displacing  29/coordinate 1 (+)>>>
             <<<Displacing  29/coordinate 2 (+)>>>
             <<<Displacing  29/coordinate 1 (-)>>>
             <<<Displacing  30/coordinate 1 (+)>>>
             <<<Displacing  30/coordinate 2 (+)>>>
             <<<Displacing  29/coordinate 2 (-)>>>
             <<<Displacing  30/coordinate 2 (-)>>>
             <<<Displacing  30/coordinate 1 (-)>>>
             <<<Displacing  30/coordinate 3 (+)>>>
             <<<Displacing  30/coordinate 3 (-)>>>
             <<<Displacing  31/coordinate 2 (+)>>>
             <<<Displacing  31/coordinate 3 (+)>>>
             <<<Displacing  31/coordinate 3 (-)>>>
             <<<Displacing  31/coordinate 2 (-)>>>
             <<<Displacing  31/coordinate 1 (+)>>>
             <<<Displacing  31/coordinate 1 (-)>>>
             <<<Displacing  32/coordinate 2 (+)>>>
             <<<Displacing  32/coordinate 1 (+)>>>
             <<<Displacing  32/coordinate 2 (-)>>>
             <<<Displacing  33/coordinate 1 (+)>>>
             <<<Displacing  32/coordinate 1 (-)>>>
             <<<Displacing  33/coordinate 2 (+)>>>
             <<<Displacing  33/coordinate 1 (-)>>>
             <<<Displacing  32/coordinate 3 (+)>>>
             <<<Displacing  33/coordinate 2 (-)>>>
             <<<Displacing  32/coordinate 3 (-)>>>
             <<<Displacing  33/coordinate 3 (+)>>>
             <<<Displacing  33/coordinate 3 (-)>>>
             <<<Displacing  34/coordinate 1 (+)>>>
             <<<Displacing  34/coordinate 1 (-)>>>
             <<<Displacing  34/coordinate 2 (+)>>>
             <<<Displacing  34/coordinate 2 (-)>>>
             <<<Displacing  34/coordinate 3 (+)>>>
             <<<Displacing  34/coordinate 3 (-)>>>
             <<<Displacing  36/coordinate 1 (+)>>>
             <<<Displacing  35/coordinate 1 (+)>>>
             <<<Displacing  35/coordinate 1 (-)>>>
             <<<Displacing  35/coordinate 3 (+)>>>
             <<<Displacing  35/coordinate 2 (+)>>>
             <<<Displacing  36/coordinate 1 (-)>>>
             <<<Displacing  35/coordinate 2 (-)>>>
             <<<Displacing  35/coordinate 3 (-)>>>
             <<<Displacing  36/coordinate 2 (+)>>>
             <<<Displacing  36/coordinate 2 (-)>>>
             <<<Displacing  36/coordinate 3 (+)>>>
             <<<Displacing  36/coordinate 3 (-)>>>

-----------------------
VIBRATIONAL FREQUENCIES
-----------------------

Scaling factor for frequencies =  1.000000000 (already applied!)

   0:         0.00 cm**-1
   1:         0.00 cm**-1
   2:         0.00 cm**-1
   3:         0.00 cm**-1
   4:         0.00 cm**-1
   5:         0.00 cm**-1
   6:        27.66 cm**-1
   7:        46.98 cm**-1
   8:        60.23 cm**-1
   9:        73.31 cm**-1
  10:        77.90 cm**-1
  11:        90.42 cm**-1
  12:       102.36 cm**-1
  13:       115.95 cm**-1
  14:       144.24 cm**-1
  15:       154.51 cm**-1
  16:       163.03 cm**-1
  17:       177.80 cm**-1
  18:       189.64 cm**-1
  19:       198.37 cm**-1
  20:       251.66 cm**-1
  21:       262.15 cm**-1
  22:       290.98 cm**-1
  23:       303.81 cm**-1
  24:       348.17 cm**-1
  25:       397.35 cm**-1
  26:       400.15 cm**-1
  27:       404.53 cm**-1
  28:       430.04 cm**-1
  29:       473.25 cm**-1
  30:       480.65 cm**-1
  31:       485.14 cm**-1
  32:       515.16 cm**-1
  33:       560.78 cm**-1
  34:       589.46 cm**-1
  35:       608.93 cm**-1
  36:       619.28 cm**-1
  37:       625.63 cm**-1
  38:       677.15 cm**-1
  39:       715.12 cm**-1
  40:       782.34 cm**-1
  41:       795.40 cm**-1
  42:       814.32 cm**-1
  43:       836.46 cm**-1
  44:       845.29 cm**-1
  45:       865.75 cm**-1
  46:       897.39 cm**-1
  47:       922.13 cm**-1
  48:       933.41 cm**-1
  49:       944.18 cm**-1
  50:       951.30 cm**-1
  51:       956.97 cm**-1
  52:       963.77 cm**-1
  53:       974.46 cm**-1
  54:      1007.04 cm**-1
  55:      1041.50 cm**-1
  56:      1054.57 cm**-1
  57:      1075.88 cm**-1
  58:      1110.01 cm**-1
  59:      1118.93 cm**-1
  60:      1145.66 cm**-1
  61:      1182.76 cm**-1
  62:      1187.61 cm**-1
  63:      1208.45 cm**-1
  64:      1215.02 cm**-1
  65:      1245.14 cm**-1
  66:      1259.72 cm**-1
  67:      1272.03 cm**-1
  68:      1279.50 cm**-1
  69:      1282.29 cm**-1
  70:      1329.24 cm**-1
  71:      1356.70 cm**-1
  72:      1368.90 cm**-1
  73:      1407.96 cm**-1
  74:      1433.41 cm**-1
  75:      1438.07 cm**-1
  76:      1470.99 cm**-1
  77:      1501.13 cm**-1
  78:      1507.27 cm**-1
  79:      1511.24 cm**-1
  80:      1514.50 cm**-1
  81:      1522.85 cm**-1
  82:      1532.29 cm**-1
  83:      1555.13 cm**-1
  84:      1562.00 cm**-1
  85:      1584.28 cm**-1
  86:      1600.83 cm**-1
  87:      2668.86 cm**-1
  88:      2816.55 cm**-1
  89:      2834.04 cm**-1
  90:      2874.02 cm**-1
  91:      2881.49 cm**-1
  92:      2889.96 cm**-1
  93:      2898.53 cm**-1
  94:      2906.19 cm**-1
  95:      2913.57 cm**-1
  96:      2918.84 cm**-1
  97:      2930.59 cm**-1
  98:      2955.91 cm**-1
  99:      2984.54 cm**-1
 100:      2992.03 cm**-1
 101:      2998.64 cm**-1
 102:      3006.88 cm**-1
 103:      3032.46 cm**-1
 104:      3103.64 cm**-1
 105:      3427.06 cm**-1
 106:      3433.83 cm**-1
 107:      3444.07 cm**-1


------------
NORMAL MODES
------------

These modes are the cartesian displacements weighted by the diagonal matrix
M(i,i)=1/sqrt(m[i]) where m[i] is the mass of the displaced atom
Thus, these vectors are normalized but *not* orthogonal

                  0          1          2          3          4          5    
      0       0.000000   0.000000   0.000000   0.000000   0.000000   0.000000
      1       0.000000   0.000000   0.000000   0.000000   0.000000   0.000000
      2       0.000000   0.000000   0.000000   0.000000   0.000000   0.000000
      3       0.000000   0.000000   0.000000   0.000000   0.000000   0.000000
      4       0.000000   0.000000   0.000000   0.000000   0.000000   0.000000
      5       0.000000   0.000000   0.000000   0.000000   0.000000   0.000000
      6       0.000000   0.000000   0.000000   0.000000   0.000000   0.000000
      7       0.000000   0.000000   0.000000   0.000000   0.000000   0.000000
      8       0.000000   0.000000   0.000000   0.000000   0.000000   0.000000
      9       0.000000   0.000000   0.000000   0.000000   0.000000   0.000000
     10       0.000000   0.000000   0.000000   0.000000   0.000000   0.000000
     11       0.000000   0.000000   0.000000   0.000000   0.000000   0.000000
     12       0.000000   0.000000   0.000000   0.000000   0.000000   0.000000
     13       0.000000   0.000000   0.000000   0.000000   0.000000   0.000000
     14       0.000000   0.000000   0.000000   0.000000   0.000000   0.000000
     15       0.000000   0.000000   0.000000   0.000000   0.000000   0.000000
     16       0.000000   0.000000   0.000000   0.000000   0.000000   0.000000
     17       0.000000   0.000000   0.000000   0.000000   0.000000   0.000000
     18       0.000000   0.000000   0.000000   0.000000   0.000000   0.000000
     19       0.000000   0.000000   0.000000   0.000000   0.000000   0.000000
     20       0.000000   0.000000   0.000000   0.000000   0.000000   0.000000
     21       0.000000   0.000000   0.000000   0.000000   0.000000   0.000000
     22       0.000000   0.000000   0.000000   0.000000   0.000000   0.000000
     23       0.000000   0.000000   0.000000   0.000000   0.000000   0.000000
     24       0.000000   0.000000   0.000000   0.000000   0.000000   0.000000
     25       0.000000   0.000000   0.000000   0.000000   0.000000   0.000000
     26       0.000000   0.000000   0.000000   0.000000   0.000000   0.000000
     27       0.000000   0.000000   0.000000   0.000000   0.000000   0.000000
     28       0.000000   0.000000   0.000000   0.000000   0.000000   0.000000
     29       0.000000   0.000000   0.000000   0.000000   0.000000   0.000000
     30       0.000000   0.000000   0.000000   0.000000   0.000000   0.000000
     31       0.000000   0.000000   0.000000   0.000000   0.000000   0.000000
     32       0.000000   0.000000   0.000000   0.000000   0.000000   0.000000
     33       0.000000   0.000000   0.000000   0.000000   0.000000   0.000000
     34       0.000000   0.000000   0.000000   0.000000   0.000000   0.000000
     35       0.000000   0.000000   0.000000   0.000000   0.000000   0.000000
     36       0.000000   0.000000   0.000000   0.000000   0.000000   0.000000
     37       0.000000   0.000000   0.000000   0.000000   0.000000   0.000000
     38       0.000000   0.000000   0.000000   0.000000   0.000000   0.000000
     39       0.000000   0.000000   0.000000   0.000000   0.000000   0.000000
     40       0.000000   0.000000   0.000000   0.000000   0.000000   0.000000
     41       0.000000   0.000000   0.000000   0.000000   0.000000   0.000000
     42       0.000000   0.000000   0.000000   0.000000   0.000000   0.000000
     43       0.000000   0.000000   0.000000   0.000000   0.000000   0.000000
     44       0.000000   0.000000   0.000000   0.000000   0.000000   0.000000
     45       0.000000   0.000000   0.000000   0.000000   0.000000   0.000000
     46       0.000000   0.000000   0.000000   0.000000   0.000000   0.000000
     47       0.000000   0.000000   0.000000   0.000000   0.000000   0.000000
     48       0.000000   0.000000   0.000000   0.000000   0.000000   0.000000
     49       0.000000   0.000000   0.000000   0.000000   0.000000   0.000000
     50       0.000000   0.000000   0.000000   0.000000   0.000000   0.000000
     51       0.000000   0.000000   0.000000   0.000000   0.000000   0.000000
     52       0.000000   0.000000   0.000000   0.000000   0.000000   0.000000
     53       0.000000   0.000000   0.000000   0.000000   0.000000   0.000000
     54       0.000000   0.000000   0.000000   0.000000   0.000000   0.000000
     55       0.000000   0.000000   0.000000   0.000000   0.000000   0.000000
     56       0.000000   0.000000   0.000000   0.000000   0.000000   0.000000
     57       0.000000   0.000000   0.000000   0.000000   0.000000   0.000000
     58       0.000000   0.000000   0.000000   0.000000   0.000000   0.000000
     59       0.000000   0.000000   0.000000   0.000000   0.000000   0.000000
     60       0.000000   0.000000   0.000000   0.000000   0.000000   0.000000
     61       0.000000   0.000000   0.000000   0.000000   0.000000   0.000000
     62       0.000000   0.000000   0.000000   0.000000   0.000000   0.000000
     63       0.000000   0.000000   0.000000   0.000000   0.000000   0.000000
     64       0.000000   0.000000   0.000000   0.000000   0.000000   0.000000
     65       0.000000   0.000000   0.000000   0.000000   0.000000   0.000000
     66       0.000000   0.000000   0.000000   0.000000   0.000000   0.000000
     67       0.000000   0.000000   0.000000   0.000000   0.000000   0.000000
     68       0.000000   0.000000   0.000000   0.000000   0.000000   0.000000
     69       0.000000   0.000000   0.000000   0.000000   0.000000   0.000000
     70       0.000000   0.000000   0.000000   0.000000   0.000000   0.000000
     71       0.000000   0.000000   0.000000   0.000000   0.000000   0.000000
     72       0.000000   0.000000   0.000000   0.000000   0.000000   0.000000
     73       0.000000   0.000000   0.000000   0.000000   0.000000   0.000000
     74       0.000000   0.000000   0.000000   0.000000   0.000000   0.000000
     75       0.000000   0.000000   0.000000   0.000000   0.000000   0.000000
     76       0.000000   0.000000   0.000000   0.000000   0.000000   0.000000
     77       0.000000   0.000000   0.000000   0.000000   0.000000   0.000000
     78       0.000000   0.000000   0.000000   0.000000   0.000000   0.000000
     79       0.000000   0.000000   0.000000   0.000000   0.000000   0.000000
     80       0.000000   0.000000   0.000000   0.000000   0.000000   0.000000
     81       0.000000   0.000000   0.000000   0.000000   0.000000   0.000000
     82       0.000000   0.000000   0.000000   0.000000   0.000000   0.000000
     83       0.000000   0.000000   0.000000   0.000000   0.000000   0.000000
     84       0.000000   0.000000   0.000000   0.000000   0.000000   0.000000
     85       0.000000   0.000000   0.000000   0.000000   0.000000   0.000000
     86       0.000000   0.000000   0.000000   0.000000   0.000000   0.000000
     87       0.000000   0.000000   0.000000   0.000000   0.000000   0.000000
     88       0.000000   0.000000   0.000000   0.000000   0.000000   0.000000
     89       0.000000   0.000000   0.000000   0.000000   0.000000   0.000000
     90       0.000000   0.000000   0.000000   0.000000   0.000000   0.000000
     91       0.000000   0.000000   0.000000   0.000000   0.000000   0.000000
     92       0.000000   0.000000   0.000000   0.000000   0.000000   0.000000
     93       0.000000   0.000000   0.000000   0.000000   0.000000   0.000000
     94       0.000000   0.000000   0.000000   0.000000   0.000000   0.000000
     95       0.000000   0.000000   0.000000   0.000000   0.000000   0.000000
     96       0.000000   0.000000   0.000000   0.000000   0.000000   0.000000
     97       0.000000   0.000000   0.000000   0.000000   0.000000   0.000000
     98       0.000000   0.000000   0.000000   0.000000   0.000000   0.000000
     99       0.000000   0.000000   0.000000   0.000000   0.000000   0.000000
    100       0.000000   0.000000   0.000000   0.000000   0.000000   0.000000
    101       0.000000   0.000000   0.000000   0.000000   0.000000   0.000000
    102       0.000000   0.000000   0.000000   0.000000   0.000000   0.000000
    103       0.000000   0.000000   0.000000   0.000000   0.000000   0.000000
    104       0.000000   0.000000   0.000000   0.000000   0.000000   0.000000
    105       0.000000   0.000000   0.000000   0.000000   0.000000   0.000000
    106       0.000000   0.000000   0.000000   0.000000   0.000000   0.000000
    107       0.000000   0.000000   0.000000   0.000000   0.000000   0.000000
                  6          7          8          9         10         11    
      0      -0.044673  -0.060052  -0.050509   0.029124   0.018619  -0.002504
      1      -0.018770   0.096410  -0.025844   0.037946  -0.026224  -0.007382
      2      -0.052161  -0.025357   0.004421  -0.066250   0.013842  -0.025584
      3      -0.042508  -0.071528  -0.044140   0.005591  -0.009801  -0.034387
      4      -0.012698   0.076207  -0.038468   0.021063  -0.000915  -0.013501
      5      -0.057703  -0.011023   0.019411  -0.060936  -0.023113  -0.034839
      6      -0.038421  -0.073840  -0.040907  -0.017846  -0.022700  -0.076187
      7      -0.001051   0.090152  -0.058905  -0.004503   0.079826  -0.052981
      8      -0.068455  -0.016587   0.026995  -0.024625  -0.054516   0.023397
      9      -0.036903  -0.064122  -0.044551  -0.018482  -0.006277  -0.087900
     10       0.002990   0.122826  -0.069355  -0.010369   0.136316  -0.086777
     11      -0.074600  -0.034233   0.021729   0.000975  -0.048180   0.091458
     12      -0.039089  -0.051890  -0.051997   0.002901   0.023987  -0.058224
     13      -0.003096   0.141742  -0.061383   0.006575   0.116902  -0.084629
     14      -0.069319  -0.047892   0.010427  -0.005726  -0.014429   0.104459
     15      -0.043318  -0.049384  -0.055015   0.025070   0.037564  -0.017053
     16      -0.013384   0.130282  -0.040786   0.028421   0.038676  -0.047923
     17      -0.058977  -0.044013   0.001779  -0.038268   0.016046   0.046552
     18      -0.052529  -0.052312  -0.053298   0.043876   0.033334   0.033513
     19      -0.036684   0.079317   0.001928   0.050655  -0.112043   0.027278
     20      -0.035889  -0.022983  -0.007141  -0.083824   0.044548  -0.072070
     21      -0.044449  -0.079005  -0.043013   0.006544  -0.023151  -0.026614
     22      -0.019168   0.049273  -0.034402   0.025298  -0.046402   0.011192
     23      -0.051561   0.008687   0.026759  -0.085921  -0.020876  -0.087584
     24      -0.045778  -0.039894  -0.060589   0.038862   0.061852   0.004071
     25      -0.017617   0.144862  -0.034221   0.038905   0.024979  -0.046866
     26      -0.056101  -0.053439  -0.007342  -0.041507   0.041211   0.055571
     27      -0.033650  -0.066033  -0.041387  -0.035485  -0.017209  -0.116543
     28       0.010924   0.131050  -0.083348  -0.027270   0.191087  -0.111971
     29      -0.081458  -0.037045   0.026379   0.025737  -0.068335   0.131821
     30      -0.053629  -0.066718  -0.039797   0.053259   0.027474   0.051910
     31      -0.038668   0.046776   0.031602   0.065916  -0.145294   0.055164
     32      -0.034799  -0.014972  -0.017478  -0.095333   0.018383  -0.099904
     33      -0.065526  -0.047951  -0.040327   0.026628   0.037436   0.033700
     34      -0.061708   0.031833   0.033133   0.041632  -0.176718   0.051256
     35      -0.011414  -0.019954  -0.019402  -0.057608   0.030737  -0.079874
     36       0.060181  -0.060743   0.157905   0.024600   0.146786  -0.048428
     37       0.036546   0.013079   0.164058   0.066065  -0.093040  -0.018154
     38      -0.093250   0.077331  -0.017712  -0.229889  -0.096832  -0.118244
     39      -0.044514  -0.017901   0.009061   0.065199  -0.040768   0.069610
     40      -0.076653  -0.035938  -0.059019   0.042418  -0.043207   0.053107
     41       0.021357  -0.023127  -0.003225   0.031313  -0.005372   0.002761
     42      -0.063734  -0.017683  -0.015755   0.013556   0.012253   0.019765
     43      -0.058848   0.065918   0.078495   0.036202  -0.248805   0.049500
     44      -0.013960  -0.037670  -0.062257  -0.063887   0.115165  -0.092910
     45      -0.091999  -0.085187  -0.099607  -0.016774   0.129062  -0.003251
     46      -0.074054   0.033978   0.045646   0.021126  -0.209988   0.041798
     47      -0.014520  -0.004712   0.014602  -0.062353  -0.035870  -0.075518
     48      -0.047208  -0.055240  -0.037096   0.084546   0.026005   0.092221
     49      -0.079682  -0.065033  -0.097744   0.051347   0.012178   0.062129
     50       0.023146  -0.018597   0.006498   0.038435  -0.018319   0.013415
     51      -0.018338   0.018430   0.071032   0.115867  -0.139119   0.118402
     52      -0.063898  -0.027571  -0.042542   0.068992  -0.072359   0.076249
     53       0.025001  -0.027529  -0.008293   0.040439  -0.000475   0.009292
     54       0.228567   0.195000  -0.091560  -0.145101  -0.062823   0.083704
     55       0.262632  -0.215433  -0.028063  -0.273963   0.034091   0.247843
     56       0.335083  -0.047857  -0.193778   0.209750  -0.060479  -0.212873
     57      -0.059874  -0.029780  -0.068563   0.034362   0.051639   0.029392
     58      -0.049751   0.097177  -0.007162   0.036672  -0.133581   0.018843
     59      -0.021675  -0.032930  -0.005027  -0.069136   0.091877  -0.061870
     60       0.211272   0.228815  -0.086170  -0.181844  -0.017082   0.178632
     61       0.282774  -0.221035  -0.040220  -0.263132   0.024061   0.224535
     62       0.357641  -0.059851  -0.206323   0.227331  -0.079081  -0.254485
     63       0.097254   0.204968   0.090222  -0.056864   0.001049   0.002257
     64       0.058166  -0.219899   0.292564  -0.008198  -0.000014  -0.186707
     65      -0.001680   0.167801   0.155555   0.110424   0.264269   0.157433
     66       0.200670   0.200166  -0.052557  -0.126678  -0.054367   0.057849
     67       0.203329  -0.221129   0.066026  -0.208972   0.036497   0.141406
     68       0.253523  -0.000294  -0.106541   0.197622   0.015073  -0.139198
     69       0.111939   0.221531   0.088549   0.005597   0.004714   0.000783
     70       0.056179  -0.188840   0.298149   0.010803   0.021843  -0.141414
     71      -0.009056   0.197387   0.162237   0.110932   0.287603   0.209207
     72       0.093546  -0.029365   0.209597  -0.003784   0.162208  -0.077012
     73       0.051405   0.024363   0.182401   0.059680  -0.082057  -0.027656
     74      -0.102302   0.118779  -0.002360  -0.272900  -0.110928  -0.122116
     75       0.111772   0.151281   0.118877  -0.048418   0.049749  -0.003345
     76       0.050435  -0.165108   0.270522  -0.002394  -0.035158  -0.172696
     77      -0.031086   0.174794   0.115475   0.007982   0.165320   0.096394
     78       0.075578  -0.030539   0.180329  -0.031520   0.118397  -0.090440
     79       0.068968   0.018977   0.188150   0.057979  -0.083093  -0.046336
     80      -0.116236   0.117056  -0.026913  -0.296690  -0.148735  -0.135406
     81      -0.035756  -0.082710  -0.035701  -0.033255  -0.046061  -0.098769
     82       0.003517   0.075929  -0.065985  -0.018842   0.096014  -0.055516
     83      -0.071359  -0.007644   0.036395  -0.018325  -0.081953   0.014670
     84      -0.037865  -0.045196  -0.054714   0.001522   0.036483  -0.065540
     85       0.001029   0.164057  -0.070771   0.002934   0.158881  -0.109329
     86      -0.072836  -0.060286   0.007860   0.014713  -0.010937   0.155951
     87      -0.053411   0.012863   0.040741   0.010176  -0.079399   0.008765
     88      -0.103509  -0.073316  -0.120152  -0.001248   0.054908   0.015875
     89       0.044090  -0.027298   0.005711   0.104353  -0.031695   0.078125
     90      -0.071112  -0.008730   0.001534  -0.031516  -0.008530  -0.036049
     91      -0.116853  -0.085340  -0.142399  -0.028297   0.091691  -0.008692
     92       0.036389  -0.032225  -0.003661   0.090977  -0.018453   0.068525
     93      -0.051910   0.043531   0.079674  -0.014283  -0.134384  -0.020973
     94      -0.104885  -0.055669  -0.097814  -0.017471   0.021081  -0.000514
     95       0.047638  -0.020261   0.014626   0.102019  -0.041053   0.070476
     96      -0.040080   0.029744   0.071547   0.043255  -0.136660   0.045407
     97      -0.109150  -0.115415  -0.178193   0.014808   0.144716   0.034239
     98       0.068087  -0.034331   0.012899   0.195338  -0.063245   0.179297
     99      -0.039398   0.007494   0.043971   0.067764  -0.098864   0.074803
    100      -0.109512  -0.134565  -0.203461   0.029142   0.182591   0.049950
    101       0.069425  -0.031979   0.018078   0.202758  -0.075138   0.190391
    102      -0.046942   0.043567   0.084066   0.003539  -0.146547  -0.000991
    103      -0.120053  -0.127713  -0.200390  -0.009363   0.184300   0.009875
    104       0.079332  -0.038309   0.015310   0.239282  -0.077209   0.228534
    105      -0.024973   0.049636   0.107598   0.080876  -0.203709   0.087589
    106      -0.101682  -0.112694  -0.170467   0.035938   0.128778   0.055921
    107       0.071448  -0.037755   0.009809   0.206524  -0.059237   0.189645
                 12         13         14         15         16         17    
      0       0.004452   0.001648  -0.036079   0.043296   0.071334  -0.029730
      1      -0.012395   0.004181  -0.096883   0.163539  -0.002099   0.024557
      2      -0.057280   0.040082   0.058223  -0.087215  -0.056049   0.022131
      3      -0.103255  -0.036604  -0.035772   0.058811   0.021453   0.005051
      4      -0.116006  -0.160576  -0.069116   0.143383  -0.020796   0.011210
      5      -0.008172   0.179388   0.031031  -0.056763  -0.062464   0.051687
      6      -0.175084  -0.028647  -0.014854   0.032521  -0.032223   0.040236
      7      -0.094716  -0.183241   0.024517   0.000541  -0.031214  -0.015945
      8       0.045008   0.184676  -0.040174   0.046992  -0.008703   0.036844
      9      -0.141584   0.015557   0.003269  -0.003102  -0.029772   0.038863
     10       0.021649  -0.034841   0.084609  -0.116772  -0.020597  -0.021748
     11       0.055378   0.044885  -0.084120   0.128370   0.049490  -0.010905
     12      -0.036808   0.058066  -0.004771  -0.006158   0.026900   0.005038
     13       0.118609   0.139993   0.035080  -0.063133   0.014603  -0.004934
     14       0.011952  -0.105582  -0.039663   0.074972   0.042268  -0.043564
     15       0.036053   0.050417  -0.025662   0.021580   0.078420  -0.030107
     16       0.101659   0.155642  -0.059323   0.086046   0.024465   0.016981
     17      -0.046158  -0.107335   0.032007  -0.033674  -0.013367  -0.021627
     18       0.068780  -0.013455  -0.038408   0.042645   0.068979  -0.030694
     19      -0.023798   0.018437  -0.095695   0.152608  -0.025749   0.016843
     20      -0.105406   0.044152   0.061682  -0.087435  -0.044766   0.024532
     21      -0.130193  -0.071774  -0.048300   0.084090   0.017389   0.007614
     22      -0.209435  -0.269700  -0.111282   0.223891  -0.034810   0.022348
     23      -0.007266   0.271998   0.058998  -0.089245  -0.108167   0.088672
     24       0.114214   0.077324  -0.030910   0.023149   0.120672  -0.055936
     25       0.174075   0.278195  -0.086361   0.113554   0.044531   0.026123
     26      -0.078515  -0.213556   0.056067  -0.059856  -0.012584  -0.043156
     27      -0.193654   0.018806   0.022156  -0.028096  -0.069141   0.061977
     28       0.035026  -0.051744   0.160578  -0.236276  -0.036036  -0.038699
     29       0.095736   0.051092  -0.143191   0.216785   0.094142  -0.022855
     30       0.067631  -0.029059   0.024246  -0.042409   0.038135  -0.010985
     31      -0.039349   0.002828   0.018972   0.001127  -0.066435   0.021187
     32      -0.115353   0.082484  -0.007051   0.014790   0.010542  -0.046277
     33       0.054260  -0.032067  -0.008741  -0.062442   0.014159   0.031962
     34      -0.043028   0.022762   0.099751  -0.039883  -0.097195  -0.040379
     35      -0.097133   0.070748  -0.026675   0.051458   0.045766  -0.043671
     36       0.107250   0.020027   0.122561   0.181598  -0.148903  -0.009806
     37      -0.088207   0.039913  -0.070349  -0.146640   0.047328   0.014690
     38       0.119194  -0.114049  -0.002925  -0.012176   0.006662   0.002966
     39       0.063536  -0.038484  -0.081079  -0.130756  -0.124721  -0.021735
     40       0.006235   0.007420   0.248142   0.067676   0.158948   0.064532
     41      -0.024985   0.040375  -0.041061   0.023652   0.005768  -0.057631
     42       0.030684  -0.030196  -0.079792  -0.087239  -0.059136   0.034928
     43      -0.064750   0.033472   0.024407  -0.104447  -0.246602  -0.108502
     44      -0.090224   0.055902   0.007822   0.124691   0.191619   0.067813
     45       0.048052  -0.027965   0.098445   0.005940   0.181975   0.108876
     46      -0.055417   0.037935   0.115418  -0.079269  -0.161205  -0.099537
     47      -0.106993   0.084268  -0.047166  -0.013760  -0.079546  -0.129538
     48       0.125312  -0.052521  -0.106721  -0.142721  -0.122183  -0.078346
     49       0.033989  -0.006627   0.343603   0.132229   0.309431   0.166041
     50      -0.000915   0.046256  -0.213547  -0.087954  -0.220522  -0.270325
     51       0.078988  -0.048814  -0.156571  -0.210062  -0.286949  -0.084453
     52       0.005803  -0.007655   0.362547   0.123990   0.280891   0.220553
     53      -0.030701   0.028454   0.103601   0.108635   0.188006   0.124154
     54       0.006046   0.024834  -0.051548  -0.094580   0.126879  -0.027030
     55      -0.037306   0.023439   0.018152   0.034934  -0.049016   0.017385
     56       0.013639  -0.053476   0.020800   0.012245  -0.025905   0.009421
     57       0.104496  -0.006850  -0.092635   0.101774   0.077886  -0.031134
     58      -0.003428   0.047097  -0.152896   0.219031  -0.014732  -0.017909
     59      -0.108222   0.005247   0.109768  -0.142847  -0.056550   0.075801
     60      -0.031363   0.030831  -0.050493  -0.095670   0.126626  -0.024262
     61      -0.036792   0.016471   0.025718   0.038954  -0.063597   0.019881
     62       0.022005  -0.061351   0.027283   0.014556  -0.037698   0.010792
     63       0.031431   0.024689  -0.003117   0.017080  -0.033873   0.002682
     64       0.082751  -0.060648  -0.069572  -0.090708   0.137737  -0.015903
     65      -0.124676  -0.060918  -0.010653  -0.039830   0.051246   0.015290
     66       0.013132   0.018079  -0.059085  -0.104207   0.142577  -0.029451
     67      -0.003953   0.005879   0.006857   0.025505  -0.029938   0.013342
     68      -0.015703  -0.053753   0.012174   0.004852  -0.009549   0.010102
     69      -0.005775   0.041383  -0.009188   0.006952  -0.039638   0.005363
     70       0.042033  -0.046235  -0.082604  -0.113672   0.158024  -0.017401
     71      -0.158289  -0.050288  -0.023262  -0.062263   0.076176   0.012602
     72       0.121889   0.007168   0.110053   0.210957  -0.161040  -0.005381
     73      -0.089884   0.045071  -0.066991  -0.115597   0.026913   0.015390
     74       0.202814  -0.200636   0.006057   0.002724  -0.001246   0.026397
     75       0.044954   0.020029   0.012451   0.046413  -0.041636  -0.000823
     76       0.056302  -0.054208  -0.092970  -0.132152   0.161061  -0.014384
     77      -0.044926  -0.096330  -0.014375  -0.045787   0.052166   0.017604
     78       0.153652   0.004356   0.127173   0.213035  -0.180069   0.005705
     79      -0.120103   0.089738  -0.070346  -0.100571   0.008954   0.006973
     80       0.227253  -0.198762   0.020383   0.005414  -0.019134   0.035296
     81      -0.252577  -0.053062  -0.010290   0.032514  -0.074482   0.066117
     82      -0.165924  -0.304209   0.051857  -0.025337  -0.050514  -0.028145
     83       0.076037   0.290213  -0.064659   0.072273  -0.010698   0.061531
     84      -0.012055   0.091673   0.006346  -0.029230   0.031204   0.003358
     85       0.202083   0.251436   0.072328  -0.139969   0.029219  -0.011004
     86       0.023751  -0.210883  -0.062233   0.118175   0.080493  -0.082359
     87      -0.034857  -0.009020   0.007534  -0.063583  -0.027059   0.077441
     88       0.028709   0.026581   0.067332  -0.010221   0.006055  -0.176738
     89       0.046450   0.003642  -0.005972   0.005418   0.009821   0.000807
     90      -0.047616  -0.007635  -0.115742  -0.090399  -0.059275   0.219045
     91       0.026345   0.045225  -0.007844  -0.037415  -0.067298  -0.356793
     92       0.048630   0.022497  -0.039797  -0.013407  -0.054937  -0.236782
     93      -0.105769   0.014938   0.120781   0.008322   0.067124   0.083381
     94      -0.008419   0.053217   0.127786   0.022778   0.020489  -0.361252
     95       0.025160  -0.009767   0.025669   0.033066   0.087592   0.276470
     96      -0.024583  -0.009778   0.117394  -0.044156   0.002689  -0.040355
     97       0.103032  -0.016622  -0.114730  -0.106133  -0.085561   0.087615
     98       0.149295  -0.044652   0.043276  -0.048431  -0.019378   0.020791
     99       0.034746  -0.035299   0.038012  -0.106304  -0.063472   0.013441
    100       0.143644  -0.042866  -0.196646  -0.155586  -0.126657   0.249838
    101       0.158491  -0.035681   0.071639  -0.048017  -0.035926  -0.155854
    102      -0.087859   0.015608   0.141347   0.007173   0.052704  -0.035499
    103       0.099807  -0.005407  -0.189272  -0.122188  -0.130185   0.015749
    104       0.200030  -0.070431   0.065487  -0.079421  -0.033795   0.056320
    105      -0.013166  -0.010110   0.250574  -0.019227   0.040659  -0.183336
    106       0.117611  -0.032541  -0.088525  -0.110442  -0.067510   0.188743
    107       0.161710  -0.062102   0.029424  -0.061304  -0.011652   0.178163
                 18         19         20         21         22         23    
      0       0.076716  -0.005474  -0.059540  -0.051618   0.021251  -0.032802
      1      -0.079071  -0.011227   0.038991   0.032196  -0.023556   0.013205
      2      -0.076741  -0.012443  -0.011982   0.008529   0.031520   0.013104
      3      -0.015399  -0.019004  -0.047440  -0.032936   0.039695  -0.063014
      4      -0.082313  -0.010411   0.044901   0.043045  -0.073816  -0.090021
      5      -0.121425  -0.019032  -0.016564   0.006804   0.097611   0.099326
      6      -0.095736  -0.026574  -0.024398  -0.003886   0.054546  -0.010496
      7      -0.015758   0.003343  -0.015995  -0.002432  -0.008754  -0.012976
      8      -0.092756  -0.022743  -0.008203   0.004308   0.062519   0.006783
      9      -0.082890  -0.025178  -0.038495  -0.014360   0.089967   0.022929
     10       0.030816   0.006919  -0.066710  -0.042996   0.115673   0.090496
     11      -0.017113  -0.018099  -0.035633  -0.024182   0.006211  -0.122824
     12       0.004151  -0.016926  -0.051532  -0.034231   0.048633  -0.035171
     13       0.018381  -0.003825  -0.030597  -0.017880   0.031933  -0.062417
     14       0.036921  -0.004386  -0.077158  -0.057355   0.068319  -0.001337
     15       0.084021  -0.007808  -0.074459  -0.061290   0.024274  -0.069846
     16      -0.038645  -0.013360   0.010385   0.014342  -0.043929  -0.096874
     17      -0.008228  -0.007298  -0.068032  -0.041969   0.119728   0.058668
     18       0.058325  -0.006928  -0.050166  -0.024474   0.032841   0.083726
     19      -0.044382   0.025364  -0.028369   0.006353   0.034579   0.201134
     20      -0.065970  -0.021674   0.049370   0.021441  -0.071259  -0.155810
     21      -0.031236  -0.019503  -0.040944  -0.023616   0.029618  -0.078932
     22      -0.141037  -0.014825   0.063540   0.075175  -0.097655  -0.142071
     23      -0.186612  -0.027469  -0.003504   0.008115   0.145353   0.152960
     24       0.145294  -0.005139  -0.115417  -0.096956   0.044976  -0.113394
     25      -0.039414  -0.016567   0.018844   0.020940  -0.081355  -0.147787
     26       0.022531  -0.002294  -0.095021  -0.065035   0.164449   0.087566
     27      -0.133011  -0.028207  -0.026372   0.001621   0.114415   0.080096
     28       0.075270   0.017038  -0.118241  -0.077970   0.220247   0.227895
     29       0.004734  -0.020821  -0.017965  -0.019354  -0.074761  -0.250392
     30       0.037089  -0.018026   0.039444  -0.012208   0.106946  -0.057755
     31      -0.001491   0.042529   0.076281   0.001869   0.135707  -0.037608
     32       0.079259   0.059250  -0.111750   0.004174  -0.257016   0.057819
     33      -0.059754  -0.082626   0.054638   0.003037  -0.065544   0.044890
     34       0.080111   0.163083  -0.138367   0.005256   0.027829  -0.088101
     35       0.111752   0.046238   0.050179   0.023466  -0.101002   0.033030
     36      -0.029233   0.135729   0.052192  -0.111218   0.023385  -0.026941
     37       0.111164  -0.198653   0.054255  -0.265404  -0.008701  -0.012338
     38       0.056320  -0.027801  -0.033913  -0.058878  -0.076177   0.031143
     39      -0.022228   0.003913   0.054849   0.030759  -0.021419   0.008416
     40       0.021107   0.009881   0.018283   0.026754  -0.005856   0.012467
     41       0.133329   0.076356   0.179640   0.073754   0.084565   0.028932
     42      -0.102477  -0.091650   0.039383  -0.006077  -0.122869   0.071101
     43       0.113743   0.262330  -0.273021  -0.004230   0.005214  -0.140537
     44       0.003924  -0.121429   0.243353   0.026538  -0.129767   0.145568
     45      -0.119944  -0.193388   0.063139  -0.014208  -0.194242   0.101054
     46       0.130103   0.256205  -0.320351  -0.008294  -0.025638  -0.162447
     47       0.181863   0.179616  -0.135891   0.016060  -0.106406  -0.064034
     48      -0.101943  -0.084752   0.116936   0.033826   0.008877   0.038872
     49      -0.001777  -0.058933   0.081923   0.031069  -0.011001   0.068225
     50       0.081589   0.085508   0.146593   0.069218   0.122441  -0.024117
     51       0.003908   0.095891   0.002842   0.036096   0.073599  -0.057984
     52       0.062458   0.030844   0.020467   0.029634   0.010021   0.030572
     53       0.164893   0.064244   0.197588   0.073896   0.064964   0.069753
     54      -0.125005   0.175474   0.031124  -0.109983  -0.007985   0.003089
     55       0.047332  -0.062977  -0.007857   0.028295   0.003612  -0.003394
     56       0.020070  -0.030340  -0.004956   0.012522   0.002224  -0.002342
     57       0.013409  -0.018877  -0.140661  -0.018167  -0.013251   0.260756
     58      -0.007982   0.070927  -0.201733   0.001117  -0.087681   0.474449
     59      -0.153228  -0.096497   0.245950   0.035206   0.076458  -0.438784
     60      -0.125545   0.184227   0.037554  -0.135388  -0.018386   0.014668
     61       0.054382  -0.069743  -0.007499   0.035068  -0.007051   0.027779
     62       0.025337  -0.036326  -0.005676   0.022413  -0.004741   0.022586
     63       0.095512  -0.178334  -0.079986   0.294554   0.032665  -0.005264
     64      -0.091346   0.092189  -0.032277   0.145869   0.019610  -0.001945
     65      -0.016996   0.031650  -0.002904   0.018433   0.002947  -0.000871
     66      -0.135125   0.186200   0.025454  -0.089376  -0.006083   0.004099
     67       0.039605  -0.064222  -0.027221   0.099532   0.011211  -0.000723
     68       0.016743  -0.025095  -0.012308   0.033765   0.001051  -0.002862
     69       0.132007  -0.242607  -0.099380   0.354887   0.038611  -0.011713
     70      -0.093753   0.092895  -0.036273   0.144857   0.017235   0.000747
     71      -0.032828   0.055785   0.000278  -0.007606  -0.002355   0.004450
     72      -0.013325   0.088544   0.042438  -0.156153  -0.033724   0.012471
     73       0.111496  -0.198846   0.047499  -0.283047  -0.036153   0.007624
     74       0.031044  -0.052732   0.032234  -0.056740   0.001529  -0.009588
     75       0.064419  -0.120496  -0.076798   0.290067   0.027743  -0.001165
     76      -0.065498   0.037714  -0.043417   0.176091   0.025317  -0.006217
     77      -0.007881   0.010555   0.002326   0.018980   0.010166  -0.003819
     78       0.000771   0.063749   0.081810  -0.260348  -0.009700   0.005820
     79       0.148770  -0.224915   0.018781  -0.374039  -0.122377   0.057131
     80       0.047401  -0.077649   0.064239  -0.159188   0.013706  -0.010361
     81      -0.158486  -0.030756   0.009704   0.030946   0.028289   0.020056
     82      -0.009196   0.008788  -0.029775  -0.006296  -0.017789  -0.004165
     83      -0.130241  -0.030382   0.021705   0.025251   0.058923   0.013113
     84       0.015640  -0.016202  -0.054798  -0.036671   0.049372  -0.044506
     85       0.057602  -0.000804  -0.040876  -0.025625   0.032983  -0.092737
     86       0.108025   0.006875  -0.097281  -0.083876   0.049857   0.006895
     87       0.111129   0.096909   0.103480   0.074610  -0.092868   0.030797
     88      -0.064208  -0.068673   0.100565   0.045276  -0.037028   0.030327
     89       0.072904   0.048332   0.108330   0.043442   0.119744   0.012822
     90       0.264833   0.219812   0.153443   0.100963  -0.053874   0.036705
     91      -0.124535  -0.129170   0.171186   0.060518  -0.020655   0.041274
     92      -0.045537  -0.058927   0.162806   0.049612   0.119966   0.021923
     93       0.164896   0.120976   0.157159   0.101557  -0.063150   0.040966
     94      -0.137886  -0.147893   0.164826   0.061292  -0.016355   0.041227
     95       0.236974   0.189926   0.069488   0.048411   0.117451   0.007339
     96      -0.020216  -0.007884   0.066325   0.062771  -0.187258   0.036325
     97       0.051478   0.063617   0.013080   0.028972  -0.110413   0.018033
     98      -0.105888  -0.052262  -0.097624  -0.022364  -0.122244  -0.002660
     99      -0.053039  -0.011395  -0.001880   0.041314  -0.301859   0.042051
    100       0.114310   0.140206  -0.058352   0.015917  -0.173136   0.005146
    101      -0.236860  -0.169294  -0.071691  -0.027939  -0.164156   0.023052
    102       0.078973   0.049087   0.157654   0.092599  -0.023335   0.029048
    103       0.050561   0.049329   0.092518   0.041588  -0.042978   0.040540
    104      -0.182310  -0.088538  -0.211992  -0.052366  -0.286424  -0.009423
    105      -0.184092  -0.139488   0.008061   0.041792  -0.308818   0.040739
    106       0.072257   0.098261  -0.064999   0.016369  -0.178170  -0.001605
    107      -0.030376   0.028091  -0.164882  -0.029460  -0.158484  -0.025745
                 24         25         26         27         28         29    
      0      -0.003124  -0.007488   0.068684   0.058882  -0.051794  -0.000858
      1       0.002325   0.001232  -0.000210  -0.009595   0.001216   0.001786
      2       0.000343  -0.000313  -0.054514  -0.042716  -0.045276   0.000610
      3      -0.001387  -0.000521   0.054714  -0.008292   0.054994  -0.004216
      4       0.000852   0.005318   0.043232  -0.171893  -0.002265  -0.003447
      5       0.003013   0.002699  -0.115411   0.069226   0.029402   0.005281
      6       0.002217   0.004308  -0.066104   0.015292   0.078151   0.002243
      7      -0.001520   0.003908  -0.145177   0.091358  -0.007551  -0.001063
      8       0.001381   0.002367   0.086620  -0.102091   0.042996  -0.001193
      9       0.002063   0.004849  -0.010539  -0.004424   0.093797   0.002565
     10      -0.002567   0.004662   0.052149   0.035203   0.057237  -0.000776
     11      -0.002459   0.002493  -0.024225  -0.005091   0.078376  -0.003305
     12      -0.001044  -0.002206   0.050221  -0.013650   0.002405   0.001495
     13      -0.002677   0.002033   0.104681  -0.113520   0.037648  -0.003882
     14      -0.003650  -0.000055  -0.052364   0.130517   0.060377  -0.000723
     15      -0.004041  -0.006788   0.027557   0.096562  -0.031680  -0.000308
     16       0.000473   0.001195  -0.159399   0.080825   0.048113   0.003685
     17      -0.001965   0.002368   0.104349  -0.089744   0.062358  -0.002683
     18       0.003319   0.002211  -0.063354  -0.081197  -0.032751   0.005858
     19       0.000246  -0.006345   0.076578   0.054543  -0.085716  -0.002152
     20      -0.003653  -0.007906   0.025660   0.040550  -0.114839  -0.003561
     21      -0.001013   0.000135   0.078705  -0.068946   0.066100  -0.003102
     22       0.002168   0.007461   0.117989  -0.367205   0.047943   0.002620
     23       0.006154   0.009040  -0.241031   0.165111   0.109551   0.006471
     24      -0.006843  -0.008883   0.012796   0.169053   0.021175  -0.001496
     25       0.000648  -0.005130  -0.315685   0.206391   0.036517   0.007729
     26      -0.003507   0.007507   0.249785  -0.176254   0.095027  -0.007385
[...]
     75       0.010947   0.020717  -0.101401  -0.012213  -0.016855  -0.003353
     76       0.010485   0.019603  -0.113656  -0.006523  -0.043851  -0.007964
     77       0.001708   0.003076  -0.016851  -0.000299   0.015893   0.002346
     78       0.000522   0.002348  -0.003342   0.657774   0.084651  -0.004908
     79       0.000489   0.002367  -0.002459   0.044435   0.005258  -0.000435
     80      -0.000611  -0.004690   0.002183  -0.737328  -0.094292   0.005676
     81      -0.145691   0.049320   0.000878  -0.000018   0.000341   0.000428
     82       0.286106  -0.096370  -0.000378  -0.000109  -0.000778  -0.001232
     83       0.294430  -0.099121  -0.000432  -0.000145  -0.000948  -0.000902
     84       0.583777  -0.014598   0.010053  -0.000013   0.000471  -0.000838
     85      -0.173896   0.004468  -0.002729  -0.000038  -0.000166   0.000104
     86       0.002506   0.000050  -0.000155  -0.000028  -0.000055   0.000084
     87      -0.000017   0.000024  -0.000012  -0.000005   0.000001   0.000003
     88      -0.000008  -0.000037   0.000025   0.000001   0.000000  -0.000007
     89       0.000031  -0.000060  -0.000002   0.000008   0.000014   0.000007
     90      -0.000037   0.000069   0.000049  -0.000023  -0.000037  -0.000019
     91       0.000245  -0.000249  -0.000165   0.000100   0.000046   0.000031
     92      -0.000190   0.000177   0.000116  -0.000063  -0.000075  -0.000058
     93       0.000186  -0.000473   0.000063   0.000139   0.000024  -0.000017
     94      -0.000176   0.000698  -0.000081  -0.000299  -0.000078   0.000016
     95      -0.000106   0.000486  -0.000076  -0.000251  -0.000078   0.000000
     96       0.000003  -0.000003  -0.000009  -0.000016   0.000001   0.000002
     97      -0.000000  -0.000027   0.000027   0.000013   0.000002  -0.000006
     98       0.000005  -0.000005   0.000008   0.000024   0.000006   0.000008
     99       0.000018  -0.000021   0.000092   0.000197   0.000029  -0.000008
    100       0.000040  -0.000030  -0.000099  -0.000133  -0.000026   0.000001
    101       0.000031   0.000008  -0.000061  -0.000163  -0.000022   0.000001
    102      -0.000122   0.000154  -0.000085   0.000023  -0.000052  -0.000010
    103      -0.000090   0.000115  -0.000071  -0.000008  -0.000038  -0.000004
    104      -0.000185   0.000208  -0.000094  -0.000048  -0.000047  -0.000003
    105       0.000040  -0.000063  -0.000002   0.000029   0.000004  -0.000005
    106       0.000017   0.000204  -0.000031   0.000046   0.000021   0.000035
    107       0.000024  -0.000169   0.000035  -0.000061  -0.000023  -0.000034


-----------
IR SPECTRUM  
-----------

 Mode    freq (cm**-1)   T**2         TX         TY         TZ
-------------------------------------------------------------------
   6:        27.66    0.000000  (  0.000000   0.000000   0.000000)
   7:        46.98    0.000000  (  0.000000   0.000000   0.000000)
   8:        60.23    0.000000  (  0.000000   0.000000   0.000000)
   9:        73.31    0.000000  (  0.000000   0.000000   0.000000)
  10:        77.90    0.000000  (  0.000000   0.000000   0.000000)
  11:        90.42    0.000000  (  0.000000   0.000000   0.000000)
  12:       102.36    0.000000  (  0.000000   0.000000   0.000000)
  13:       115.95    0.000000  (  0.000000   0.000000   0.000000)
  14:       144.24    0.000000  (  0.000000   0.000000   0.000000)
  15:       154.51    0.000000  (  0.000000   0.000000   0.000000)
  16:       163.03    0.000000  (  0.000000   0.000000   0.000000)
  17:       177.80    0.000000  (  0.000000   0.000000   0.000000)
  18:       189.64    0.000000  (  0.000000   0.000000   0.000000)
  19:       198.37    0.000000  (  0.000000   0.000000   0.000000)
  20:       251.66    0.000000  (  0.000000   0.000000   0.000000)
  21:       262.15    0.000000  (  0.000000   0.000000   0.000000)
  22:       290.98    0.000000  (  0.000000   0.000000   0.000000)
  23:       303.81    0.000000  (  0.000000   0.000000   0.000000)
  24:       348.17    0.000000  (  0.000000   0.000000   0.000000)
  25:       397.35    0.000000  (  0.000000   0.000000   0.000000)
  26:       400.15    0.000000  (  0.000000   0.000000   0.000000)
  27:       404.53    0.000000  (  0.000000   0.000000   0.000000)
  28:       430.04    0.000000  (  0.000000   0.000000   0.000000)
  29:       473.25    0.000000  (  0.000000   0.000000   0.000000)
  30:       480.65    0.000000  (  0.000000   0.000000   0.000000)
  31:       485.14    0.000000  (  0.000000   0.000000   0.000000)
  32:       515.16    0.000000  (  0.000000   0.000000   0.000000)
  33:       560.78    0.000000  (  0.000000   0.000000   0.000000)
  34:       589.46    0.000000  (  0.000000   0.000000   0.000000)
  35:       608.93    0.000000  (  0.000000   0.000000   0.000000)
  36:       619.28    0.000000  (  0.000000   0.000000   0.000000)
  37:       625.63    0.000000  (  0.000000   0.000000   0.000000)
  38:       677.15    0.000000  (  0.000000   0.000000   0.000000)
  39:       715.12    0.000000  (  0.000000   0.000000   0.000000)
  40:       782.34    0.000000  (  0.000000   0.000000   0.000000)
  41:       795.40    0.000000  (  0.000000   0.000000   0.000000)
  42:       814.32    0.000000  (  0.000000   0.000000   0.000000)
  43:       836.46    0.000000  (  0.000000   0.000000   0.000000)
  44:       845.29    0.000000  (  0.000000   0.000000   0.000000)
  45:       865.75    0.000000  (  0.000000   0.000000   0.000000)
  46:       897.39    0.000000  (  0.000000   0.000000   0.000000)
  47:       922.13    0.000000  (  0.000000   0.000000   0.000000)
  48:       933.41    0.000000  (  0.000000   0.000000   0.000000)
  49:       944.18    0.000000  (  0.000000   0.000000   0.000000)
  50:       951.30    0.000000  (  0.000000   0.000000   0.000000)
  51:       956.97    0.000000  (  0.000000   0.000000   0.000000)
  52:       963.77    0.000000  (  0.000000   0.000000   0.000000)
  53:       974.46    0.000000  (  0.000000   0.000000   0.000000)
  54:      1007.04    0.000000  (  0.000000   0.000000   0.000000)
  55:      1041.50    0.000000  (  0.000000   0.000000   0.000000)
  56:      1054.57    0.000000  (  0.000000   0.000000   0.000000)
  57:      1075.88    0.000000  (  0.000000   0.000000   0.000000)
  58:      1110.01    0.000000  (  0.000000   0.000000   0.000000)
  59:      1118.93    0.000000  (  0.000000   0.000000   0.000000)
  60:      1145.66    0.000000  (  0.000000   0.000000   0.000000)
  61:      1182.76    0.000000  (  0.000000   0.000000   0.000000)
  62:      1187.61    0.000000  (  0.000000   0.000000   0.000000)
  63:      1208.45    0.000000  (  0.000000   0.000000   0.000000)
  64:      1215.02    0.000000  (  0.000000   0.000000   0.000000)
  65:      1245.14    0.000000  (  0.000000   0.000000   0.000000)
  66:      1259.72    0.000000  (  0.000000   0.000000   0.000000)
  67:      1272.03    0.000000  (  0.000000   0.000000   0.000000)
  68:      1279.50    0.000000  (  0.000000   0.000000   0.000000)
  69:      1282.29    0.000000  (  0.000000   0.000000   0.000000)
  70:      1329.24    0.000000  (  0.000000   0.000000   0.000000)
  71:      1356.70    0.000000  (  0.000000   0.000000   0.000000)
  72:      1368.90    0.000000  (  0.000000   0.000000   0.000000)
  73:      1407.96    0.000000  (  0.000000   0.000000   0.000000)
  74:      1433.41    0.000000  (  0.000000   0.000000   0.000000)
  75:      1438.07    0.000000  (  0.000000   0.000000   0.000000)
  76:      1470.99    0.000000  (  0.000000   0.000000   0.000000)
  77:      1501.13    0.000000  (  0.000000   0.000000   0.000000)
  78:      1507.27    0.000000  (  0.000000   0.000000   0.000000)
  79:      1511.24    0.000000  (  0.000000   0.000000   0.000000)
  80:      1514.50    0.000000  (  0.000000   0.000000   0.000000)
  81:      1522.85    0.000000  (  0.000000   0.000000   0.000000)
  82:      1532.29    0.000000  (  0.000000   0.000000   0.000000)
  83:      1555.13    0.000000  (  0.000000   0.000000   0.000000)
  84:      1562.00    0.000000  (  0.000000   0.000000   0.000000)
  85:      1584.28    0.000000  (  0.000000   0.000000   0.000000)
  86:      1600.83    0.000000  (  0.000000   0.000000   0.000000)
  87:      2668.86    0.000000  (  0.000000   0.000000   0.000000)
  88:      2816.55    0.000000  (  0.000000   0.000000   0.000000)
  89:      2834.04    0.000000  (  0.000000   0.000000   0.000000)
  90:      2874.02    0.000000  (  0.000000   0.000000   0.000000)
  91:      2881.49    0.000000  (  0.000000   0.000000   0.000000)
  92:      2889.96    0.000000  (  0.000000   0.000000   0.000000)
  93:      2898.53    0.000000  (  0.000000   0.000000   0.000000)
  94:      2906.19    0.000000  (  0.000000   0.000000   0.000000)
  95:      2913.57    0.000000  (  0.000000   0.000000   0.000000)
  96:      2918.84    0.000000  (  0.000000   0.000000   0.000000)
  97:      2930.59    0.000000  (  0.000000   0.000000   0.000000)
  98:      2955.91    0.000000  (  0.000000   0.000000   0.000000)
  99:      2984.54    0.000000  (  0.000000   0.000000   0.000000)
 100:      2992.03    0.000000  (  0.000000   0.000000   0.000000)
 101:      2998.64    0.000000  (  0.000000   0.000000   0.000000)
 102:      3006.88    0.000000  (  0.000000   0.000000   0.000000)
 103:      3032.46    0.000000  (  0.000000   0.000000   0.000000)
 104:      3103.64    0.000000  (  0.000000   0.000000   0.000000)
 105:      3427.06    0.000000  (  0.000000   0.000000   0.000000)
 106:      3433.83    0.000000  (  0.000000   0.000000   0.000000)
 107:      3444.07    0.000000  (  0.000000   0.000000   0.000000)

The first frequency considered to be a vibration is 6
The total number of vibrations considered is 102


--------------------------
THERMOCHEMISTRY AT 298.15K
--------------------------

Temperature         ... 298.15 K
Pressure            ... 1.00 atm
Total Mass          ... 215.29 AMU

Throughout the following assumptions are being made:
  (1) The electronic state is orbitally nondegenerate
  (2) There are no thermally accessible electronically excited states
  (3) Hindered rotations indicated by low frequency modes are not
      treated as such but are treated as vibrations and this may
      cause some error
  (4) All equations used are the standard statistical mechanics
      equations for an ideal gas
  (5) All vibrations are strictly harmonic

freq.      27.66  E(vib)   ...       0.55 
freq.      46.98  E(vib)   ...       0.53 
freq.      60.23  E(vib)   ...       0.51 
freq.      73.31  E(vib)   ...       0.49 
freq.      77.90  E(vib)   ...       0.49 
freq.      90.42  E(vib)   ...       0.47 
freq.     102.36  E(vib)   ...       0.46 
freq.     115.95  E(vib)   ...       0.44 
freq.     144.24  E(vib)   ...       0.41 
freq.     154.51  E(vib)   ...       0.40 
freq.     163.03  E(vib)   ...       0.39 
freq.     177.80  E(vib)   ...       0.37 
freq.     189.64  E(vib)   ...       0.36 
freq.     198.37  E(vib)   ...       0.35 
freq.     251.66  E(vib)   ...       0.30 
freq.     262.15  E(vib)   ...       0.29 
freq.     290.98  E(vib)   ...       0.27 
freq.     303.81  E(vib)   ...       0.26 
freq.     348.17  E(vib)   ...       0.23 
freq.     397.35  E(vib)   ...       0.20 
freq.     400.15  E(vib)   ...       0.19 
freq.     404.53  E(vib)   ...       0.19 
freq.     430.04  E(vib)   ...       0.18 
freq.     473.25  E(vib)   ...       0.15 
freq.     480.65  E(vib)   ...       0.15 
freq.     485.14  E(vib)   ...       0.15 
freq.     515.16  E(vib)   ...       0.13 
freq.     560.78  E(vib)   ...       0.11 
freq.     589.46  E(vib)   ...       0.10 
freq.     608.93  E(vib)   ...       0.10 
freq.     619.28  E(vib)   ...       0.09 
freq.     625.63  E(vib)   ...       0.09 
freq.     677.15  E(vib)   ...       0.08 
freq.     715.12  E(vib)   ...       0.07 
freq.     782.34  E(vib)   ...       0.05 
freq.     795.40  E(vib)   ...       0.05 
freq.     814.32  E(vib)   ...       0.05 
freq.     836.46  E(vib)   ...       0.04 
freq.     845.29  E(vib)   ...       0.04 
freq.     865.75  E(vib)   ...       0.04 
freq.     897.39  E(vib)   ...       0.03 
freq.     922.13  E(vib)   ...       0.03 
freq.     933.41  E(vib)   ...       0.03 
freq.     944.18  E(vib)   ...       0.03 
freq.     951.30  E(vib)   ...       0.03 
freq.     956.97  E(vib)   ...       0.03 
freq.     963.77  E(vib)   ...       0.03 
freq.     974.46  E(vib)   ...       0.03 
freq.    1007.04  E(vib)   ...       0.02 
freq.    1041.50  E(vib)   ...       0.02 
freq.    1054.57  E(vib)   ...       0.02 
freq.    1075.88  E(vib)   ...       0.02 
freq.    1110.01  E(vib)   ...       0.02 
freq.    1118.93  E(vib)   ...       0.01 
freq.    1145.66  E(vib)   ...       0.01 
freq.    1182.76  E(vib)   ...       0.01 
freq.    1187.61  E(vib)   ...       0.01 
freq.    1208.45  E(vib)   ...       0.01 
freq.    1215.02  E(vib)   ...       0.01 
freq.    1245.14  E(vib)   ...       0.01 
freq.    1259.72  E(vib)   ...       0.01 
freq.    1272.03  E(vib)   ...       0.01 
freq.    1279.50  E(vib)   ...       0.01 
freq.    1282.29  E(vib)   ...       0.01 
freq.    1329.24  E(vib)   ...       0.01 
freq.    1356.70  E(vib)   ...       0.01 
freq.    1368.90  E(vib)   ...       0.01 
freq.    1407.96  E(vib)   ...       0.00 
freq.    1433.41  E(vib)   ...       0.00 
freq.    1438.07  E(vib)   ...       0.00 
freq.    1470.99  E(vib)   ...       0.00 
freq.    1501.13  E(vib)   ...       0.00 
freq.    1507.27  E(vib)   ...       0.00 
freq.    1511.24  E(vib)   ...       0.00 
freq.    1514.50  E(vib)   ...       0.00 
freq.    1522.85  E(vib)   ...       0.00 
freq.    1532.29  E(vib)   ...       0.00 
freq.    1555.13  E(vib)   ...       0.00 
freq.    1562.00  E(vib)   ...       0.00 
freq.    1584.28  E(vib)   ...       0.00 
freq.    1600.83  E(vib)   ...       0.00 
freq.    2668.86  E(vib)   ...       0.00 
freq.    2816.55  E(vib)   ...       0.00 
freq.    2834.04  E(vib)   ...       0.00 
freq.    2874.02  E(vib)   ...       0.00 
freq.    2881.49  E(vib)   ...       0.00 
freq.    2889.96  E(vib)   ...       0.00 
freq.    2898.53  E(vib)   ...       0.00 
freq.    2906.19  E(vib)   ...       0.00 
freq.    2913.57  E(vib)   ...       0.00 
freq.    2918.84  E(vib)   ...       0.00 
freq.    2930.59  E(vib)   ...       0.00 
freq.    2955.91  E(vib)   ...       0.00 
freq.    2984.54  E(vib)   ...       0.00 
freq.    2992.03  E(vib)   ...       0.00 
freq.    2998.64  E(vib)   ...       0.00 
freq.    3006.88  E(vib)   ...       0.00 
freq.    3032.46  E(vib)   ...       0.00 
freq.    3103.64  E(vib)   ...       0.00 
freq.    3427.06  E(vib)   ...       0.00 
freq.    3433.83  E(vib)   ...       0.00 
freq.    3444.07  E(vib)   ...       0.00 

------------
INNER ENERGY
------------

The inner energy is: U= E(el) + E(ZPE) + E(vib) + E(rot) + E(trans)
    E(el)   - is the total energy from the electronic structure calculation
              = E(kin-el) + E(nuc-el) + E(el-el) + E(nuc-nuc)
    E(ZPE)  - the the zero temperature vibrational energy from the frequency calculation
    E(vib)  - the the finite temperature correction to E(ZPE) due to population
              of excited vibrational states
    E(rot)  - is the rotational thermal energy
    E(trans)- is the translational thermal energy

Summary of contributions to the inner energy U:
Electronic energy                ...    -49.36336256 Eh
Zero point energy                ...      0.29693534 Eh     186.33 kcal/mol
Thermal vibrational correction   ...      0.01649089 Eh      10.35 kcal/mol
Thermal rotational correction    ...      0.00141627 Eh       0.89 kcal/mol
Thermal translational correction ...      0.00141627 Eh       0.89 kcal/mol
-----------------------------------------------------------------------
Total thermal energy                    -49.04710378 Eh


Summary of corrections to the electronic energy:
(perhaps to be used in another calculation)
Total thermal correction                  0.01932343 Eh      12.13 kcal/mol
Non-thermal (ZPE) correction              0.29693534 Eh     186.33 kcal/mol
-----------------------------------------------------------------------
Total correction                          0.31625877 Eh     198.45 kcal/mol


--------
ENTHALPY
--------

The enthalpy is H = U + kB*T
                kB is Boltzmann's constant
Total free energy                 ...    -49.04710378 Eh 
Thermal Enthalpy correction       ...      0.00094421 Eh       0.59 kcal/mol
-----------------------------------------------------------------------
Total Enthalpy                    ...    -49.04615957 Eh


Note: Only C1 symmetry has been detected, increase convergence thresholds 
      if your molecule has a higher symmetry. Symmetry factor of 1.0 is   
      used for the rotational entropy correction. 
 

Note: Rotational entropy computed according to Herzberg 
Infrared and Raman Spectra, Chapter V,1, Van Nostrand Reinhold, 1945 
Point Group:  C1, Symmetry Number:   1  
Rotational constants in cm-1:     0.025310     0.007867     0.006694 

Vibrational entropy computed according to the QRRHO of S. Grimme
Chem.Eur.J. 2012 18 9955


-------
ENTROPY
-------

The entropy contributions are T*S = T*(S(el)+S(vib)+S(rot)+S(trans))
     S(el)   - electronic entropy
     S(vib)  - vibrational entropy
     S(rot)  - rotational entropy
     S(trans)- translational entropy
The entropies will be listed as mutliplied by the temperature to get
units of energy

Electronic entropy                ...      0.00000000 Eh      0.00 kcal/mol
Vibrational entropy               ...      0.02936515 Eh     18.43 kcal/mol
Rotational entropy                ...      0.01589733 Eh      9.98 kcal/mol
Translational entropy             ...      0.01995728 Eh     12.52 kcal/mol
-----------------------------------------------------------------------
Final entropy term                ...      0.06521976 Eh     40.93 kcal/mol

In case the symmetry of your molecule has not been determined correctly
or in case you have a reason to use a different symmetry number we print 
out the resulting rotational entropy values for sn=1,12 :
 --------------------------------------------------------
|  sn= 1 | S(rot)=       0.01589733 Eh      9.98 kcal/mol|
|  sn= 2 | S(rot)=       0.01524288 Eh      9.57 kcal/mol|
|  sn= 3 | S(rot)=       0.01486004 Eh      9.32 kcal/mol|
|  sn= 4 | S(rot)=       0.01458842 Eh      9.15 kcal/mol|
|  sn= 5 | S(rot)=       0.01437773 Eh      9.02 kcal/mol|
|  sn= 6 | S(rot)=       0.01420559 Eh      8.91 kcal/mol|
|  sn= 7 | S(rot)=       0.01406004 Eh      8.82 kcal/mol|
|  sn= 8 | S(rot)=       0.01393396 Eh      8.74 kcal/mol|
|  sn= 9 | S(rot)=       0.01382276 Eh      8.67 kcal/mol|
|  sn=10 | S(rot)=       0.01372328 Eh      8.61 kcal/mol|
|  sn=11 | S(rot)=       0.01363329 Eh      8.55 kcal/mol|
|  sn=12 | S(rot)=       0.01355113 Eh      8.50 kcal/mol|
 --------------------------------------------------------


-------------------
GIBBS FREE ENERGY
-------------------

The Gibbs free energy is G = H - T*S

Total enthalpy                    ...    -49.04615957 Eh 
Total entropy correction          ...     -0.06521976 Eh    -40.93 kcal/mol
-----------------------------------------------------------------------
Final Gibbs free energy         ...    -49.11137934 Eh

For completeness - the Gibbs free energy minus the electronic energy
G-E(el)                           ...      0.25198322 Eh    158.12 kcal/mol


Total Time for Numerical Frequencies  :       113.059 sec
Time for Reference State(s)           :         0.179 sec
Time for Displacements                :       102.433 sec

Timings for individual modules:

Sum of individual times         ...        0.388 sec (=   0.006 min)
XTB module                      ...        0.388 sec (=   0.006 min) 100.0 %
                             ****ORCA TERMINATED NORMALLY****
TOTAL RUN TIME: 0 days 0 hours 1 minutes 55 seconds 434 msec
(SLURM) EXECUTION TIME: 116.210963348 seconds.
