
                                 *****************
                                 * O   R   C   A *
                                 *****************

           --- An Ab Initio, DFT and Semiempirical electronic structure package ---

                  #######################################################
                  #                        -***-                        #
                  #          Department of theory and spectroscopy      #
                  #               Directorship: Frank Neese             #
                  #        Max Planck Institute fuer Kohlenforschung    #
                  #                Kaiser Wilhelm Platz 1               #
                  #                 D-45470 Muelheim/Ruhr               #
                  #                      Germany                        #
                  #                                                     #
                  #                  All rights reserved                #
                  #                        -***-                        #
                  #######################################################


                         Program Version 4.2.1 -  RELEASE  -


 With contributions from (in alphabetic order):
   Daniel Aravena         : Magnetic Suceptibility
   Michael Atanasov       : Ab Initio Ligand Field Theory (pilot matlab implementation)
   Alexander A. Auer      : GIAO ZORA, VPT2
   Ute Becker             : Parallelization
   Giovanni Bistoni       : ED, misc. LED, open-shell LED, HFLD
   Martin Brehm           : Molecular dynamics
   Dmytro Bykov           : SCF Hessian
   Vijay G. Chilkuri      : MRCI spin determinant printing, contributions to CSF-ICE
   Dipayan Datta          : RHF DLPNO-CCSD density
   Achintya Kumar Dutta   : EOM-CC, STEOM-CC
   Dmitry Ganyushin       : Spin-Orbit,Spin-Spin,Magnetic field MRCI
   Miquel Garcia          : C-PCM Hessian, Gaussian charge scheme
   Yang Guo               : DLPNO-NEVPT2, CIM, IAO-localization
   Andreas Hansen         : Spin unrestricted coupled pair/coupled cluster methods
   Benjamin Helmich-Paris : CASSCF linear response (MC-RPA)
   Lee Huntington         : MR-EOM, pCC
   Robert Izsak           : Overlap fitted RIJCOSX, COSX-SCS-MP3, EOM
   Christian Kollmar      : KDIIS, OOCD, Brueckner-CCSD(T), CCSD density
   Simone Kossmann        : Meta GGA functionals, TD-DFT gradient, OOMP2, MP2 Hessian
   Martin Krupicka        : AUTO-CI
   Lucas Lang             : DCDCAS
   Dagmar Lenk            : GEPOL surface, SMD
   Dimitrios Liakos       : Extrapolation schemes; Compound Job, initial MDCI parallelization
   Dimitrios Manganas     : Further ROCIS development; embedding schemes
   Dimitrios Pantazis     : SARC Basis sets
   Taras Petrenko         : DFT Hessian,TD-DFT gradient, ASA, ECA, R-Raman, ABS, FL, XAS/XES, NRVS
   Peter Pinski           : DLPNO-MP2, DLPNO-MP2 Gradient
   Christoph Reimann      : Effective Core Potentials
   Marius Retegan         : Local ZFS, SOC
   Christoph Riplinger    : Optimizer, TS searches, QM/MM, DLPNO-CCSD(T), (RO)-DLPNO pert. Triples
   Tobias Risthaus        : Range-separated hybrids, TD-DFT gradient, RPA, STAB
   Michael Roemelt        : Original ROCIS implementation
   Masaaki Saitow         : Open-shell DLPNO-CCSD energy and density
   Barbara Sandhoefer     : DKH picture change effects
   Avijit Sen             : IP-ROCIS
   Kantharuban Sivalingam : CASSCF convergence, NEVPT2, FIC-MRCI
   Bernardo de Souza      : ESD, SOC TD-DFT
   Georgi Stoychev        : AutoAux, RI-MP2 NMR
   Willem Van den Heuvel  : Paramagnetic NMR
   Boris Wezisla          : Elementary symmetry handling
   Frank Wennmohs         : Technical directorship


 We gratefully acknowledge several colleagues who have allowed us to
 interface, adapt or use parts of their codes:
   Stefan Grimme, W. Hujo, H. Kruse,             : VdW corrections, initial TS optimization,
                  C. Bannwarth                     DFT functionals, gCP, sTDA/sTD-DF
   Ed Valeev, F. Pavosevic, A. Kumar             : LibInt (2-el integral package), F12 methods
   Garnet Chan, S. Sharma, J. Yang, R. Olivares  : DMRG
   Ulf Ekstrom                                   : XCFun DFT Library
   Mihaly Kallay                                 : mrcc  (arbitrary order and MRCC methods)
   Andreas Klamt, Michael Diedenhofen            : otool_cosmo (COSMO solvation model)
   Jiri Pittner, Ondrej Demel                    : Mk-CCSD
   Frank Weinhold                                : gennbo (NPA and NBO analysis)
   Christopher J. Cramer and Donald G. Truhlar   : smd solvation model
   Lars Goerigk                                  : TD-DFT with DH, B97 family of functionals
   V. Asgeirsson, H. Jonsson                     : NEB implementation
   FAccTs GmbH                                   : IRC, NEB, NEB-TS, Multilevel, MM, QM/MM, CI optimization
   S Lehtola, MJT Oliveira, MAL Marques          : LibXC Library


 Your calculation uses the libint2 library for the computation of 2-el integrals
 For citations please refer to: http://libint.valeyev.net

 Your ORCA version has been built with support for libXC version: 4.2.3
 For citations please refer to: https://tddft.org/programs/libxc/

 This ORCA versions uses:
   CBLAS   interface :  Fast vector & matrix operations
   LAPACKE interface :  Fast linear algebra routines
   SCALAPACK package :  Parallel linear algebra routines




***************************************
The coordinates will be read from file: init.xyz
***************************************


Your calculation utilizes the SMD solvation module
Please cite in your paper:
A.V. Marenich, C.J. Cramer, D.G. Truhlar J. Phys. Chem. B, 113, (2009), 6378 

Your calculation utilizes the semiempirical GFN2-xTB method
Please cite in your paper:
C. Bannwarth, Ehlert S., S. Grimme,  J. Chem. Theory Comput., 15, (2019), 1652.
   

----- Orbital basis set information -----
Your calculation utilizes the basis: def2-SVP
   F. Weigend and R. Ahlrichs, Phys. Chem. Chem. Phys. 7, 3297 (2005).

================================================================================
                                        WARNINGS
                       Please study these warnings very carefully!
================================================================================


WARNING: The environment variable RSH_COMMAND is not set!
  ===> : All Displacements for the Numerical Hessian calculation
         will be started on localhost

WARNING: Geometry Optimization
  ===> : Switching off AutoStart
         For restart on a previous wavefunction, please use MOREAD

WARNING: Found dipole moment calculation with XTB calculation
  ===> : Switching off dipole moment calculation


INFO   : the flag for use of LIBINT has been found!

================================================================================
                                       INPUT FILE
================================================================================
NAME = opt+numfreq.inp
|  1> ! xTB2 Opt NumFreq
|  2> 
|  3> *xyzfile -1 1 init.xyz
|  4> 
|  5> %cpcm
|  6>  smd true
|  7>  SMDsolvent "METHANOL"
|  8> end
|  9> 
| 10> %pal
| 11>  nprocs 6
| 12> end
| 13> 
| 14>                          ****END OF INPUT****
================================================================================

                       *****************************
                       * Geometry Optimization Run *
                       *****************************

Geometry optimization settings:
Update method            Update   .... BFGS
Choice of coordinates    CoordSys .... Z-matrix Internals
Initial Hessian          InHess   .... Almoef's Model

Convergence Tolerances:
Energy Change            TolE     ....  5.0000e-06 Eh
Max. Gradient            TolMAXG  ....  3.0000e-04 Eh/bohr
RMS Gradient             TolRMSG  ....  1.0000e-04 Eh/bohr
Max. Displacement        TolMAXD  ....  4.0000e-03 bohr
RMS Displacement         TolRMSD  ....  2.0000e-03 bohr
Strict Convergence                ....  False
------------------------------------------------------------------------------
                        ORCA OPTIMIZATION COORDINATE SETUP
------------------------------------------------------------------------------

The optimization will be done in new redundant internal coordinates
Making redundant internal coordinates   ...  (new redundants) done
Evaluating the initial hessian          ...  (Almloef) done
Evaluating the coordinates              ...  done
Calculating the B-matrix                .... done
Calculating the G-matrix                .... done
Diagonalizing the G-matrix              .... done
The first mode is                       ....   86
The number of degrees of freedom        ....   63

    -----------------------------------------------------------------
                    Redundant Internal Coordinates


    -----------------------------------------------------------------
         Definition                    Initial Value    Approx d2E/dq
    -----------------------------------------------------------------
      1. B(C   1,C   0)                  1.5255         0.379778   
      2. B(C   4,C   1)                  1.5255         0.379814   
      3. B(C   4,C   2)                  1.5251         0.380320   
      4. B(H   5,C   2)                  1.0914         0.358291   
      5. B(H   6,C   2)                  1.0913         0.358421   
      6. B(C   7,C   0)                  1.5260         0.379094   
      7. B(H   8,C   1)                  1.0914         0.358244   
      8. B(H   9,C   1)                  1.0918         0.357733   
      9. B(C  10,C   7)                  1.5326         0.369999   
     10. B(C  10,H   3)                  1.1041         0.341948   
     11. B(C  10,C   2)                  1.5292         0.374727   
     12. B(H  11,C   7)                  1.0921         0.357308   
     13. B(H  12,C   7)                  1.0923         0.357035   
     14. B(H  13,C   4)                  1.0914         0.358218   
     15. B(H  14,C   4)                  1.0933         0.355774   
     16. B(H  15,C   0)                  1.0918         0.357783   
     17. B(H  16,C   0)                  1.0936         0.355378   
     18. B(Br 17,H  16)                  4.9441         0.000001   
     19. B(Br 17,H   3)                  4.2158         0.000012   
     20. B(O  19,C  18)                  1.4065         0.526598   
     21. B(O  19,C  10)                  1.4240         0.493931   
     22. B(H  20,C  18)                  1.0954         0.352995   
     23. B(H  21,Br 17)                  4.2801         0.000010   
     24. B(H  21,C  18)                  1.0971         0.350857   
     25. B(H  22,C  18)                  1.0885         0.362104   
     26. A(C   7,C   0,H  15)          109.5353         0.324757   
     27. A(C   7,C   0,H  16)          108.8267         0.324397   
     28. A(C   1,C   0,H  16)          109.5287         0.324493   
     29. A(C   1,C   0,C   7)          110.7863         0.365292   
     30. A(C   1,C   0,H  15)          110.2485         0.324853   
     31. A(H  15,C   0,H  16)          107.8529         0.289944   
     32. A(C   0,C   1,H   8)          109.7662         0.324921   
     33. A(C   4,C   1,H   9)          109.4068         0.324850   
     34. A(H   8,C   1,H   9)          108.3069         0.290303   
     35. A(C   0,C   1,H   9)          109.3049         0.324845   
     36. A(C   4,C   1,H   8)          109.8921         0.324927   
     37. A(C   0,C   1,C   4)          110.1333         0.365410   
     38. A(H   6,C   2,C  10)          108.7000         0.324234   
     39. A(C   4,C   2,H   5)          110.4231         0.325005   
     40. A(H   5,C   2,H   6)          108.0572         0.290396   
     41. A(H   5,C   2,C  10)          108.0323         0.324215   
     42. A(C   4,C   2,C  10)          110.8288         0.364657   
     43. A(C   4,C   2,H   6)          110.7065         0.325024   
     44. A(C  10,H   3,Br 17)          165.4451         0.110806   
     45. A(H  13,C   4,H  14)          108.0548         0.290049   
     46. A(C   1,C   4,H  14)          109.3736         0.324557   
     47. A(C   2,C   4,H  13)          109.5651         0.324994   
     48. A(C   1,C   4,H  13)          110.2074         0.324923   
     49. A(C   1,C   4,C   2)          110.5122         0.365500   
     50. A(C   2,C   4,H  14)          109.0806         0.324628   
     51. A(H  11,C   7,H  12)          108.3991         0.290095   
     52. A(C   0,C   7,H  12)          110.3319         0.324645   
     53. A(C  10,C   7,H  11)          109.7356         0.323394   
     54. A(C  10,C   7,H  12)          108.4365         0.323353   
     55. A(C   0,C   7,H  11)          109.5605         0.324686   
     56. A(C   0,C   7,C  10)          110.3424         0.363665   
     57. A(C   2,C  10,H   3)          109.5496         0.321742   
     58. A(H   3,C  10,C   7)          108.9175         0.321074   
     59. A(C   7,C  10,O  19)          112.6350         0.378218   
     60. A(H   3,C  10,O  19)          108.8612         0.334718   
     61. A(C   2,C  10,O  19)          106.7916         0.379051   
     62. A(C   2,C  10,C   7)          110.0350         0.362946   
     63. A(C   0,H  16,Br 17)          144.9470         0.101005   
     64. A(H  16,Br 17,H  21)           56.9297         0.090248   
     65. A(H   3,Br 17,H  21)           31.3195         0.091286   
     66. A(H   3,Br 17,H  16)           31.0626         0.090316   
     67. A(H  21,C  18,H  22)          109.3819         0.289907   
     68. A(H  20,C  18,H  22)          109.3698         0.290184   
     69. A(O  19,C  18,H  22)          106.2405         0.341558   
     70. A(H  20,C  18,H  21)          108.5399         0.288752   
     71. A(O  19,C  18,H  21)          111.3291         0.339761   
     72. A(O  19,C  18,H  20)          111.9305         0.340106   
     73. A(C  10,O  19,C  18)          115.2695         0.399692   
     74. A(Br 17,H  21,C  18)          158.7962         0.109792   
     75. D(H   9,C   1,C   0,C   7)    -62.4113         0.011496   
     76. D(H   8,C   1,C   0,H  15)    -59.6500         0.011496   
     77. D(H   8,C   1,C   0,H  16)     58.8755         0.011496   
     78. D(C   4,C   1,C   0,H  15)    179.2305         0.011496   
     79. D(H   9,C   1,C   0,H  16)    177.5307         0.011496   
     80. D(C   4,C   1,C   0,H  16)    -62.2440         0.011496   
     81. D(H   8,C   1,C   0,C   7)    178.9335         0.011496   
     82. D(C   4,C   1,C   0,C   7)     57.8140         0.011496   
     83. D(H   9,C   1,C   0,H  15)     59.0052         0.011496   
     84. D(H  13,C   4,C   1,H   9)    -58.5712         0.011498   
     85. D(C   1,C   4,C   2,C  10)     57.6739         0.011527   
     86. D(H  13,C   4,C   2,H   6)    -60.0018         0.011527   
     87. D(H  13,C   4,C   2,C  10)    179.2994         0.011527   
     88. D(C   2,C   4,C   1,H   8)   -178.5338         0.011498   
     89. D(C   2,C   4,C   1,H   9)     62.6742         0.011498   
     90. D(C   1,C   4,C   2,H   6)    178.3727         0.011527   
     91. D(H  13,C   4,C   1,C   0)   -178.7349         0.011498   
     92. D(C   1,C   4,C   2,H   5)    -62.0006         0.011527   
     93. D(C   2,C   4,C   1,C   0)    -57.4896         0.011498   
     94. D(H  14,C   4,C   2,C  10)    -62.6033         0.011527   
     95. D(H  14,C   4,C   2,H   6)     58.0956         0.011527   
     96. D(H  14,C   4,C   2,H   5)    177.7222         0.011527   
     97. D(H  14,C   4,C   1,H   9)   -177.2243         0.011498   
     98. D(H  14,C   4,C   1,H   8)    -58.4322         0.011498   
     99. D(H  13,C   4,C   2,H   5)     59.6248         0.011527   
    100. D(H  13,C   4,C   1,H   8)     60.2208         0.011498   
    101. D(H  14,C   4,C   1,C   0)     62.6120         0.011498   
    102. D(H  11,C   7,C   0,C   1)   -178.7608         0.011457   
    103. D(C  10,C   7,C   0,H  16)     62.6415         0.011457   
    104. D(C  10,C   7,C   0,H  15)   -179.6703         0.011457   
    105. D(C  10,C   7,C   0,C   1)    -57.8348         0.011457   
    106. D(H  12,C   7,C   0,H  16)   -177.5514         0.011457   
    107. D(H  12,C   7,C   0,C   1)     61.9723         0.011457   
    108. D(H  12,C   7,C   0,H  15)    -59.8632         0.011457   
    109. D(H  11,C   7,C   0,H  16)    -58.2844         0.011457   
    110. D(H  11,C   7,C   0,H  15)     59.4038         0.011457   
    111. D(O  19,C  10,C   7,H  12)     55.2534         0.010944   
    112. D(O  19,C  10,C   7,H  11)    -62.9803         0.010944   
    113. D(H   3,C  10,C   7,H  12)    176.1280         0.010944   
    114. D(H   3,C  10,C   7,H  11)     57.8943         0.010944   
    115. D(H   3,C  10,C   7,C   0)    -62.9271         0.010944   
    116. D(C   2,C  10,C   7,H  12)    -63.7733         0.010944   
    117. D(C   2,C  10,C   7,H  11)    177.9929         0.010944   
    118. D(C   2,C  10,C   7,C   0)     57.1716         0.010944   
    119. D(O  19,C  10,H   3,Br 17)     67.5657         0.107144   
    120. D(C   7,C  10,H   3,Br 17)    -55.5957         0.107144   
    121. D(C   2,C  10,H   3,Br 17)   -175.9939         0.107144   
    122. D(O  19,C  10,C   2,H   6)     58.2802         0.011208   
    123. D(O  19,C  10,C   2,H   5)    -58.7420         0.011208   
    124. D(O  19,C  10,C   2,C   4)   -179.8387         0.011208   
    125. D(C   7,C  10,C   2,H   6)   -179.1767         0.011208   
    126. D(C   7,C  10,C   2,H   5)     63.8012         0.011208   
    127. D(C   7,C  10,C   2,C   4)    -57.2955         0.011208   
    128. D(O  19,C  10,C   7,C   0)    176.1984         0.010944   
    129. D(H   3,C  10,C   2,H   6)    -59.4614         0.011208   
    130. D(H   3,C  10,C   2,H   5)   -176.4835         0.011208   
    131. D(H   3,C  10,C   2,C   4)     62.4197         0.011208   
    132. D(Br 17,H  16,C   0,H  15)   -127.0797         0.117631   
    133. D(Br 17,H  16,C   0,C   7)     -8.3306         0.117631   
    134. D(Br 17,H  16,C   0,C   1)    112.9184         0.117631   
    135. D(H   3,Br 17,H  16,C   0)    -26.2349         0.001500   
    136. D(H  21,Br 17,H   3,C  10)    -48.0008         0.001500   
    137. D(H  16,Br 17,H   3,C  10)     85.9397         0.001500   
    138. D(H  21,Br 17,H  16,C   0)      0.2942         0.001500   
    139. D(C  10,O  19,C  18,H  22)    169.4505         0.022009   
    140. D(C  10,O  19,C  18,H  21)     50.4502         0.022009   
    141. D(C  10,O  19,C  18,H  20)    -71.2302         0.022009   
    142. D(C  18,O  19,C  10,C   7)     74.7901         0.019273   
    143. D(C  18,O  19,C  10,H   3)    -46.1166         0.019273   
    144. D(C  18,O  19,C  10,C   2)   -164.3098         0.019273   
    145. D(Br 17,H  21,C  18,H  22)    178.4124         0.114030   
    146. D(Br 17,H  21,C  18,H  20)     59.1495         0.114030   
    147. D(Br 17,H  21,C  18,O  19)    -64.4816         0.114030   
    148. D(C  18,H  21,Br 17,H  16)     14.4709         0.001500   
    149. D(C  18,H  21,Br 17,H   3)     40.7891         0.001500   
    -----------------------------------------------------------------

Number of atoms                         .... 23
Number of degrees of freedom            .... 149

         *************************************************************
         *                GEOMETRY OPTIMIZATION CYCLE   1            *
         *************************************************************
      -----------------------------------------------------------      
     |                   =====================                   |     
     |                           x T B                           |     
     |                   =====================                   |     
     |                         S. Grimme                         |     
     |          Mulliken Center for Theoretical Chemistry        |     
     |                    University of Bonn                     |     
      -----------------------------------------------------------      

   * xtb version 6.3.2 (30e43eb) compiled by 'schneider@apollo14' on 2020-08-08

   xtb is free software: you can redistribute it and/or modify it under
   the terms of the GNU Lesser General Public License as published by
   the Free Software Foundation, either version 3 of the License, or
   (at your option) any later version.
   
   xtb is distributed in the hope that it will be useful,
   but WITHOUT ANY WARRANTY; without even the implied warranty of
   MERCHANTABILITY or FITNESS FOR A PARTICULAR PURPOSE.  See the
   GNU Lesser General Public License for more details.
   
   Cite this work as:
   * S. Grimme, C. Bannwarth, P. Shushkov, J. Chem. Theory Comput., 2017,
     13, 1989-2009. DOI: 10.1021/acs.jctc.7b00118
   * C. Bannwarth, S. Ehlert and S. Grimme., J. Chem. Theory Comput., 2019,
     15, 1652-1671. DOI: 10.1021/acs.jctc.8b01176
   * P. Pracht, E. Caldeweyher, S. Ehlert, S. Grimme, ChemRxiv, 2019, preprint.
     DOI: 10.26434/chemrxiv.8326202.v1
   
   for GFN-FF:
   * S. Spicher and S. Grimme, Angew. Chem. Int. Ed., 2020,
     DOI: 10.1002/anie.202004239
   
   for DFT-D4:
   * E. Caldeweyher, C. Bannwarth and S. Grimme, J. Chem. Phys., 2017,
     147, 034112. DOI: 10.1063/1.4993215
   * E. Caldeweyher, S. Ehlert, A. Hansen, H. Neugebauer, S. Spicher,
     C. Bannwarth and S. Grimme, J. Chem. Phys., 2019, 150, 154122.
     DOI: 10.1063/1.5090222
   
   for sTDA-xTB:
   * S. Grimme and C. Bannwarth, J. Chem. Phys., 2016, 145, 054103.
     DOI: 10.1063/1.4959605
   
   in the mass-spec context:
   * V. Asgeirsson, C. Bauer and S. Grimme, Chem. Sci., 2017, 8, 4879.
     DOI: 10.1039/c7sc00601b
   * J. Koopman and S. Grimme, ACS Omega 2019, 4, 12, 15120-15133.
     DOI: 10.1021/acsomega.9b02011
   
   for metadynamics refer to:
   * S. Grimme, J. Chem. Theory Comput., 2019, 155, 2847-2862
     DOI: 10.1021/acs.jctc.9b00143
   
   with help from (in alphabetical order)
   C. Bannwarth, F. Bohle, G. Brandenburg, E. Caldeweyher, M. Checinski,
   S. Dohm, S. Ehlert, S. Ehrlich, F. März, H. Neugebauer, J. Pisarek,
   P. Pracht, P. Shushkov, and S. Spicher.
   
 * started run on 2021/11/10 at 03:13:12.814     

           -------------------------------------------------
          |                Calculation Setup                |
           -------------------------------------------------

          program call               : /opt/orca/otool_xtb opt+numfreq_XTB.xyz --grad -c -1 -u 0 -P 6 --namespace opt+numfreq --gbsa methanol
          calculation namespace      : opt+numfreq
          coordinate file            : opt+numfreq_XTB.xyz
          omp threads                :                     6
          number of atoms            :                    23
          number of electrons        :                    56
          charge                     :                    -1
          spin                       :                   0.0
          first test random number   :      0.51662210140491

   ID    Z sym.   atoms
    1    6 C      1-3, 5, 8, 11, 19
    2    1 H      4, 6, 7, 9, 10, 12-17, 21-23
    3   35 Br     18
    4    8 O      20

molecular fragmentation (1/2 indicates fragments):
11111111111111111211111
# atoms in fragment 1/2:    22     1
 fragment masses (1/2) :      114.19       79.90
CMA distance (Bohr)    :  10.568
constraining FC (au)   :  0.0500
########################################################################
[WARNING] Please study the warnings concerning your input carefully
-1- prog_main_parseArguments: Process number higher than OMP_NUM_THREADS, I hope you know what you are doing.
########################################################################

           -------------------------------------------------
          |                 G F N 2 - x T B                 |
           -------------------------------------------------

        Reference                      10.1021/acs.jctc.8b01176
      * Hamiltonian:
        H0-scaling (s, p, d)           1.850000    2.230000    2.230000
        zeta-weighting                 0.500000
      * Dispersion:
        s8                             2.700000
        a1                             0.520000
        a2                             5.000000
        s9                             5.000000
      * Repulsion:
        kExp                           1.500000    1.000000
        rExp                           1.000000
      * Coulomb:
        alpha                          2.000000
        third order                    shell-resolved
        anisotropic                    true
        a3                             3.000000
        a5                             4.000000
        cn-shift                       1.200000
        cn-exp                         4.000000
        max-rad                        5.000000

      * Solvation model:               GBSA
        Solvent                        methanol
        Parameter file                 internal GFN2-xTB/GBSA
        Dielectric constant                3.2700E+01
        Reference state                gsolv [1 M gas/solution]
        Free energy shift                  3.3569E-03 Eh       2.1065E+00 kcal/mol
        Temperature                        2.9815E+02 K
        Density                            7.9200E-01 kg/L
        Solvent mass                       3.2040E+01 g/mol
        Interaction kernel             Still
        Born radius scaling (c1)           1.6087E+00
        Born radii integrator          GBOBC
        Born offset                        5.6550E-04 a0       1.0686E-03 AA
        H-bond correction              true
        Ion screening                  false
        Surface tension                    1.0000E-05 Eh       1.5569E+01 dyn/cm
        Grid points                               230 per atom

          ...................................................
          :                      SETUP                      :
          :.................................................:
          :  # basis functions                  56          :
          :  # atomic orbitals                  55          :
          :  # shells                           33          :
          :  # electrons                        56          :
          :  max. iterations                   250          :
          :  Hamiltonian                  GFN2-xTB          :
          :  restarted?                      false          :
          :  GBSA solvation                   true          :
          :  PC potential                    false          :
          :  electronic temp.          300.0000000     K    :
          :  accuracy                    1.0000000          :
          :  -> integral cutoff          0.2500000E+02      :
          :  -> integral neglect         0.1000000E-07      :
          :  -> SCF convergence          0.1000000E-05 Eh   :
          :  -> wf. convergence          0.1000000E-03 e    :
          :  Broyden damping             0.4000000          :
          ...................................................

 iter      E             dE          RMSdq      gap      omega  full diag
   1    -30.8986753 -0.308987E+02  0.353E+00   10.95       0.0  T
   2    -30.9828811 -0.842058E-01  0.187E+00    9.58       1.0  T
   3    -30.9836198 -0.738706E-03  0.909E-01    9.47       1.0  T
   4    -30.9838199 -0.200104E-03  0.116E-01    9.46       1.0  T
   5    -30.9838890 -0.690757E-04  0.714E-02    9.48       1.0  T
   6    -30.9838948 -0.580791E-05  0.204E-02    9.49       1.0  T
   7    -30.9838954 -0.644489E-06  0.127E-02    9.49       1.6  T
   8    -30.9838957 -0.300217E-06  0.490E-03    9.49       4.3  T
   9    -30.9838958 -0.609514E-07  0.186E-03    9.49      11.2  T
  10    -30.9838958 -0.684344E-08  0.809E-04    9.49      25.8  T
  11    -30.9838958 -0.162719E-08  0.182E-04    9.49     114.9  T

   *** convergence criteria satisfied after 11 iterations ***

         #    Occupation            Energy/Eh            Energy/eV
      -------------------------------------------------------------
         1        2.0000           -0.7419443             -20.1893
       ...           ...                  ...                  ...
        22        2.0000           -0.4234031             -11.5214
        23        2.0000           -0.4214670             -11.4687
        24        2.0000           -0.4153524             -11.3023
        25        2.0000           -0.3901822             -10.6174
        26        2.0000           -0.3351394              -9.1196
        27        2.0000           -0.3351086              -9.1188
        28        2.0000           -0.3349942              -9.1157 (HOMO)
        29                          0.0137155               0.3732 (LUMO)
        30                          0.0837875               2.2800
        31                          0.0929398               2.5290
        32                          0.0994908               2.7073
        33                          0.1065968               2.9006
       ...                                ...                  ...
        55                          0.3141896               8.5495
      -------------------------------------------------------------
                  HL-Gap            0.3487097 Eh            9.4889 eV
             Fermi-level           -0.1606394 Eh           -4.3712 eV

 SCC (total)                   0 d,  0 h,  0 min,  0.030 sec
 SCC setup                      ...        0 min,  0.001 sec (  4.438%)
 Dispersion                     ...        0 min,  0.000 sec (  0.559%)
 classical contributions        ...        0 min,  0.000 sec (  0.128%)
 integral evaluation            ...        0 min,  0.006 sec ( 21.425%)
 iterations                     ...        0 min,  0.015 sec ( 49.358%)
 molecular gradient             ...        0 min,  0.006 sec ( 21.843%)
 printout                       ...        0 min,  0.001 sec (  2.189%)

         :::::::::::::::::::::::::::::::::::::::::::::::::::::
         ::                     SUMMARY                     ::
         :::::::::::::::::::::::::::::::::::::::::::::::::::::
         :: total energy             -30.657855680030 Eh    ::
         :: total w/o Gsasa/hb       -30.639726954281 Eh    ::
         :: gradient norm              0.000504136554 Eh/a0 ::
         :: HOMO-LUMO gap              9.488873300584 eV    ::
         ::.................................................::
         :: SCC energy               -30.983895797865 Eh    ::
         :: -> isotropic ES            0.201159951986 Eh    ::
         :: -> anisotropic ES          0.001391544599 Eh    ::
         :: -> anisotropic XC          0.009415095918 Eh    ::
         :: -> dispersion             -0.015779554417 Eh    ::
         :: -> Gsolv                  -0.114817610722 Eh    ::
         ::    -> Gborn               -0.096688884972 Eh    ::
         ::    -> Gsasa               -0.014380181882 Eh    ::
         ::    -> Ghb                 -0.007105473390 Eh    ::
         ::    -> Gshift               0.003356929523 Eh    ::
         :: repulsion energy           0.325902675407 Eh    ::
         :: add. restraining           0.000000000000 Eh    ::
         :: total charge              -1.000000000000 e     ::
         :::::::::::::::::::::::::::::::::::::::::::::::::::::

           -------------------------------------------------
          |                Property Printout                |
           -------------------------------------------------

    * Orbital Energies and Occupations

         #    Occupation            Energy/Eh            Energy/eV
      -------------------------------------------------------------
         1        2.0000           -0.7419443             -20.1893
       ...           ...                  ...                  ...
        16        2.0000           -0.4825013             -13.1295
        17        2.0000           -0.4661424             -12.6844
        18        2.0000           -0.4632107             -12.6046
        19        2.0000           -0.4562449             -12.4151
        20        2.0000           -0.4399410             -11.9714
        21        2.0000           -0.4366462             -11.8817
        22        2.0000           -0.4234031             -11.5214
        23        2.0000           -0.4214670             -11.4687
        24        2.0000           -0.4153524             -11.3023
        25        2.0000           -0.3901822             -10.6174
        26        2.0000           -0.3351394              -9.1196
        27        2.0000           -0.3351086              -9.1188
        28        2.0000           -0.3349942              -9.1157 (HOMO)
        29                          0.0137155               0.3732 (LUMO)
        30                          0.0837875               2.2800
        31                          0.0929398               2.5290
        32                          0.0994908               2.7073
        33                          0.1065968               2.9006
        34                          0.1125835               3.0636
        35                          0.1320690               3.5938
        36                          0.1358481               3.6966
        37                          0.1458676               3.9693
        38                          0.1732870               4.7154
        39                          0.1781444               4.8476
       ...                                ...                  ...
        55                          0.3141896               8.5495
      -------------------------------------------------------------
                  HL-Gap            0.3487097 Eh            9.4889 eV
             Fermi-level           -0.1606394 Eh           -4.3712 eV

     #   Z          covCN         q      C6AA      α(0)
     1   6 C        3.806    -0.057    21.594     6.615
     2   6 C        3.806    -0.064    21.715     6.634
     3   6 C        3.806    -0.066    21.756     6.640
     4   1 H        0.923    -0.002     3.089     2.749
     5   6 C        3.806    -0.059    21.633     6.621
     6   1 H        0.924     0.053     2.283     2.363
     7   1 H        0.924     0.037     2.488     2.467
     8   6 C        3.805    -0.066    21.759     6.641
     9   1 H        0.924     0.040     2.451     2.448
    10   1 H        0.924     0.047     2.359     2.402
    11   6 C        3.745     0.119    18.698     6.168
    12   1 H        0.924     0.023     2.687     2.563
    13   1 H        0.924     0.046     2.368     2.406
    14   1 H        0.924     0.045     2.384     2.415
    15   1 H        0.924     0.027     2.631     2.537
    16   1 H        0.924     0.040     2.454     2.450
    17   1 H        0.924     0.023     2.682     2.561
    18  35 Br       0.000    -1.000   195.297    22.457
    19   6 C        3.641     0.046    20.155     6.455
    20   8 O        1.700    -0.346    19.809     6.009
    21   1 H        0.924     0.030     2.580     2.512
    22   1 H        0.924     0.019     2.744     2.591
    23   1 H        0.925     0.063     2.166     2.302

 Mol. C6AA /au·bohr⁶  :       5271.233710
 Mol. C8AA /au·bohr⁸  :     144589.454713
 Mol. α(0) /au        :        109.004796


Wiberg/Mayer (AO) data.
largest (>0.10) Wiberg bond orders for each atom

 ---------------------------------------------------------------------------
     #   Z sym  total        # sym  WBO       # sym  WBO       # sym  WBO
 ---------------------------------------------------------------------------
     1   6 C    3.997 --     2 C    1.009     8 C    1.007    17 H    0.978
                            16 H    0.977
     2   6 C    3.997 --     1 C    1.009     5 C    1.009     9 H    0.977
                            10 H    0.977
     3   6 C    3.995 --     5 C    1.008    11 C    0.991     7 H    0.977
                             6 H    0.975
     4   1 H    1.000 --    11 C    0.960
     5   6 C    3.997 --     2 C    1.009     3 C    1.008    15 H    0.978
                            14 H    0.976
     6   1 H    0.997 --     3 C    0.975
     7   1 H    0.999 --     3 C    0.977
     8   6 C    3.997 --     1 C    1.007    11 C    0.988    13 H    0.976
                            12 H    0.976
     9   1 H    0.998 --     2 C    0.977
    10   1 H    0.998 --     2 C    0.977
    11   6 C    3.946 --     3 C    0.991     8 C    0.988     4 H    0.960
                            20 O    0.960
    12   1 H    0.999 --     8 C    0.976
    13   1 H    0.998 --     8 C    0.976
    14   1 H    0.998 --     5 C    0.976
    15   1 H    0.999 --     5 C    0.978
    16   1 H    0.998 --     1 C    0.977
    17   1 H    0.999 --     1 C    0.978
    18  35 Br   0.000 --    19   6 C    3.954 --    20 O    0.997    23 H    0.979    22 H    0.978
                            21 H    0.977
    20   8 O    2.056 --    19 C    0.997    11 C    0.960
    21   1 H    0.999 --    19 C    0.977
    22   1 H    1.000 --    19 C    0.978
    23   1 H    0.996 --    19 C    0.979
 ---------------------------------------------------------------------------

Topologies differ in total number of bonds
Writing topology from bond orders to xtbtopo.mol

molecular dipole:
                 x           y           z       tot (Debye)
 q only:        9.663       2.252       1.352
   full:        9.353       2.066       1.313      24.574
molecular quadrupole (traceless):
                xx          xy          yy          xz          yz          zz
 q only:      -91.814     -34.425      42.438     -10.384      -0.123      49.376
  q+dip:      -88.477     -34.759      41.886     -10.162      -0.482      46.591
   full:      -89.603     -34.510      42.158      -9.989      -0.015      47.445


           -------------------------------------------------
          | TOTAL ENERGY              -30.657855680030 Eh   |
          | GRADIENT NORM               0.000504136554 Eh/α |
          | HOMO-LUMO GAP               9.488873300584 eV   |
           -------------------------------------------------

------------------------------------------------------------------------
 * finished run on 2021/11/10 at 03:13:12.861     
------------------------------------------------------------------------
 total:
 * wall-time:     0 d,  0 h,  0 min,  0.047 sec
 *  cpu-time:     0 d,  0 h,  0 min,  0.361 sec
 * ratio c/w:     7.732 speedup
 SCF:
 * wall-time:     0 d,  0 h,  0 min,  0.030 sec
 *  cpu-time:     0 d,  0 h,  0 min,  0.224 sec
 * ratio c/w:     7.438 speedup


-------------------------   --------------------
FINAL SINGLE POINT ENERGY       -30.657855680030
-------------------------   --------------------

------------------------------------------------------------------------------
                         ORCA GEOMETRY RELAXATION STEP
------------------------------------------------------------------------------

Reading the OPT-File                    .... done
Getting information on internals        .... done
Copying old internal coords+grads       .... done
Making the new internal coordinates     .... (new redundants).... done
Validating the new internal coordinates .... (new redundants).... done
Calculating the B-matrix                .... done
Calculating the G,G- and P matrices     .... done
Transforming gradient to internals      .... done
Projecting the internal gradient        .... done
Number of atoms                         ....  23
Number of internal coordinates          .... 149
Current Energy                          ....   -30.657855680 Eh
Current gradient norm                   ....     0.000504137 Eh/bohr
Maximum allowed component of the step   ....  0.300
Current trust radius                    ....  0.300
Evaluating the initial hessian          ....  (Almloef) done
Projecting the Hessian                  .... done
Forming the augmented Hessian           .... done
Diagonalizing the augmented Hessian     .... done
Last element of RFO vector              ....  0.999979394
Lowest eigenvalues of augmented Hessian:
 -0.000000726  0.000617776  0.010234940  0.015672607  0.016747894
Length of the computed step             ....  0.006419806
The final length of the internal step   ....  0.006419806
Converting the step to cartesian space:
 Initial RMS(Int)=    0.0005259310
Transforming coordinates:
 Iter   0:  RMS(Cart)=    0.0006706510 RMS(Int)=    0.0005259521
 Iter   1:  RMS(Cart)=    0.0000001648 RMS(Int)=    0.0000001093
 Iter   2:  RMS(Cart)=    0.0000000001 RMS(Int)=    0.0000000000
done
Storing new coordinates                 .... done

                                .--------------------.
          ----------------------|Geometry convergence|-------------------------
          Item                value                   Tolerance       Converged
          ---------------------------------------------------------------------
          RMS gradient        0.0000285640            0.0001000000      YES
          MAX gradient        0.0001387211            0.0003000000      YES
          RMS step            0.0005259310            0.0020000000      YES
          MAX step            0.0035885712            0.0040000000      YES
          ........................................................
          Max(Bonds)      0.0019      Max(Angles)    0.03
          Max(Dihed)        0.05      Max(Improp)    0.00
          ---------------------------------------------------------------------

                    ***********************HURRAY********************
                    ***        THE OPTIMIZATION HAS CONVERGED     ***
                    *************************************************


    ---------------------------------------------------------------------------
                         Redundant Internal Coordinates

                          --- Optimized Parameters ---  
                            (Angstroem and degrees)

        Definition                    OldVal   dE/dq     Step     FinalVal
    ----------------------------------------------------------------------------
     1. B(C   1,C   0)                1.5255  0.000065 -0.0001    1.5254   
     2. B(C   4,C   1)                1.5255 -0.000004  0.0000    1.5255   
     3. B(C   4,C   2)                1.5251  0.000044 -0.0001    1.5250   
     4. B(H   5,C   2)                1.0914  0.000026 -0.0000    1.0913   
     5. B(H   6,C   2)                1.0913  0.000009 -0.0000    1.0913   
     6. B(C   7,C   0)                1.5260 -0.000007  0.0000    1.5260   
     7. B(H   8,C   1)                1.0914 -0.000012  0.0000    1.0914   
     8. B(H   9,C   1)                1.0918 -0.000015  0.0000    1.0918   
     9. B(C  10,C   7)                1.5326 -0.000015  0.0000    1.5326   
    10. B(C  10,H   3)                1.1041 -0.000040  0.0001    1.1041   
    11. B(C  10,C   2)                1.5292  0.000009 -0.0000    1.5291   
    12. B(H  11,C   7)                1.0921 -0.000045  0.0001    1.0922   
    13. B(H  12,C   7)                1.0923 -0.000029  0.0000    1.0924   
    14. B(H  13,C   4)                1.0914  0.000035 -0.0001    1.0914   
    15. B(H  14,C   4)                1.0933  0.000064 -0.0001    1.0932   
    16. B(H  15,C   0)                1.0918 -0.000045  0.0001    1.0918   
    17. B(H  16,C   0)                1.0936 -0.000071  0.0001    1.0937   
    18. B(Br 17,H  16)                4.9441  0.000003  0.0012    4.9453   
    19. B(Br 17,H   3)                4.2158 -0.000005  0.0019    4.2177   
    20. B(O  19,C  18)                1.4065  0.000055 -0.0000    1.4065   
    21. B(O  19,C  10)                1.4240  0.000035 -0.0000    1.4239   
    22. B(H  20,C  18)                1.0954 -0.000054  0.0001    1.0955   
    23. B(H  21,Br 17)                4.2801 -0.000002  0.0019    4.2820   
    24. B(H  21,C  18)                1.0971 -0.000025  0.0000    1.0971   
    25. B(H  22,C  18)                1.0885 -0.000048  0.0001    1.0886   
    26. A(C   7,C   0,H  15)          109.54  0.000024   -0.01    109.53   
    27. A(C   7,C   0,H  16)          108.83 -0.000019    0.01    108.84   
    28. A(C   1,C   0,H  16)          109.53  0.000030   -0.01    109.51   
    29. A(C   1,C   0,C   7)          110.79 -0.000016    0.01    110.80   
    30. A(C   1,C   0,H  15)          110.25 -0.000021    0.01    110.26   
    31. A(H  15,C   0,H  16)          107.85  0.000002   -0.00    107.85   
    32. A(C   0,C   1,H   8)          109.77 -0.000000   -0.00    109.76   
    33. A(C   4,C   1,H   9)          109.41  0.000018   -0.00    109.41   
    34. A(H   8,C   1,H   9)          108.31  0.000002    0.00    108.31   
    35. A(C   0,C   1,H   9)          109.30 -0.000025    0.01    109.32   
    36. A(C   4,C   1,H   8)          109.89 -0.000006   -0.00    109.89   
    37. A(C   0,C   1,C   4)          110.13  0.000011   -0.01    110.13   
    38. A(H   6,C   2,C  10)          108.70  0.000004    0.01    108.71   
    39. A(C   4,C   2,H   5)          110.42  0.000014   -0.00    110.42   
    40. A(H   5,C   2,H   6)          108.06  0.000010   -0.01    108.05   
    41. A(H   5,C   2,C  10)          108.03 -0.000019    0.01    108.04   
    42. A(C   4,C   2,C  10)          110.83 -0.000025    0.00    110.83   
    43. A(C   4,C   2,H   6)          110.71  0.000016   -0.01    110.70   
    44. A(C  10,H   3,Br 17)          165.45 -0.000016    0.00    165.45   
    45. A(H  13,C   4,H  14)          108.05  0.000014   -0.01    108.05   
    46. A(C   1,C   4,H  14)          109.37  0.000002   -0.01    109.37   
    47. A(C   2,C   4,H  13)          109.57  0.000020   -0.00    109.56   
    48. A(C   1,C   4,H  13)          110.21 -0.000034    0.02    110.23   
    49. A(C   1,C   4,C   2)          110.51 -0.000007    0.00    110.52   
    50. A(C   2,C   4,H  14)          109.08  0.000005   -0.01    109.08   
    51. A(H  11,C   7,H  12)          108.40 -0.000004   -0.00    108.40   
    52. A(C   0,C   7,H  12)          110.33 -0.000009    0.00    110.34   
    53. A(C  10,C   7,H  11)          109.74  0.000041   -0.01    109.72   
    54. A(C  10,C   7,H  12)          108.44  0.000009   -0.01    108.43   
    55. A(C   0,C   7,H  11)          109.56 -0.000021    0.00    109.57   
    56. A(C   0,C   7,C  10)          110.34 -0.000014    0.01    110.35   
    57. A(C   2,C  10,H   3)          109.55  0.000027   -0.01    109.54   
    58. A(H   3,C  10,C   7)          108.92 -0.000000   -0.01    108.91   
    59. A(C   7,C  10,O  19)          112.64  0.000004    0.01    112.64   
    60. A(H   3,C  10,O  19)          108.86  0.000006    0.00    108.86   
    61. A(C   2,C  10,O  19)          106.79 -0.000068    0.02    106.82   
    62. A(C   2,C  10,C   7)          110.03  0.000031   -0.01    110.02   
    63. A(C   0,H  16,Br 17)          144.95  0.000013    0.01    144.95   
    64. A(H  16,Br 17,H  21)           56.93  0.000004   -0.01     56.92   
    65. A(H   3,Br 17,H  21)           31.32  0.000013   -0.01     31.31   
    66. A(H   3,Br 17,H  16)           31.06 -0.000008   -0.00     31.06   
    67. A(H  21,C  18,H  22)          109.38 -0.000114    0.03    109.41   
    68. A(H  20,C  18,H  22)          109.37 -0.000005   -0.00    109.37   
    69. A(O  19,C  18,H  22)          106.24  0.000139   -0.03    106.21   
    70. A(H  20,C  18,H  21)          108.54  0.000016   -0.00    108.54   
    71. A(O  19,C  18,H  21)          111.33  0.000005    0.00    111.33   
    72. A(O  19,C  18,H  20)          111.93 -0.000043    0.01    111.94   
    73. A(C  10,O  19,C  18)          115.27 -0.000002    0.01    115.28   
    74. A(Br 17,H  21,C  18)          158.80 -0.000004   -0.00    158.79   
    75. D(H   9,C   1,C   0,C   7)    -62.41 -0.000003   -0.03    -62.44   
    76. D(H   8,C   1,C   0,H  15)    -59.65  0.000015   -0.03    -59.68   
    77. D(H   8,C   1,C   0,H  16)     58.88  0.000023   -0.04     58.83   
    78. D(C   4,C   1,C   0,H  15)    179.23  0.000015   -0.02    179.21   
    79. D(H   9,C   1,C   0,H  16)    177.53  0.000010   -0.03    177.50   
    80. D(C   4,C   1,C   0,H  16)    -62.24  0.000024   -0.03    -62.27   
    81. D(H   8,C   1,C   0,C   7)    178.93  0.000010   -0.03    178.90   
    82. D(C   4,C   1,C   0,C   7)     57.81  0.000010   -0.02     57.79   
    83. D(H   9,C   1,C   0,H  15)     59.01  0.000002   -0.02     58.98   
    84. D(H  13,C   4,C   1,H   9)    -58.57 -0.000012    0.00    -58.57   
    85. D(C   1,C   4,C   2,C  10)     57.67 -0.000015    0.02     57.69   
    86. D(H  13,C   4,C   2,H   6)    -60.00 -0.000050    0.05    -59.95   
    87. D(H  13,C   4,C   2,C  10)    179.30 -0.000048    0.04    179.34   
    88. D(C   2,C   4,C   1,H   8)   -178.53 -0.000003    0.01   -178.52   
    89. D(C   2,C   4,C   1,H   9)     62.67 -0.000013    0.01     62.69   
    90. D(C   1,C   4,C   2,H   6)    178.37 -0.000016    0.03    178.40   
    91. D(H  13,C   4,C   1,C   0)   -178.73  0.000001   -0.01   -178.74   
    92. D(C   1,C   4,C   2,H   5)    -62.00  0.000015    0.01    -61.99   
    93. D(C   2,C   4,C   1,C   0)    -57.49 -0.000000    0.00    -57.49   
    94. D(H  14,C   4,C   2,C  10)    -62.60 -0.000016    0.03    -62.57   
    95. D(H  14,C   4,C   2,H   6)     58.10 -0.000017    0.03     58.13   
    96. D(H  14,C   4,C   2,H   5)    177.72  0.000014    0.02    177.74   
    97. D(H  14,C   4,C   1,H   9)   -177.22 -0.000010    0.00   -177.22   
    98. D(H  14,C   4,C   1,H   8)    -58.43 -0.000000    0.00    -58.43   
    99. D(H  13,C   4,C   2,H   5)     59.62 -0.000018    0.04     59.66   
   100. D(H  13,C   4,C   1,H   8)     60.22 -0.000002   -0.00     60.22   
   101. D(H  14,C   4,C   1,C   0)     62.61  0.000003   -0.01     62.61   
   102. D(H  11,C   7,C   0,C   1)   -178.76 -0.000030    0.02   -178.74   
   103. D(C  10,C   7,C   0,H  16)     62.64  0.000013    0.01     62.65   
   104. D(C  10,C   7,C   0,H  15)   -179.67  0.000018    0.01   -179.66   
   105. D(C  10,C   7,C   0,C   1)    -57.83 -0.000003    0.02    -57.82   
   106. D(H  12,C   7,C   0,H  16)   -177.55  0.000009    0.01   -177.54   
   107. D(H  12,C   7,C   0,C   1)     61.97 -0.000006    0.02     61.99   
   108. D(H  12,C   7,C   0,H  15)    -59.86  0.000015    0.01    -59.85   
   109. D(H  11,C   7,C   0,H  16)    -58.28 -0.000015    0.02    -58.26   
   110. D(H  11,C   7,C   0,H  15)     59.40 -0.000009    0.01     59.42   
   111. D(O  19,C  10,C   7,H  12)     55.25 -0.000013    0.00     55.26   
   112. D(O  19,C  10,C   7,H  11)    -62.98 -0.000036    0.02    -62.96   
   113. D(H   3,C  10,C   7,H  12)    176.13 -0.000003    0.00    176.13   
   114. D(H   3,C  10,C   7,H  11)     57.89 -0.000026    0.02     57.91   
   115. D(H   3,C  10,C   7,C   0)    -62.93 -0.000017    0.01    -62.91   
   116. D(C   2,C  10,C   7,H  12)    -63.77  0.000049   -0.02    -63.80   
   117. D(C   2,C  10,C   7,H  11)    177.99  0.000026   -0.01    177.98   
   118. D(C   2,C  10,C   7,C   0)     57.17  0.000036   -0.01     57.16   
   119. D(O  19,C  10,H   3,Br 17)     67.57  0.000012    0.00     67.57   
   120. D(C   7,C  10,H   3,Br 17)    -55.60  0.000004   -0.00    -55.60   
   121. D(C   2,C  10,H   3,Br 17)   -175.99 -0.000051    0.02   -175.97   
   122. D(O  19,C  10,C   2,H   6)     58.28 -0.000002   -0.02     58.26   
   123. D(O  19,C  10,C   2,H   5)    -58.74 -0.000005   -0.02    -58.76   
   124. D(O  19,C  10,C   2,C   4)   -179.84  0.000005   -0.02   -179.86   
   125. D(C   7,C  10,C   2,H   6)   -179.18 -0.000021   -0.00   -179.18   
   126. D(C   7,C  10,C   2,H   5)     63.80 -0.000024   -0.00     63.80   
   127. D(C   7,C  10,C   2,C   4)    -57.30 -0.000014   -0.01    -57.30   
   128. D(O  19,C  10,C   7,C   0)    176.20 -0.000027    0.01    176.21   
   129. D(H   3,C  10,C   2,H   6)    -59.46  0.000015   -0.03    -59.49   
   130. D(H   3,C  10,C   2,H   5)   -176.48  0.000012   -0.03   -176.51   
   131. D(H   3,C  10,C   2,C   4)     62.42  0.000022   -0.03     62.39   
   132. D(Br 17,H  16,C   0,H  15)   -127.08 -0.000009   -0.01   -127.09   
   133. D(Br 17,H  16,C   0,C   7)     -8.33  0.000010   -0.02     -8.35   
   134. D(Br 17,H  16,C   0,C   1)    112.92 -0.000002   -0.01    112.91   
   135. D(H   3,Br 17,H  16,C   0)    -26.23 -0.000027    0.02    -26.21   
   136. D(H  21,Br 17,H   3,C  10)    -48.00  0.000003   -0.01    -48.01   
   137. D(H  16,Br 17,H   3,C  10)     85.94  0.000003   -0.01     85.93   
   138. D(H  21,Br 17,H  16,C   0)      0.29 -0.000018    0.01      0.31   
   139. D(C  10,O  19,C  18,H  22)    169.45 -0.000055    0.01    169.46   
   140. D(C  10,O  19,C  18,H  21)     50.45 -0.000005    0.00     50.45   
   141. D(C  10,O  19,C  18,H  20)    -71.23  0.000001   -0.00    -71.23   
   142. D(C  18,O  19,C  10,C   7)     74.79 -0.000009    0.00     74.79   
   143. D(C  18,O  19,C  10,H   3)    -46.12 -0.000016    0.01    -46.11   
   144. D(C  18,O  19,C  10,C   2)   -164.31 -0.000013    0.01   -164.30   
   145. D(Br 17,H  21,C  18,H  22)    178.41 -0.000053   -0.00    178.41   
   146. D(Br 17,H  21,C  18,H  20)     59.15  0.000009   -0.01     59.14   
   147. D(Br 17,H  21,C  18,O  19)    -64.48  0.000049   -0.02    -64.51   
   148. D(C  18,H  21,Br 17,H  16)     14.47 -0.000030    0.02     14.49   
   149. D(C  18,H  21,Br 17,H   3)     40.79 -0.000038    0.02     40.81   
    ----------------------------------------------------------------------------
                 *******************************************************
                 *** FINAL ENERGY EVALUATION AT THE STATIONARY POINT ***
                 ***               (AFTER    1 CYCLES)               ***
                 *******************************************************
      -----------------------------------------------------------      
     |                   =====================                   |     
     |                           x T B                           |     
     |                   =====================                   |     
     |                         S. Grimme                         |     
     |          Mulliken Center for Theoretical Chemistry        |     
     |                    University of Bonn                     |     
      -----------------------------------------------------------      

   * xtb version 6.3.2 (30e43eb) compiled by 'schneider@apollo14' on 2020-08-08

   xtb is free software: you can redistribute it and/or modify it under
   the terms of the GNU Lesser General Public License as published by
   the Free Software Foundation, either version 3 of the License, or
   (at your option) any later version.
   
   xtb is distributed in the hope that it will be useful,
   but WITHOUT ANY WARRANTY; without even the implied warranty of
   MERCHANTABILITY or FITNESS FOR A PARTICULAR PURPOSE.  See the
   GNU Lesser General Public License for more details.
   
   Cite this work as:
   * S. Grimme, C. Bannwarth, P. Shushkov, J. Chem. Theory Comput., 2017,
     13, 1989-2009. DOI: 10.1021/acs.jctc.7b00118
   * C. Bannwarth, S. Ehlert and S. Grimme., J. Chem. Theory Comput., 2019,
     15, 1652-1671. DOI: 10.1021/acs.jctc.8b01176
   * P. Pracht, E. Caldeweyher, S. Ehlert, S. Grimme, ChemRxiv, 2019, preprint.
     DOI: 10.26434/chemrxiv.8326202.v1
   
   for GFN-FF:
   * S. Spicher and S. Grimme, Angew. Chem. Int. Ed., 2020,
     DOI: 10.1002/anie.202004239
   
   for DFT-D4:
   * E. Caldeweyher, C. Bannwarth and S. Grimme, J. Chem. Phys., 2017,
     147, 034112. DOI: 10.1063/1.4993215
   * E. Caldeweyher, S. Ehlert, A. Hansen, H. Neugebauer, S. Spicher,
     C. Bannwarth and S. Grimme, J. Chem. Phys., 2019, 150, 154122.
     DOI: 10.1063/1.5090222
   
   for sTDA-xTB:
   * S. Grimme and C. Bannwarth, J. Chem. Phys., 2016, 145, 054103.
     DOI: 10.1063/1.4959605
   
   in the mass-spec context:
   * V. Asgeirsson, C. Bauer and S. Grimme, Chem. Sci., 2017, 8, 4879.
     DOI: 10.1039/c7sc00601b
   * J. Koopman and S. Grimme, ACS Omega 2019, 4, 12, 15120-15133.
     DOI: 10.1021/acsomega.9b02011
   
   for metadynamics refer to:
   * S. Grimme, J. Chem. Theory Comput., 2019, 155, 2847-2862
     DOI: 10.1021/acs.jctc.9b00143
   
   with help from (in alphabetical order)
   C. Bannwarth, F. Bohle, G. Brandenburg, E. Caldeweyher, M. Checinski,
   S. Dohm, S. Ehlert, S. Ehrlich, F. März, H. Neugebauer, J. Pisarek,
   P. Pracht, P. Shushkov, and S. Spicher.
   
 * started run on 2021/11/10 at 03:13:13.159     

           -------------------------------------------------
          |                Calculation Setup                |
           -------------------------------------------------

          program call               : /opt/orca/otool_xtb opt+numfreq_XTB.xyz --grad -c -1 -u 0 -P 6 --namespace opt+numfreq --gbsa methanol
          calculation namespace      : opt+numfreq
          coordinate file            : opt+numfreq_XTB.xyz
          omp threads                :                     6
          number of atoms            :                    23
          number of electrons        :                    56
          charge                     :                    -1
          spin                       :                   0.0
          first test random number   :      0.14716876770159

   ID    Z sym.   atoms
    1    6 C      1-3, 5, 8, 11, 19
    2    1 H      4, 6, 7, 9, 10, 12-17, 21-23
    3   35 Br     18
    4    8 O      20

molecular fragmentation (1/2 indicates fragments):
11111111111111111211111
# atoms in fragment 1/2:    22     1
 fragment masses (1/2) :      114.19       79.90
CMA distance (Bohr)    :  10.571
constraining FC (au)   :  0.0500
########################################################################
[WARNING] Please study the warnings concerning your input carefully
-1- prog_main_parseArguments: Process number higher than OMP_NUM_THREADS, I hope you know what you are doing.
########################################################################

           -------------------------------------------------
          |                 G F N 2 - x T B                 |
           -------------------------------------------------

        Reference                      10.1021/acs.jctc.8b01176
      * Hamiltonian:
        H0-scaling (s, p, d)           1.850000    2.230000    2.230000
        zeta-weighting                 0.500000
      * Dispersion:
        s8                             2.700000
        a1                             0.520000
        a2                             5.000000
        s9                             5.000000
      * Repulsion:
        kExp                           1.500000    1.000000
        rExp                           1.000000
      * Coulomb:
        alpha                          2.000000
        third order                    shell-resolved
        anisotropic                    true
        a3                             3.000000
        a5                             4.000000
        cn-shift                       1.200000
        cn-exp                         4.000000
        max-rad                        5.000000

      * Solvation model:               GBSA
        Solvent                        methanol
        Parameter file                 internal GFN2-xTB/GBSA
        Dielectric constant                3.2700E+01
        Reference state                gsolv [1 M gas/solution]
        Free energy shift                  3.3569E-03 Eh       2.1065E+00 kcal/mol
        Temperature                        2.9815E+02 K
        Density                            7.9200E-01 kg/L
        Solvent mass                       3.2040E+01 g/mol
        Interaction kernel             Still
        Born radius scaling (c1)           1.6087E+00
        Born radii integrator          GBOBC
        Born offset                        5.6550E-04 a0       1.0686E-03 AA
        H-bond correction              true
        Ion screening                  false
        Surface tension                    1.0000E-05 Eh       1.5569E+01 dyn/cm
        Grid points                               230 per atom

          ...................................................
          :                      SETUP                      :
          :.................................................:
          :  # basis functions                  56          :
          :  # atomic orbitals                  55          :
          :  # shells                           33          :
          :  # electrons                        56          :
          :  max. iterations                   250          :
          :  Hamiltonian                  GFN2-xTB          :
          :  restarted?                      false          :
          :  GBSA solvation                   true          :
          :  PC potential                    false          :
          :  electronic temp.          300.0000000     K    :
          :  accuracy                    1.0000000          :
          :  -> integral cutoff          0.2500000E+02      :
          :  -> integral neglect         0.1000000E-07      :
          :  -> SCF convergence          0.1000000E-05 Eh   :
          :  -> wf. convergence          0.1000000E-03 e    :
          :  Broyden damping             0.4000000          :
          ...................................................

 iter      E             dE          RMSdq      gap      omega  full diag
   1    -30.8986363 -0.308986E+02  0.353E+00   10.95       0.0  T
   2    -30.9828522 -0.842158E-01  0.187E+00    9.58       1.0  T
   3    -30.9835906 -0.738439E-03  0.909E-01    9.47       1.0  T
   4    -30.9837907 -0.200078E-03  0.116E-01    9.46       1.0  T
   5    -30.9838596 -0.689317E-04  0.714E-02    9.48       1.0  T
   6    -30.9838654 -0.580416E-05  0.204E-02    9.49       1.0  T
   7    -30.9838661 -0.644518E-06  0.127E-02    9.49       1.6  T
   8    -30.9838664 -0.300145E-06  0.491E-03    9.49       4.2  T
   9    -30.9838664 -0.609662E-07  0.186E-03    9.49      11.2  T
  10    -30.9838664 -0.683207E-08  0.809E-04    9.49      25.8  T
  11    -30.9838664 -0.162718E-08  0.182E-04    9.49     114.8  T

   *** convergence criteria satisfied after 11 iterations ***

         #    Occupation            Energy/Eh            Energy/eV
      -------------------------------------------------------------
         1        2.0000           -0.7419457             -20.1894
       ...           ...                  ...                  ...
        22        2.0000           -0.4234068             -11.5215
        23        2.0000           -0.4214669             -11.4687
        24        2.0000           -0.4153615             -11.3026
        25        2.0000           -0.3901800             -10.6173
        26        2.0000           -0.3351406              -9.1196
        27        2.0000           -0.3351098              -9.1188
        28        2.0000           -0.3349956              -9.1157 (HOMO)
        29                          0.0137304               0.3736 (LUMO)
        30                          0.0838193               2.2808
        31                          0.0929043               2.5281
        32                          0.0994530               2.7063
        33                          0.1066077               2.9009
       ...                                ...                  ...
        55                          0.3141690               8.5490
      -------------------------------------------------------------
                  HL-Gap            0.3487260 Eh            9.4893 eV
             Fermi-level           -0.1606326 Eh           -4.3710 eV

 SCC (total)                   0 d,  0 h,  0 min,  0.032 sec
 SCC setup                      ...        0 min,  0.001 sec (  3.452%)
 Dispersion                     ...        0 min,  0.000 sec (  0.602%)
 classical contributions        ...        0 min,  0.000 sec (  0.177%)
 integral evaluation            ...        0 min,  0.006 sec ( 19.897%)
 iterations                     ...        0 min,  0.017 sec ( 54.054%)
 molecular gradient             ...        0 min,  0.007 sec ( 21.177%)
 printout                       ...        0 min,  0.000 sec (  0.587%)

         :::::::::::::::::::::::::::::::::::::::::::::::::::::
         ::                     SUMMARY                     ::
         :::::::::::::::::::::::::::::::::::::::::::::::::::::
         :: total energy             -30.657856238968 Eh    ::
         :: total w/o Gsasa/hb       -30.639724925174 Eh    ::
         :: gradient norm              0.000325106600 Eh/a0 ::
         :: HOMO-LUMO gap              9.489318766392 eV    ::
         ::.................................................::
         :: SCC energy               -30.983866435225 Eh    ::
         :: -> isotropic ES            0.201156602080 Eh    ::
         :: -> anisotropic ES          0.001392011454 Eh    ::
         :: -> anisotropic XC          0.009414960605 Eh    ::
         :: -> dispersion             -0.015777952850 Eh    ::
         :: -> Gsolv                  -0.114820347285 Eh    ::
         ::    -> Gborn               -0.096689033491 Eh    ::
         ::    -> Gsasa               -0.014381674522 Eh    ::
         ::    -> Ghb                 -0.007106568794 Eh    ::
         ::    -> Gshift               0.003356929523 Eh    ::
         :: repulsion energy           0.325872780549 Eh    ::
         :: add. restraining           0.000000000000 Eh    ::
         :: total charge              -1.000000000000 e     ::
         :::::::::::::::::::::::::::::::::::::::::::::::::::::

           -------------------------------------------------
          |                Property Printout                |
           -------------------------------------------------

    * Orbital Energies and Occupations

         #    Occupation            Energy/Eh            Energy/eV
      -------------------------------------------------------------
         1        2.0000           -0.7419457             -20.1894
       ...           ...                  ...                  ...
        16        2.0000           -0.4825053             -13.1296
        17        2.0000           -0.4661466             -12.6845
        18        2.0000           -0.4632182             -12.6048
        19        2.0000           -0.4562570             -12.4154
        20        2.0000           -0.4399387             -11.9713
        21        2.0000           -0.4366422             -11.8816
        22        2.0000           -0.4234068             -11.5215
        23        2.0000           -0.4214669             -11.4687
        24        2.0000           -0.4153615             -11.3026
        25        2.0000           -0.3901800             -10.6173
        26        2.0000           -0.3351406              -9.1196
        27        2.0000           -0.3351098              -9.1188
        28        2.0000           -0.3349956              -9.1157 (HOMO)
        29                          0.0137304               0.3736 (LUMO)
        30                          0.0838193               2.2808
        31                          0.0929043               2.5281
        32                          0.0994530               2.7063
        33                          0.1066077               2.9009
        34                          0.1125858               3.0636
        35                          0.1320602               3.5935
        36                          0.1358228               3.6959
        37                          0.1458073               3.9676
        38                          0.1732664               4.7148
        39                          0.1781476               4.8476
       ...                                ...                  ...
        55                          0.3141690               8.5490
      -------------------------------------------------------------
                  HL-Gap            0.3487260 Eh            9.4893 eV
             Fermi-level           -0.1606326 Eh           -4.3710 eV

     #   Z          covCN         q      C6AA      α(0)
     1   6 C        3.806    -0.057    21.594     6.615
     2   6 C        3.806    -0.064    21.715     6.634
     3   6 C        3.806    -0.066    21.756     6.640
     4   1 H        0.923    -0.002     3.090     2.749
     5   6 C        3.806    -0.059    21.633     6.621
     6   1 H        0.924     0.053     2.283     2.363
     7   1 H        0.924     0.037     2.488     2.467
     8   6 C        3.805    -0.066    21.759     6.641
     9   1 H        0.924     0.040     2.451     2.448
    10   1 H        0.924     0.047     2.359     2.402
    11   6 C        3.745     0.119    18.698     6.168
    12   1 H        0.924     0.023     2.687     2.563
    13   1 H        0.924     0.046     2.368     2.406
    14   1 H        0.924     0.045     2.384     2.415
    15   1 H        0.924     0.027     2.631     2.536
    16   1 H        0.924     0.040     2.454     2.450
    17   1 H        0.924     0.023     2.682     2.561
    18  35 Br       0.000    -1.000   195.297    22.457
    19   6 C        3.641     0.046    20.155     6.455
    20   8 O        1.700    -0.346    19.808     6.009
    21   1 H        0.924     0.030     2.580     2.512
    22   1 H        0.924     0.019     2.744     2.591
    23   1 H        0.925     0.063     2.166     2.301

 Mol. C6AA /au·bohr⁶  :       5271.258257
 Mol. C8AA /au·bohr⁸  :     144589.803611
 Mol. α(0) /au        :        109.005101


Wiberg/Mayer (AO) data.
largest (>0.10) Wiberg bond orders for each atom

 ---------------------------------------------------------------------------
     #   Z sym  total        # sym  WBO       # sym  WBO       # sym  WBO
 ---------------------------------------------------------------------------
     1   6 C    3.997 --     2 C    1.009     8 C    1.007    17 H    0.978
                            16 H    0.977
     2   6 C    3.997 --     1 C    1.009     5 C    1.009     9 H    0.977
                            10 H    0.977
     3   6 C    3.995 --     5 C    1.008    11 C    0.991     7 H    0.977
                             6 H    0.975
     4   1 H    1.000 --    11 C    0.960
     5   6 C    3.997 --     2 C    1.009     3 C    1.008    15 H    0.978
                            14 H    0.976
     6   1 H    0.997 --     3 C    0.975
     7   1 H    0.999 --     3 C    0.977
     8   6 C    3.997 --     1 C    1.007    11 C    0.988    13 H    0.976
                            12 H    0.976
     9   1 H    0.998 --     2 C    0.977
    10   1 H    0.998 --     2 C    0.977
    11   6 C    3.946 --     3 C    0.991     8 C    0.988     4 H    0.960
                            20 O    0.960
    12   1 H    0.999 --     8 C    0.976
    13   1 H    0.998 --     8 C    0.976
    14   1 H    0.998 --     5 C    0.976
    15   1 H    0.999 --     5 C    0.978
    16   1 H    0.998 --     1 C    0.977
    17   1 H    0.999 --     1 C    0.978
    18  35 Br   0.000 --    19   6 C    3.954 --    20 O    0.997    23 H    0.979    22 H    0.978
                            21 H    0.977
    20   8 O    2.056 --    19 C    0.997    11 C    0.960
    21   1 H    0.999 --    19 C    0.977
    22   1 H    1.000 --    19 C    0.978
    23   1 H    0.996 --    19 C    0.979
 ---------------------------------------------------------------------------

Topologies differ in total number of bonds
Writing topology from bond orders to xtbtopo.mol

molecular dipole:
                 x           y           z       tot (Debye)
 q only:        9.665       2.252       1.349
   full:        9.356       2.066       1.311      24.581
molecular quadrupole (traceless):
                xx          xy          yy          xz          yz          zz
 q only:      -91.875     -34.435      42.464     -10.358      -0.116      49.411
  q+dip:      -88.539     -34.768      41.915     -10.139      -0.475      46.624
   full:      -89.664     -34.520      42.187      -9.965      -0.008      47.478


           -------------------------------------------------
          | TOTAL ENERGY              -30.657856238968 Eh   |
          | GRADIENT NORM               0.000325106600 Eh/α |
          | HOMO-LUMO GAP               9.489318766392 eV   |
           -------------------------------------------------

------------------------------------------------------------------------
 * finished run on 2021/11/10 at 03:13:13.206     
------------------------------------------------------------------------
 total:
 * wall-time:     0 d,  0 h,  0 min,  0.047 sec
 *  cpu-time:     0 d,  0 h,  0 min,  0.360 sec
 * ratio c/w:     7.697 speedup
 SCF:
 * wall-time:     0 d,  0 h,  0 min,  0.033 sec
 *  cpu-time:     0 d,  0 h,  0 min,  0.236 sec
 * ratio c/w:     7.173 speedup


-------------------------   --------------------
FINAL SINGLE POINT ENERGY       -30.657856238970
-------------------------   --------------------

                                *** OPTIMIZATION RUN DONE ***

----------------------------------------------------------------------------
                           ORCA NUMERICAL FREQUENCIES
                              (6-process run)
----------------------------------------------------------------------------

Number of atoms                ... 23
Central differences            ... used
Number of displacements        ... 138
Numerical increment            ... 5.000e-03 bohr
IR-spectrum generation         ... on
Raman-spectrum generation      ... off
Surface Crossing Hessian       ... off
List of participating nodes    ...  opt+numfreq.hostnames

The output will be reduced. Please look at the following files:
SCF program output             ... >opt+numfreq.lastscf
Integral program output        ... >opt+numfreq.lastint
Gradient program output        ... >opt+numfreq.lastgrad
Dipole moment program output   ... >opt+numfreq.lastmom
AutoCI program output          ... >opt+numfreq.lastautoci


         <<< Energy and Gradient at the input geometry >>>

        <<< Energy and Gradient at displaced geometries >>>
             <<<Displacing   1/coordinate 3 (+)>>>
             <<<Displacing   2/coordinate 2 (+)>>>
             <<<Displacing   2/coordinate 3 (+)>>>
             <<<Displacing   1/coordinate 2 (+)>>>
             <<<Displacing   1/coordinate 3 (-)>>>
             <<<Displacing   2/coordinate 1 (+)>>>
             <<<Displacing   1/coordinate 1 (+)>>>
             <<<Displacing   2/coordinate 2 (-)>>>
             <<<Displacing   2/coordinate 1 (-)>>>
             <<<Displacing   2/coordinate 3 (-)>>>
             <<<Displacing   1/coordinate 1 (-)>>>
             <<<Displacing   1/coordinate 2 (-)>>>
             <<<Displacing   3/coordinate 2 (+)>>>
             <<<Displacing   4/coordinate 1 (+)>>>
             <<<Displacing   3/coordinate 2 (-)>>>
             <<<Displacing   3/coordinate 1 (+)>>>
             <<<Displacing   3/coordinate 3 (+)>>>
             <<<Displacing   4/coordinate 2 (+)>>>
             <<<Displacing   4/coordinate 3 (+)>>>
             <<<Displacing   4/coordinate 1 (-)>>>
             <<<Displacing   3/coordinate 1 (-)>>>
             <<<Displacing   4/coordinate 2 (-)>>>
             <<<Displacing   4/coordinate 3 (-)>>>
             <<<Displacing   3/coordinate 3 (-)>>>
             <<<Displacing   5/coordinate 2 (+)>>>
             <<<Displacing   5/coordinate 1 (+)>>>
             <<<Displacing   5/coordinate 3 (+)>>>
             <<<Displacing   6/coordinate 1 (+)>>>
             <<<Displacing   5/coordinate 2 (-)>>>
             <<<Displacing   5/coordinate 3 (-)>>>
             <<<Displacing   6/coordinate 2 (+)>>>
             <<<Displacing   5/coordinate 1 (-)>>>
             <<<Displacing   6/coordinate 3 (+)>>>
             <<<Displacing   6/coordinate 2 (-)>>>
             <<<Displacing   6/coordinate 1 (-)>>>
             <<<Displacing   6/coordinate 3 (-)>>>
             <<<Displacing   7/coordinate 2 (+)>>>
             <<<Displacing   7/coordinate 1 (+)>>>
             <<<Displacing   7/coordinate 2 (-)>>>
             <<<Displacing   7/coordinate 3 (+)>>>
             <<<Displacing   7/coordinate 1 (-)>>>
             <<<Displacing   8/coordinate 2 (+)>>>
             <<<Displacing   7/coordinate 3 (-)>>>
             <<<Displacing   8/coordinate 2 (-)>>>
             <<<Displacing   8/coordinate 1 (+)>>>
             <<<Displacing   8/coordinate 1 (-)>>>
             <<<Displacing   8/coordinate 3 (+)>>>
             <<<Displacing   8/coordinate 3 (-)>>>
             <<<Displacing   9/coordinate 2 (+)>>>
             <<<Displacing   9/coordinate 2 (-)>>>
             <<<Displacing   9/coordinate 1 (+)>>>
             <<<Displacing  10/coordinate 1 (+)>>>
             <<<Displacing   9/coordinate 1 (-)>>>
             <<<Displacing   9/coordinate 3 (+)>>>
             <<<Displacing  10/coordinate 1 (-)>>>
             <<<Displacing   9/coordinate 3 (-)>>>
             <<<Displacing  10/coordinate 2 (+)>>>
             <<<Displacing  10/coordinate 2 (-)>>>
             <<<Displacing  10/coordinate 3 (+)>>>
             <<<Displacing  10/coordinate 3 (-)>>>
             <<<Displacing  11/coordinate 1 (+)>>>
             <<<Displacing  11/coordinate 1 (-)>>>
             <<<Displacing  11/coordinate 3 (+)>>>
             <<<Displacing  11/coordinate 3 (-)>>>
             <<<Displacing  11/coordinate 2 (+)>>>
             <<<Displacing  12/coordinate 1 (+)>>>
             <<<Displacing  11/coordinate 2 (-)>>>
             <<<Displacing  12/coordinate 3 (+)>>>
             <<<Displacing  12/coordinate 1 (-)>>>
             <<<Displacing  12/coordinate 3 (-)>>>
             <<<Displacing  12/coordinate 2 (+)>>>
             <<<Displacing  12/coordinate 2 (-)>>>
             <<<Displacing  13/coordinate 1 (+)>>>
             <<<Displacing  13/coordinate 2 (+)>>>
             <<<Displacing  13/coordinate 1 (-)>>>
             <<<Displacing  13/coordinate 2 (-)>>>
             <<<Displacing  13/coordinate 3 (+)>>>
             <<<Displacing  13/coordinate 3 (-)>>>
             <<<Displacing  14/coordinate 1 (+)>>>
             <<<Displacing  14/coordinate 1 (-)>>>
             <<<Displacing  14/coordinate 2 (+)>>>
             <<<Displacing  14/coordinate 3 (+)>>>
             <<<Displacing  14/coordinate 2 (-)>>>
             <<<Displacing  14/coordinate 3 (-)>>>
             <<<Displacing  15/coordinate 1 (+)>>>
             <<<Displacing  15/coordinate 1 (-)>>>
             <<<Displacing  15/coordinate 2 (+)>>>
             <<<Displacing  15/coordinate 3 (+)>>>
             <<<Displacing  15/coordinate 2 (-)>>>
             <<<Displacing  15/coordinate 3 (-)>>>
             <<<Displacing  16/coordinate 1 (+)>>>
             <<<Displacing  16/coordinate 1 (-)>>>
             <<<Displacing  16/coordinate 2 (+)>>>
             <<<Displacing  16/coordinate 3 (+)>>>
             <<<Displacing  16/coordinate 2 (-)>>>
             <<<Displacing  16/coordinate 3 (-)>>>
             <<<Displacing  17/coordinate 1 (+)>>>
             <<<Displacing  17/coordinate 1 (-)>>>
             <<<Displacing  18/coordinate 1 (+)>>>
             <<<Displacing  17/coordinate 2 (+)>>>
             <<<Displacing  17/coordinate 3 (+)>>>
             <<<Displacing  18/coordinate 1 (-)>>>
             <<<Displacing  17/coordinate 3 (-)>>>
             <<<Displacing  17/coordinate 2 (-)>>>
             <<<Displacing  18/coordinate 3 (+)>>>
             <<<Displacing  18/coordinate 3 (-)>>>
             <<<Displacing  18/coordinate 2 (+)>>>
             <<<Displacing  18/coordinate 2 (-)>>>
             <<<Displacing  19/coordinate 1 (+)>>>
             <<<Displacing  19/coordinate 1 (-)>>>
             <<<Displacing  20/coordinate 1 (+)>>>
             <<<Displacing  19/coordinate 2 (+)>>>
             <<<Displacing  20/coordinate 1 (-)>>>
[...]
     20       0.025456   0.088622  -0.229109  -0.175587  -0.102051   0.239380
     21       0.059305  -0.015261  -0.027329   0.026337  -0.020489  -0.020559
     22       0.054916   0.009507   0.005568  -0.003996   0.034927   0.007469
     23       0.011860   0.007917   0.007751  -0.006626   0.016282   0.006418
     24       0.015463  -0.116949  -0.005776  -0.085707   0.054960  -0.012771
     25      -0.010141   0.065961  -0.007298   0.042668  -0.017363  -0.000485
     26      -0.090224   0.541631  -0.042816   0.351382  -0.164576  -0.008604
     27       0.172187  -0.438592   0.425787  -0.036298  -0.363690   0.385851
     28       0.010473  -0.030828   0.026738  -0.003749  -0.020570   0.024323
     29      -0.018544   0.033091  -0.051409  -0.009904   0.050753  -0.046084
     30       0.003465  -0.001941   0.000628   0.002490   0.000345  -0.004288
     31       0.002097   0.000799  -0.000191  -0.001226   0.000584   0.000411
     32       0.000094  -0.000035   0.000394   0.000304   0.000686  -0.000212
     33      -0.251563  -0.069296  -0.054382   0.043317  -0.202715  -0.055101
     34      -0.690657  -0.149562  -0.100569   0.073288  -0.472205  -0.109332
     35      -0.231946  -0.048458  -0.029279   0.021300  -0.153533  -0.034928
     36      -0.477470   0.263622   0.392153  -0.373552   0.461909   0.315089
     37       0.001674   0.020013   0.025245  -0.021966   0.042357   0.019005
     38       0.084034  -0.036426  -0.058780   0.055913  -0.063909  -0.047128
     39       0.024592  -0.040073  -0.076083  -0.242477  -0.040153  -0.127481
     40       0.075214  -0.122284  -0.191831  -0.618224  -0.112274  -0.296729
     41       0.025667  -0.040095  -0.062188  -0.201516  -0.037186  -0.095316
     42       0.101025  -0.142618   0.089851   0.206529  -0.069064   0.392250
     43       0.003457  -0.003309   0.012315   0.034860  -0.000523   0.032503
     44      -0.015105   0.022331  -0.010804  -0.019188   0.011114  -0.048632
     45      -0.134948  -0.243896  -0.181386   0.085373   0.211802   0.075331
     46       0.215494   0.371054   0.258618  -0.118051  -0.312781  -0.119344
     47      -0.158104  -0.270338  -0.187414   0.086032   0.229671   0.087971
     48      -0.102605   0.111509   0.357107  -0.210994  -0.234851   0.049721
     49      -0.016396  -0.006923   0.012621  -0.010003  -0.002733   0.007843
     50       0.019529  -0.001956  -0.038260   0.023455   0.023118  -0.009799
     51       0.000002  -0.000000   0.000000   0.000003  -0.000002  -0.000002
     52       0.000003   0.000000   0.000000  -0.000000   0.000002  -0.000001
     53       0.000001   0.000001   0.000001   0.000000  -0.000001   0.000000
     54      -0.000127  -0.000390  -0.000393   0.000304  -0.000619  -0.000449
     55       0.002674   0.000482   0.000038  -0.000495   0.001589   0.000426
     56      -0.001126  -0.000048   0.000247   0.000234  -0.000269   0.000030
     57       0.000210   0.000037   0.000035  -0.000058   0.000179   0.000115
     58       0.000307  -0.000012   0.000001   0.000098   0.000170  -0.000034
     59       0.000095   0.000094  -0.000033   0.000018  -0.000254   0.000008
     60       0.017617   0.002542  -0.000385  -0.001911   0.008947   0.001647
     61      -0.041362  -0.007151  -0.000898   0.006021  -0.023360  -0.005152
     62       0.012191   0.002281   0.000437  -0.001700   0.006915   0.001748
     63      -0.017753   0.001962   0.004529  -0.002242  -0.002501   0.003890
     64       0.002088   0.000231  -0.000397  -0.000117   0.000778   0.000184
     65       0.001160  -0.000403  -0.000620   0.000329  -0.000154  -0.000441
     66      -0.001011  -0.000087   0.000353   0.000554  -0.000242  -0.000078
     67       0.000964   0.000478   0.000627   0.000156   0.000939   0.000415
     68       0.000723  -0.001048  -0.002614  -0.001455  -0.002387  -0.001138
                  66         67         68    
      0      -0.003090  -0.001949  -0.000152
      1       0.018122   0.005468   0.000203
      2      -0.014831  -0.004297  -0.000173
      3      -0.017400  -0.009252  -0.000190
      4      -0.007721  -0.002823  -0.000074
      5      -0.044947  -0.014837  -0.000430
      6       0.019306  -0.024031  -0.000202
      7       0.012214  -0.036744  -0.000272
      8      -0.012975   0.033213   0.000220
      9      -0.007116   0.003150   0.007283
     10       0.000568  -0.001028  -0.000085
     11       0.001315  -0.000579  -0.002319
     12       0.003317  -0.004346  -0.000050
     13      -0.018204  -0.022577  -0.000509
     14      -0.008968  -0.007233  -0.000219
     15      -0.354206   0.621771   0.004273
     16      -0.015852   0.020376   0.000180
     17       0.051570  -0.085659  -0.000525
     18       0.110226  -0.318228  -0.001905
     19      -0.142119   0.434953   0.002528
     20       0.106450  -0.332203  -0.001865
     21      -0.001764  -0.003178   0.000063
     22       0.009049   0.002807  -0.000038
     23       0.003595   0.001228  -0.000045
     24      -0.169594  -0.057749  -0.001594
     25       0.074218   0.023570   0.000723
     26       0.627258   0.210489   0.005997
     27       0.390223   0.172038   0.003778
     28       0.021480   0.009224   0.000207
     29      -0.070491  -0.027863  -0.000694
     30       0.001300  -0.001242  -0.000116
     31       0.000869  -0.001305  -0.000149
     32      -0.000041   0.001036  -0.000353
     33      -0.049016  -0.015800   0.000245
     34      -0.118365  -0.036664   0.001481
     35      -0.040287  -0.011445  -0.000628
     36       0.069883   0.053577  -0.002208
     37       0.008343   0.003735   0.000059
     38      -0.009647  -0.007619   0.000356
     39       0.097955   0.110251   0.002657
     40       0.247548   0.285593   0.006866
     41       0.078295   0.093385   0.002313
     42      -0.139767  -0.067700  -0.001855
     43      -0.015622  -0.013066  -0.000425
     44       0.013716   0.006662   0.000087
     45       0.151792   0.045546   0.001702
     46      -0.229724  -0.070367  -0.002689
     47       0.166032   0.050481   0.001980
     48      -0.120230  -0.024102   0.000480
     49      -0.000820   0.000816   0.000119
     50       0.008814   0.000777  -0.000316
     51      -0.000001  -0.000003  -0.000001
     52       0.000000  -0.000002   0.000000
     53      -0.000002  -0.000001  -0.000001
     54       0.000303   0.000304  -0.015332
     55       0.001016   0.000240  -0.012036
     56      -0.000869  -0.000596   0.071232
     57       0.000077  -0.000094   0.000353
     58       0.000080  -0.000221   0.001429
     59      -0.000116  -0.000421   0.002526
     60       0.005531  -0.000843   0.002380
     61      -0.013225   0.002560  -0.045962
     62       0.003371  -0.000567   0.046249
     63      -0.008849   0.002255  -0.014007
     64       0.000532   0.000366  -0.010628
     65       0.000733   0.000121   0.033275
     66      -0.001443  -0.001792   0.183618
     67      -0.001106  -0.001865   0.178341
     68       0.006614   0.009333  -0.960788


-----------
IR SPECTRUM  
-----------

 Mode    freq (cm**-1)   T**2         TX         TY         TZ
-------------------------------------------------------------------
   6:         8.65    0.000000  (  0.000000   0.000000   0.000000)
   7:        11.82    0.000000  (  0.000000   0.000000   0.000000)
   8:        34.82    0.000000  (  0.000000   0.000000   0.000000)
   9:        77.37    0.000000  (  0.000000   0.000000   0.000000)
  10:       124.37    0.000000  (  0.000000   0.000000   0.000000)
  11:       190.35    0.000000  (  0.000000   0.000000   0.000000)
  12:       222.95    0.000000  (  0.000000   0.000000   0.000000)
  13:       252.02    0.000000  (  0.000000   0.000000   0.000000)
  14:       329.06    0.000000  (  0.000000   0.000000   0.000000)
  15:       359.11    0.000000  (  0.000000   0.000000   0.000000)
  16:       422.59    0.000000  (  0.000000   0.000000   0.000000)
  17:       452.51    0.000000  (  0.000000   0.000000   0.000000)
  18:       483.10    0.000000  (  0.000000   0.000000   0.000000)
  19:       549.83    0.000000  (  0.000000   0.000000   0.000000)
  20:       820.37    0.000000  (  0.000000   0.000000   0.000000)
  21:       834.36    0.000000  (  0.000000   0.000000   0.000000)
  22:       896.98    0.000000  (  0.000000   0.000000   0.000000)
  23:       920.26    0.000000  (  0.000000   0.000000   0.000000)
  24:       933.07    0.000000  (  0.000000   0.000000   0.000000)
  25:       958.09    0.000000  (  0.000000   0.000000   0.000000)
  26:       973.22    0.000000  (  0.000000   0.000000   0.000000)
  27:      1016.28    0.000000  (  0.000000   0.000000   0.000000)
  28:      1060.99    0.000000  (  0.000000   0.000000   0.000000)
  29:      1080.75    0.000000  (  0.000000   0.000000   0.000000)
  30:      1094.35    0.000000  (  0.000000   0.000000   0.000000)
  31:      1098.84    0.000000  (  0.000000   0.000000   0.000000)
  32:      1128.97    0.000000  (  0.000000   0.000000   0.000000)
  33:      1140.64    0.000000  (  0.000000   0.000000   0.000000)
  34:      1144.36    0.000000  (  0.000000   0.000000   0.000000)
  35:      1173.79    0.000000  (  0.000000   0.000000   0.000000)
  36:      1201.02    0.000000  (  0.000000   0.000000   0.000000)
  37:      1235.96    0.000000  (  0.000000   0.000000   0.000000)
  38:      1240.78    0.000000  (  0.000000   0.000000   0.000000)
  39:      1242.23    0.000000  (  0.000000   0.000000   0.000000)
  40:      1301.53    0.000000  (  0.000000   0.000000   0.000000)
  41:      1309.42    0.000000  (  0.000000   0.000000   0.000000)
  42:      1332.91    0.000000  (  0.000000   0.000000   0.000000)
  43:      1341.70    0.000000  (  0.000000   0.000000   0.000000)
  44:      1351.48    0.000000  (  0.000000   0.000000   0.000000)
  45:      1355.35    0.000000  (  0.000000   0.000000   0.000000)
  46:      1356.80    0.000000  (  0.000000   0.000000   0.000000)
  47:      1403.31    0.000000  (  0.000000   0.000000   0.000000)
  48:      1466.82    0.000000  (  0.000000   0.000000   0.000000)
  49:      1475.72    0.000000  (  0.000000   0.000000   0.000000)
  50:      1476.84    0.000000  (  0.000000   0.000000   0.000000)
  51:      1484.92    0.000000  (  0.000000   0.000000   0.000000)
  52:      1487.67    0.000000  (  0.000000   0.000000   0.000000)
  53:      1490.55    0.000000  (  0.000000   0.000000   0.000000)
  54:      1500.05    0.000000  (  0.000000   0.000000   0.000000)
  55:      2818.17    0.000000  (  0.000000   0.000000   0.000000)
  56:      2899.51    0.000000  (  0.000000   0.000000   0.000000)
  57:      2924.15    0.000000  (  0.000000   0.000000   0.000000)
  58:      2952.99    0.000000  (  0.000000   0.000000   0.000000)
  59:      2958.17    0.000000  (  0.000000   0.000000   0.000000)
  60:      2964.30    0.000000  (  0.000000   0.000000   0.000000)
  61:      2970.86    0.000000  (  0.000000   0.000000   0.000000)
  62:      2974.06    0.000000  (  0.000000   0.000000   0.000000)
  63:      2975.64    0.000000  (  0.000000   0.000000   0.000000)
  64:      2978.10    0.000000  (  0.000000   0.000000   0.000000)
  65:      2980.47    0.000000  (  0.000000   0.000000   0.000000)
  66:      2985.69    0.000000  (  0.000000   0.000000   0.000000)
  67:      2990.27    0.000000  (  0.000000   0.000000   0.000000)
  68:      3016.06    0.000000  (  0.000000   0.000000   0.000000)

The first frequency considered to be a vibration is 6
The total number of vibrations considered is 63


--------------------------
THERMOCHEMISTRY AT 298.15K
--------------------------

Temperature         ... 298.15 K
Pressure            ... 1.00 atm
Total Mass          ... 194.09 AMU

Throughout the following assumptions are being made:
  (1) The electronic state is orbitally nondegenerate
  (2) There are no thermally accessible electronically excited states
  (3) Hindered rotations indicated by low frequency modes are not
      treated as such but are treated as vibrations and this may
      cause some error
  (4) All equations used are the standard statistical mechanics
      equations for an ideal gas
  (5) All vibrations are strictly harmonic

freq.       8.65  E(vib)   ...       0.58 
freq.      11.82  E(vib)   ...       0.58 
freq.      34.82  E(vib)   ...       0.54 
freq.      77.37  E(vib)   ...       0.49 
freq.     124.37  E(vib)   ...       0.43 
freq.     190.35  E(vib)   ...       0.36 
freq.     222.95  E(vib)   ...       0.33 
freq.     252.02  E(vib)   ...       0.30 
freq.     329.06  E(vib)   ...       0.24 
freq.     359.11  E(vib)   ...       0.22 
freq.     422.59  E(vib)   ...       0.18 
freq.     452.51  E(vib)   ...       0.16 
freq.     483.10  E(vib)   ...       0.15 
freq.     549.83  E(vib)   ...       0.12 
freq.     820.37  E(vib)   ...       0.05 
freq.     834.36  E(vib)   ...       0.04 
freq.     896.98  E(vib)   ...       0.03 
freq.     920.26  E(vib)   ...       0.03 
freq.     933.07  E(vib)   ...       0.03 
freq.     958.09  E(vib)   ...       0.03 
freq.     973.22  E(vib)   ...       0.03 
freq.    1016.28  E(vib)   ...       0.02 
freq.    1060.99  E(vib)   ...       0.02 
freq.    1080.75  E(vib)   ...       0.02 
freq.    1094.35  E(vib)   ...       0.02 
freq.    1098.84  E(vib)   ...       0.02 
freq.    1128.97  E(vib)   ...       0.01 
freq.    1140.64  E(vib)   ...       0.01 
freq.    1144.36  E(vib)   ...       0.01 
freq.    1173.79  E(vib)   ...       0.01 
freq.    1201.02  E(vib)   ...       0.01 
freq.    1235.96  E(vib)   ...       0.01 
freq.    1240.78  E(vib)   ...       0.01 
freq.    1242.23  E(vib)   ...       0.01 
freq.    1301.53  E(vib)   ...       0.01 
freq.    1309.42  E(vib)   ...       0.01 
freq.    1332.91  E(vib)   ...       0.01 
freq.    1341.70  E(vib)   ...       0.01 
freq.    1351.48  E(vib)   ...       0.01 
freq.    1355.35  E(vib)   ...       0.01 
freq.    1356.80  E(vib)   ...       0.01 
freq.    1403.31  E(vib)   ...       0.00 
freq.    1466.82  E(vib)   ...       0.00 
freq.    1475.72  E(vib)   ...       0.00 
freq.    1476.84  E(vib)   ...       0.00 
freq.    1484.92  E(vib)   ...       0.00 
freq.    1487.67  E(vib)   ...       0.00 
freq.    1490.55  E(vib)   ...       0.00 
freq.    1500.05  E(vib)   ...       0.00 
freq.    2818.17  E(vib)   ...       0.00 
freq.    2899.51  E(vib)   ...       0.00 
freq.    2924.15  E(vib)   ...       0.00 
freq.    2952.99  E(vib)   ...       0.00 
freq.    2958.17  E(vib)   ...       0.00 
freq.    2964.30  E(vib)   ...       0.00 
freq.    2970.86  E(vib)   ...       0.00 
freq.    2974.06  E(vib)   ...       0.00 
freq.    2975.64  E(vib)   ...       0.00 
freq.    2978.10  E(vib)   ...       0.00 
freq.    2980.47  E(vib)   ...       0.00 
freq.    2985.69  E(vib)   ...       0.00 
freq.    2990.27  E(vib)   ...       0.00 
freq.    3016.06  E(vib)   ...       0.00 

------------
INNER ENERGY
------------

The inner energy is: U= E(el) + E(ZPE) + E(vib) + E(rot) + E(trans)
    E(el)   - is the total energy from the electronic structure calculation
              = E(kin-el) + E(nuc-el) + E(el-el) + E(nuc-nuc)
    E(ZPE)  - the the zero temperature vibrational energy from the frequency calculation
    E(vib)  - the the finite temperature correction to E(ZPE) due to population
              of excited vibrational states
    E(rot)  - is the rotational thermal energy
    E(trans)- is the translational thermal energy

Summary of contributions to the inner energy U:
Electronic energy                ...    -30.65785624 Eh
Zero point energy                ...      0.19874131 Eh     124.71 kcal/mol
Thermal vibrational correction   ...      0.00824974 Eh       5.18 kcal/mol
Thermal rotational correction    ...      0.00141627 Eh       0.89 kcal/mol
Thermal translational correction ...      0.00141627 Eh       0.89 kcal/mol
-----------------------------------------------------------------------
Total thermal energy                    -30.44803265 Eh


Summary of corrections to the electronic energy:
(perhaps to be used in another calculation)
Total thermal correction                  0.01108228 Eh       6.95 kcal/mol
Non-thermal (ZPE) correction              0.19874131 Eh     124.71 kcal/mol
-----------------------------------------------------------------------
Total correction                          0.20982359 Eh     131.67 kcal/mol


--------
ENTHALPY
--------

The enthalpy is H = U + kB*T
                kB is Boltzmann's constant
Total free energy                 ...    -30.44803265 Eh 
Thermal Enthalpy correction       ...      0.00094421 Eh       0.59 kcal/mol
-----------------------------------------------------------------------
Total Enthalpy                    ...    -30.44708844 Eh


Note: Only C1 symmetry has been detected, increase convergence thresholds 
      if your molecule has a higher symmetry. Symmetry factor of 1.0 is   
      used for the rotational entropy correction. 
 

Note: Rotational entropy computed according to Herzberg 
Infrared and Raman Spectra, Chapter V,1, Van Nostrand Reinhold, 1945 
Point Group:  C1, Symmetry Number:   1  
Rotational constants in cm-1:     0.039396     0.010374     0.009135 

Vibrational entropy computed according to the QRRHO of S. Grimme
Chem.Eur.J. 2012 18 9955


-------
ENTROPY
-------

The entropy contributions are T*S = T*(S(el)+S(vib)+S(rot)+S(trans))
     S(el)   - electronic entropy
     S(vib)  - vibrational entropy
     S(rot)  - rotational entropy
     S(trans)- translational entropy
The entropies will be listed as mutliplied by the temperature to get
units of energy

Electronic entropy                ...      0.00000000 Eh      0.00 kcal/mol
Vibrational entropy               ...      0.01596722 Eh     10.02 kcal/mol
Rotational entropy                ...      0.01541110 Eh      9.67 kcal/mol
Translational entropy             ...      0.01981043 Eh     12.43 kcal/mol
-----------------------------------------------------------------------
Final entropy term                ...      0.05118875 Eh     32.12 kcal/mol

In case the symmetry of your molecule has not been determined correctly
or in case you have a reason to use a different symmetry number we print 
out the resulting rotational entropy values for sn=1,12 :
 --------------------------------------------------------
|  sn= 1 | S(rot)=       0.01541110 Eh      9.67 kcal/mol|
|  sn= 2 | S(rot)=       0.01475664 Eh      9.26 kcal/mol|
|  sn= 3 | S(rot)=       0.01437381 Eh      9.02 kcal/mol|
|  sn= 4 | S(rot)=       0.01410219 Eh      8.85 kcal/mol|
|  sn= 5 | S(rot)=       0.01389150 Eh      8.72 kcal/mol|
|  sn= 6 | S(rot)=       0.01371936 Eh      8.61 kcal/mol|
|  sn= 7 | S(rot)=       0.01357381 Eh      8.52 kcal/mol|
|  sn= 8 | S(rot)=       0.01344773 Eh      8.44 kcal/mol|
|  sn= 9 | S(rot)=       0.01333652 Eh      8.37 kcal/mol|
|  sn=10 | S(rot)=       0.01323704 Eh      8.31 kcal/mol|
|  sn=11 | S(rot)=       0.01314705 Eh      8.25 kcal/mol|
|  sn=12 | S(rot)=       0.01306490 Eh      8.20 kcal/mol|
 --------------------------------------------------------


-------------------
GIBBS FREE ENERGY
-------------------

The Gibbs free energy is G = H - T*S

Total enthalpy                    ...    -30.44708844 Eh 
Total entropy correction          ...     -0.05118875 Eh    -32.12 kcal/mol
-----------------------------------------------------------------------
Final Gibbs free energy         ...    -30.49827718 Eh

For completeness - the Gibbs free energy minus the electronic energy
G-E(el)                           ...      0.15957905 Eh    100.14 kcal/mol


Total Time for Numerical Frequencies  :        51.838 sec

Timings for individual modules:

Sum of individual times         ...        0.343 sec (=   0.006 min)
Geometry relaxation             ...        0.166 sec (=   0.003 min)  48.5 %
XTB module                      ...        0.176 sec (=   0.003 min)  51.5 %
                             ****ORCA TERMINATED NORMALLY****
TOTAL RUN TIME: 0 days 0 hours 0 minutes 53 seconds 182 msec
