(SLURM) JOB ID:         215

                                 *****************
                                 * O   R   C   A *
                                 *****************

           --- An Ab Initio, DFT and Semiempirical electronic structure package ---

                  #######################################################
                  #                        -***-                        #
                  #          Department of theory and spectroscopy      #
                  #               Directorship: Frank Neese             #
                  #        Max Planck Institute fuer Kohlenforschung    #
                  #                Kaiser Wilhelm Platz 1               #
                  #                 D-45470 Muelheim/Ruhr               #
                  #                      Germany                        #
                  #                                                     #
                  #                  All rights reserved                #
                  #                        -***-                        #
                  #######################################################


                         Program Version 4.2.1 -  RELEASE  -


 With contributions from (in alphabetic order):
   Daniel Aravena         : Magnetic Suceptibility
   Michael Atanasov       : Ab Initio Ligand Field Theory (pilot matlab implementation)
   Alexander A. Auer      : GIAO ZORA, VPT2
   Ute Becker             : Parallelization
   Giovanni Bistoni       : ED, misc. LED, open-shell LED, HFLD
   Martin Brehm           : Molecular dynamics
   Dmytro Bykov           : SCF Hessian
   Vijay G. Chilkuri      : MRCI spin determinant printing, contributions to CSF-ICE
   Dipayan Datta          : RHF DLPNO-CCSD density
   Achintya Kumar Dutta   : EOM-CC, STEOM-CC
   Dmitry Ganyushin       : Spin-Orbit,Spin-Spin,Magnetic field MRCI
   Miquel Garcia          : C-PCM Hessian, Gaussian charge scheme
   Yang Guo               : DLPNO-NEVPT2, CIM, IAO-localization
   Andreas Hansen         : Spin unrestricted coupled pair/coupled cluster methods
   Benjamin Helmich-Paris : CASSCF linear response (MC-RPA)
   Lee Huntington         : MR-EOM, pCC
   Robert Izsak           : Overlap fitted RIJCOSX, COSX-SCS-MP3, EOM
   Christian Kollmar      : KDIIS, OOCD, Brueckner-CCSD(T), CCSD density
   Simone Kossmann        : Meta GGA functionals, TD-DFT gradient, OOMP2, MP2 Hessian
   Martin Krupicka        : AUTO-CI
   Lucas Lang             : DCDCAS
   Dagmar Lenk            : GEPOL surface, SMD
   Dimitrios Liakos       : Extrapolation schemes; Compound Job, initial MDCI parallelization
   Dimitrios Manganas     : Further ROCIS development; embedding schemes
   Dimitrios Pantazis     : SARC Basis sets
   Taras Petrenko         : DFT Hessian,TD-DFT gradient, ASA, ECA, R-Raman, ABS, FL, XAS/XES, NRVS
   Peter Pinski           : DLPNO-MP2, DLPNO-MP2 Gradient
   Christoph Reimann      : Effective Core Potentials
   Marius Retegan         : Local ZFS, SOC
   Christoph Riplinger    : Optimizer, TS searches, QM/MM, DLPNO-CCSD(T), (RO)-DLPNO pert. Triples
   Tobias Risthaus        : Range-separated hybrids, TD-DFT gradient, RPA, STAB
   Michael Roemelt        : Original ROCIS implementation
   Masaaki Saitow         : Open-shell DLPNO-CCSD energy and density
   Barbara Sandhoefer     : DKH picture change effects
   Avijit Sen             : IP-ROCIS
   Kantharuban Sivalingam : CASSCF convergence, NEVPT2, FIC-MRCI
   Bernardo de Souza      : ESD, SOC TD-DFT
   Georgi Stoychev        : AutoAux, RI-MP2 NMR
   Willem Van den Heuvel  : Paramagnetic NMR
   Boris Wezisla          : Elementary symmetry handling
   Frank Wennmohs         : Technical directorship


 We gratefully acknowledge several colleagues who have allowed us to
 interface, adapt or use parts of their codes:
   Stefan Grimme, W. Hujo, H. Kruse,             : VdW corrections, initial TS optimization,
                  C. Bannwarth                     DFT functionals, gCP, sTDA/sTD-DF
   Ed Valeev, F. Pavosevic, A. Kumar             : LibInt (2-el integral package), F12 methods
   Garnet Chan, S. Sharma, J. Yang, R. Olivares  : DMRG
   Ulf Ekstrom                                   : XCFun DFT Library
   Mihaly Kallay                                 : mrcc  (arbitrary order and MRCC methods)
   Andreas Klamt, Michael Diedenhofen            : otool_cosmo (COSMO solvation model)
   Jiri Pittner, Ondrej Demel                    : Mk-CCSD
   Frank Weinhold                                : gennbo (NPA and NBO analysis)
   Christopher J. Cramer and Donald G. Truhlar   : smd solvation model
   Lars Goerigk                                  : TD-DFT with DH, B97 family of functionals
   V. Asgeirsson, H. Jonsson                     : NEB implementation
   FAccTs GmbH                                   : IRC, NEB, NEB-TS, Multilevel, MM, QM/MM, CI optimization
   S Lehtola, MJT Oliveira, MAL Marques          : LibXC Library


 Your calculation uses the libint2 library for the computation of 2-el integrals
 For citations please refer to: http://libint.valeyev.net

 Your ORCA version has been built with support for libXC version: 4.2.3
 For citations please refer to: https://tddft.org/programs/libxc/

 This ORCA versions uses:
   CBLAS   interface :  Fast vector & matrix operations
   LAPACKE interface :  Fast linear algebra routines
   SCALAPACK package :  Parallel linear algebra routines




***************************************
The coordinates will be read from file: init.xyz
***************************************


Your calculation utilizes the atom-pairwise dispersion correction
with the Becke-Johnson damping scheme (D3BJ)
Cite in your paper:
S.Grimme, S.Ehrlich, L.Goerigk, J Comput Chem, (2011), 32, 1456–1465 
S.Grimme, J.Antony, S.Ehrlich and H.Krieg, J.Chem.Phys., 132, (2010), 154104 
   

Your calculation utilizes the SMD solvation module
Please cite in your paper:
A.V. Marenich, C.J. Cramer, D.G. Truhlar J. Phys. Chem. B, 113, (2009), 6378 

----- Orbital basis set information -----
Your calculation utilizes the basis: cc-pVTZ 
       H, B-Ne : Obtained from the ccRepo (grant-hill.group.shef.ac.uk/ccrepo) Feb. 2017
                 T. H. Dunning, Jr., J. Chem. Phys. 90, 1007 (1989)
            He : Obtained from the ccRepo (grant-hill.group.shef.ac.uk/ccrepo) Feb. 2017
                 D. E. Woon, T. H. Dunning, Jr., J. Chem. Phys. 100, 2975 (1994)
  Li-Be, Na-Mg : Obtained from the ccRepo (grant-hill.group.shef.ac.uk/ccrepo) Feb. 2017
                 B. P. Prascher, D. E. Woon, K. A. Peterson, T. H. Dunning, Jr., A. K. Wilson, Theor. Chem. Acc. 128, 69 (2011)
         Al-Ar : Obtained from the ccRepo (grant-hill.group.shef.ac.uk/ccrepo) Feb. 2017
                 D. E. Woon, T. H. Dunning, Jr., J. Chem. Phys. 98, 1358 (1993)
            Ca : Obtained from the Peterson Research Group Website (tyr0.chem.wsu.edu/~kipeters) Feb. 2017
                 J. Koput, K. A. Peterson, J. Phys. Chem. 106, 9595 (2002)
         Sc-Zn : Obtained from the ccRepo (grant-hill.group.shef.ac.uk/ccrepo) Feb. 2017
                 N. B. Balabanov, K. A. Peterson, J. Chem. Phys. 123, 064107 (2005)
                 N. B. Balabanov, K. A. Peterson, J. Chem. Phys. 125, 074110 (2006)
         Ga-Kr : Obtained from the ccRepo (grant-hill.group.shef.ac.uk/ccrepo) Feb. 2017
                 A. K. Wilson, D. E. Woon, K. A. Peterson, T. H. Dunning, Jr., J. Chem. Phys. 110, 7667 (1999)
             Y : Obtained from the ccRepo (grant-hill.group.shef.ac.uk/ccrepo) Feb. 2017
                 K. A. Peterson, D. Figgen, M. Dolg, H. Stoll, J. Chem. Phys. 126, 124101 (2007)
        Ag, Au : Obtained from the Peterson Research Group Website (tyr0.chem.wsu.edu/~kipeters) Feb. 2017
                 K. A. Peterson, C. Puzzarini, Theor. Chem. Acc. 114, 283 (2005)

================================================================================
                                        WARNINGS
                       Please study these warnings very carefully!
================================================================================


WARNING: Geometry Optimization
  ===> : Switching off AutoStart
         For restart on a previous wavefunction, please use MOREAD

INFO   : the flag for use of LIBINT has been found!

================================================================================
                                       INPUT FILE
================================================================================
NAME = /tmp/slurm-scratch/opt+freq.215/opt+freq.inp
|  1> ! B3LYP D3BJ cc-pVTZ NoRI Opt Freq TightSCF Grid4 FinalGrid5 PrintBasis PrintMOs
|  2> %maxcore 1450
|  3> 
|  4> * xyzfile 0 1 init.xyz
|  5> 
|  6> %cpcm
|  7>  smd true
|  8>  smdsolvent "dichloromethane"
|  9> end
| 10> 
| 11> %scf
| 12>  guess pmodel
| 13> end
| 14> 
| 15> %geom
| 16>  maxiter 30
| 17>  trust 0.2
| 18>  inhess read
| 19>  inhessname "freq.hess"
| 20> end
| 21> %pal nprocs 8 end
| 22> 
| 23>                          ****END OF INPUT****
================================================================================

                       *****************************
                       * Geometry Optimization Run *
                       *****************************

Geometry optimization settings:
Update method            Update   .... BFGS
Choice of coordinates    CoordSys .... Z-matrix Internals
Initial Hessian          InHess   .... Read

Convergence Tolerances:
Energy Change            TolE     ....  5.0000e-06 Eh
Max. Gradient            TolMAXG  ....  3.0000e-04 Eh/bohr
RMS Gradient             TolRMSG  ....  1.0000e-04 Eh/bohr
Max. Displacement        TolMAXD  ....  4.0000e-03 bohr
RMS Displacement         TolRMSD  ....  2.0000e-03 bohr
Strict Convergence                ....  False
------------------------------------------------------------------------------
                        ORCA OPTIMIZATION COORDINATE SETUP
------------------------------------------------------------------------------

The optimization will be done in new redundant internal coordinates
Making redundant internal coordinates   ...  (new redundants) done
Evaluating the initial hessian          ... (Reading Exact Hessian)...  
InHessName: freq.hess	The file <freq.hess> is opened as a .hess file
done
done
Diagonalizing the Hessian               .... done
Dimension of the hessian                .... 3
Lowest eigenvalues of the non projected Hessian:
  0.139548536  0.451814246  0.474125548
done
Evaluating the coordinates              ...  done
Calculating the B-matrix                .... done
Calculating the G-matrix                .... done
Diagonalizing the G-matrix              .... done
The first mode is                       ....    0
The number of degrees of freedom        ....    3

    -----------------------------------------------------------------
                    Redundant Internal Coordinates


    -----------------------------------------------------------------
         Definition                    Initial Value    d2E/dq (diagonal element)
    -----------------------------------------------------------------
      1. B(H   1,O   0)                  0.9646         0.460100   
      2. B(H   2,O   0)                  0.9644         0.461084   
      3. A(H   1,O   0,H   2)          104.0047         0.144304   
    -----------------------------------------------------------------

Number of atoms                         .... 3
Number of degrees of freedom            .... 3

         *************************************************************
         *                GEOMETRY OPTIMIZATION CYCLE   1            *
         *************************************************************
---------------------------------
CARTESIAN COORDINATES (ANGSTROEM)
---------------------------------
  O      0.809508    0.131182    0.000000
  H      1.773020    0.177395    0.000000
  H      0.531573    1.054623    0.000000

----------------------------
CARTESIAN COORDINATES (A.U.)
----------------------------
  NO LB      ZA    FRAG     MASS         X           Y           Z
   0 O     8.0000    0    15.999    1.529748    0.247899    0.000000
   1 H     1.0000    0     1.008    3.350521    0.335227    0.000000
   2 H     1.0000    0     1.008    1.004527    1.992949    0.000000

--------------------------------
INTERNAL COORDINATES (ANGSTROEM)
--------------------------------
 O      0   0   0     0.000000000000     0.00000000     0.00000000
 H      1   0   0     0.964619264929     0.00000000     0.00000000
 H      1   2   0     0.964360194055   104.00469917     0.00000000

---------------------------
INTERNAL COORDINATES (A.U.)
---------------------------
 O      0   0   0     0.000000000000     0.00000000     0.00000000
 H      1   0   0     1.822866234221     0.00000000     0.00000000
 H      1   2   0     1.822376661219   104.00469917     0.00000000

---------------------
BASIS SET INFORMATION
---------------------
There are 2 groups of distinct atoms

 Group   1 Type O   : 18s5p2d1f contracted to 4s3p2d1f pattern {8811/311/11/1}
 Group   2 Type H   : 5s2p1d contracted to 3s2p1d pattern {311/11/1}

Atom   0O    basis set group =>   1
Atom   1H    basis set group =>   2
Atom   2H    basis set group =>   2

-------------------------
BASIS SET IN INPUT FORMAT
-------------------------

 # Basis set for element : H 
 NewGTO H 
 S 3 
   1      33.8700000000      0.0254948632
   2       5.0950000000      0.1903627659
   3       1.1590000000      0.8521620222
 S 1 
   1       0.3258000000      1.0000000000
 S 1 
   1       0.1027000000      1.0000000000
 P 1 
   1       1.4070000000      1.0000000000
 P 1 
   1       0.3880000000      1.0000000000
 D 1 
   1       1.0570000000      1.0000000000
  end;

 # Basis set for element : O 
 NewGTO O 
 S 8 
   1   15330.0000000000      0.0005201983
   2    2299.0000000000      0.0040233448
   3     522.4000000000      0.0207290833
   4     147.3000000000      0.0810823271
   5      47.5500000000      0.2362263521
   6      16.7600000000      0.4435182094
   7       6.2070000000      0.3586705887
   8       0.6882000000     -0.0083497972
 S 8 
   1   15330.0000000000     -0.0001972360
   2    2299.0000000000     -0.0015350107
   3     522.4000000000     -0.0079511839
   4     147.3000000000     -0.0321134529
   5      47.5500000000     -0.1002696430
   6      16.7600000000     -0.2340471118
   7       6.2070000000     -0.3014109278
   8       0.6882000000      1.0349196495
 S 1 
   1       1.7520000000      1.0000000000
 S 1 
   1       0.2384000000      1.0000000000
 P 3 
   1      34.4600000000      0.0411634896
   2       7.7490000000      0.2577628359
   3       2.2800000000      0.8024192744
 P 1 
   1       0.7156000000      1.0000000000
 P 1 
   1       0.2140000000      1.0000000000
 D 1 
   1       2.3140000000      1.0000000000
 D 1 
   1       0.6450000000      1.0000000000
 F 1 
   1       1.4280000000      1.0000000000
  end;



           ************************************************************
           *        Program running with 8 parallel MPI-processes     *
           *              working on a common directory               *
           ************************************************************
------------------------------------------------------------------------------
                           ORCA GTO INTEGRAL CALCULATION
------------------------------------------------------------------------------

                         BASIS SET STATISTICS AND STARTUP INFO

 # of primitive gaussian shells          ...   42
 # of primitive gaussian functions       ...   82
 # of contracted shells                  ...   22
 # of contracted basis functions         ...   58
 Highest angular momentum                ...    3
 Maximum contraction depth               ...    8
 Integral package used                   ... LIBINT
 Integral threshhold            Thresh   ...  2.500e-11
 Primitive cut-off              TCut     ...  2.500e-12


------------------------------ INTEGRAL EVALUATION ----------------------------


 * One electron integrals 
 Pre-screening matrix                    ... done
 Shell pair data                         ... done (   0.000 sec)



           ************************************************************
           *        Program running with 8 parallel MPI-processes     *
           *              working on a common directory               *
           ************************************************************
-------------------------------------------------------------------------------
                                 ORCA SCF
-------------------------------------------------------------------------------

------------
SCF SETTINGS
------------
Hamiltonian:
 Density Functional     Method          .... DFT(GTOs)
 Exchange Functional    Exchange        .... B88
   X-Alpha parameter    XAlpha          ....  0.666667
   Becke's b parameter  XBeta           ....  0.004200
 Correlation Functional Correlation     .... LYP
 LDA part of GGA corr.  LDAOpt          .... VWN-5
 Gradients option       PostSCFGGA      .... off
 Hybrid DFT is turned on
   Fraction HF Exchange ScalHFX         ....  0.200000
   Scaling of DF-GGA-X  ScalDFX         ....  0.720000
   Scaling of DF-GGA-C  ScalDFC         ....  0.810000
   Scaling of DF-LDA-C  ScalLDAC        ....  1.000000
   Perturbative correction              ....  0.000000
   Density functional embedding theory  .... OFF
   NL short-range parameter             ....  4.800000


General Settings:
 Integral files         IntName         .... /tmp/slurm-scratch/opt+freq.215/opt+freq
 Hartree-Fock type      HFTyp           .... RHF
 Total Charge           Charge          ....    0
 Multiplicity           Mult            ....    1
 Number of Electrons    NEL             ....   10
 Basis Dimension        Dim             ....   58
 Nuclear Repulsion      ENuc            ....      9.1266834842 Eh

Convergence Acceleration:
 DIIS                   CNVDIIS         .... on
   Start iteration      DIISMaxIt       ....    12
   Startup error        DIISStart       ....  0.200000
   # of expansion vecs  DIISMaxEq       ....     5
   Bias factor          DIISBfac        ....   1.050
   Max. coefficient     DIISMaxC        ....  10.000
 Newton-Raphson         CNVNR           .... off
 SOSCF                  CNVSOSCF        .... on
   Start iteration      SOSCFMaxIt      ....   150
   Startup grad/error   SOSCFStart      ....  0.003300
 Level Shifting         CNVShift        .... on
   Level shift para.    LevelShift      ....    0.2500
   Turn off err/grad.   ShiftErr        ....    0.0010
 Zerner damping         CNVZerner       .... off
 Static damping         CNVDamp         .... on
   Fraction old density DampFac         ....    0.7000
   Max. Damping (<1)    DampMax         ....    0.9800
   Min. Damping (>=0)   DampMin         ....    0.0000
   Turn off err/grad.   DampErr         ....    0.1000
 Fernandez-Rico         CNVRico         .... off

SCF Procedure:
 Maximum # iterations   MaxIter         ....   125
 SCF integral mode      SCFMode         .... Direct
   Integral package                     .... LIBINT
 Reset frequency        DirectResetFreq ....    20
 Integral Threshold     Thresh          ....  2.500e-11 Eh
 Primitive CutOff       TCut            ....  2.500e-12 Eh

Convergence Tolerance:
 Convergence Check Mode ConvCheckMode   .... Total+1el-Energy
 Convergence forced     ConvForced      .... 0
 Energy Change          TolE            ....  1.000e-08 Eh
 1-El. energy change                    ....  1.000e-05 Eh
 Orbital Gradient       TolG            ....  1.000e-05
 Orbital Rotation angle TolX            ....  1.000e-05
 DIIS Error             TolErr          ....  5.000e-07


Diagonalization of the overlap matrix:
Smallest eigenvalue                        ... 2.563e-03
Time for diagonalization                   ...    0.002 sec
Threshold for overlap eigenvalues          ... 1.000e-08
Number of eigenvalues below threshold      ... 0
Time for construction of square roots      ...    0.001 sec
Total time needed                          ...    0.002 sec

-------------------
DFT GRID GENERATION
-------------------

General Integration Accuracy     IntAcc      ...  4.670
Radial Grid Type                 RadialGrid  ... Gauss-Chebyshev
Angular Grid (max. acc.)         AngularGrid ... Lebedev-302
Angular grid pruning method      GridPruning ... 3 (G Style)
Weight generation scheme         WeightScheme... Becke
Basis function cutoff            BFCut       ...    1.0000e-11
Integration weight cutoff        WCut        ...    1.0000e-14
Grids for H and He will be reduced by one unit

# of grid points (after initial pruning)     ...  13000 (   0.0 sec)
# of grid points (after weights+screening)   ...  12881 (   0.0 sec)
nearest neighbour list constructed           ...    0.0 sec
Grid point re-assignment to atoms done       ...    0.0 sec
Grid point division into batches done        ...    0.1 sec
Reduced shell lists constructed in    0.1 sec

Total number of grid points                  ...    12881
Total number of batches                      ...      203
Average number of points per batch           ...       63
Average number of grid points per atom       ...     4294
Average number of shells per batch           ...    16.11 (73.23%)
Average number of basis functions per batch  ...    40.48 (69.80%)
Average number of large shells per batch     ...    13.59 (84.37%)
Average number of large basis fcns per batch ...    34.41 (85.00%)
Maximum spatial batch extension              ...  12.59, 12.72, 16.88 au
Average spatial batch extension              ...   0.70,  0.66,  0.79 au

Time for grid setup =    0.121 sec

------------------------------
INITIAL GUESS: MODEL POTENTIAL
------------------------------
Loading Hartree-Fock densities                     ... done
Calculating cut-offs                               ... done
Setting up the integral package                    ... done
Initializing the effective Hamiltonian             ... done
Starting the Coulomb interaction                   ... done (   0.0 sec)
Reading the grid                                   ... done
Mapping shells                                     ... done
Starting the XC term evaluation                    ... done (   0.0 sec)
  promolecular density results
     # of electrons  =      9.999025260
     EX              =     -8.780644262
     EC              =     -0.334488679
     EX+EC           =     -9.115132941
Transforming the Hamiltonian                       ... done (   0.0 sec)
Diagonalizing the Hamiltonian                      ... done (   0.0 sec)
Back transforming the eigenvectors                 ... done (   0.0 sec)
Now organizing SCF variables                       ... done
                      ------------------
                      INITIAL GUESS DONE (   0.3 sec)
                      ------------------

--------------------
CPCM SOLVATION MODEL
--------------------
CPCM parameters:
  Epsilon                                         ...       8.9300
  Refrac                                          ...       1.0000
  Rsolv                                           ...       1.3000
  Surface type                                    ...    GEPOL SES
  Epsilon function type                           ...         CPCM
Solvent:                                     ... DICHLOROMETHANE
SMD-CDS solvent descriptors:
  Soln                                       ...    1.4242
  Soln25                                     ...    1.4212
  Sola                                       ...    0.1000
  Solb                                       ...    0.0500
  Solg                                       ...   39.1500
  Solc                                       ...    0.0000
  Solh                                       ...    0.6670
Radii:
 Radius for O  used is    3.9949 Bohr (=   2.1140 Ang.)
 Radius for H  used is    2.2677 Bohr (=   1.2000 Ang.)
Calculating surface                               ...        done! (  0.0s)
GEPOL surface points                              ...           73
GEPOL Volume                                      ...     267.3522
GEPOL Surface-area                                ...     200.7410
Calculating surface distance matrix               ...        done! (  0.0s)
Performing Cholesky decomposition & store         ...        done! (  0.0s)
Overall time for CPCM initialization              ...                 0.0s
--------------
SCF ITERATIONS
--------------
ITER       Energy         Delta-E        Max-DP      RMS-DP      [F,P]     Damp
               ***  Starting incremental Fock matrix formation  ***
  0    -76.3316568990   0.000000000000 0.06668630  0.00259340  0.3616696 0.7000
  1    -76.3806114733  -0.048954574275 0.03708912  0.00144957  0.1434189 0.7000
                               ***Turning on DIIS***
  2    -76.3961529013  -0.015541427998 0.03220015  0.00152636  0.0301443 0.0000
  3    -76.4245495622  -0.028396660943 0.02318599  0.00084908  0.0842760 0.0000
  4    -76.4294950507  -0.004945488500 0.00471501  0.00019179  0.0144232 0.0000
                      *** Initiating the SOSCF procedure ***
                           *** Shutting down DIIS ***
                      *** Re-Reading the Fockian *** 
                      *** Removing any level shift *** 
ITER      Energy       Delta-E        Grad      Rot      Max-DP    RMS-DP
  5    -76.42966837  -0.0001733232  0.000609  0.000609  0.000700  0.000041
               *** Restarting incremental Fock matrix formation ***
  6    -76.42967302  -0.0000046439  0.000218  0.000518  0.000354  0.000022
  7    -76.42967320  -0.0000001856  0.000217  0.000117  0.000179  0.000009
  8    -76.42967336  -0.0000001562  0.000042  0.000082  0.000069  0.000004
  9    -76.42967337  -0.0000000138  0.000004  0.000010  0.000007  0.000000
                 **** Energy Check signals convergence ****
              ***Rediagonalizing the Fockian in SOSCF/NRSCF***

               *****************************************************
               *                     SUCCESS                       *
               *           SCF CONVERGED AFTER  10 CYCLES          *
               *****************************************************

Setting up the final grid:

General Integration Accuracy     IntAcc      ...  5.010
Radial Grid Type                 RadialGrid  ... Gauss-Chebyshev
Angular Grid (max. acc.)         AngularGrid ... Lebedev-434
Angular grid pruning method      GridPruning ... 3 (G Style)
Weight generation scheme         WeightScheme... Becke
Basis function cutoff            BFCut       ...    1.0000e-11
Integration weight cutoff        WCut        ...    1.0000e-14
Grids for H and He will be reduced by one unit

# of grid points (after initial pruning)     ...  24226 (   0.0 sec)
# of grid points (after weights+screening)   ...  23992 (   0.0 sec)
nearest neighbour list constructed           ...    0.0 sec
Grid point re-assignment to atoms done       ...    0.0 sec
Grid point division into batches done        ...    0.3 sec
Reduced shell lists constructed in    0.3 sec

Total number of grid points                  ...    23992
Total number of batches                      ...      377
Average number of points per batch           ...       63
Average number of grid points per atom       ...     7997
Average number of shells per batch           ...    15.04 (68.37%)
Average number of basis functions per batch  ...    38.06 (65.62%)
Average number of large shells per batch     ...    12.84 (85.35%)
Average number of large basis fcns per batch ...    32.27 (84.77%)
Maximum spatial batch extension              ...  14.78, 13.56, 16.29 au
Average spatial batch extension              ...   0.54,  0.55,  0.62 au

Final grid set up in    0.4 sec
Final integration                            ... done (   0.0 sec)
Change in XC energy                          ...    -0.000011948
Integrated number of electrons               ...     9.999999797
Previous integrated no of electrons          ...     9.999991656

SMD CDS free energy correction energy :                -0.19217     Kcal/mol
Total Energy after SMD CDS correction =               -76.429991566 Eh

----------------
TOTAL SCF ENERGY
----------------

Total Energy       :          -76.42999157 Eh           -2079.76580 eV

Components:
Nuclear Repulsion  :            9.12668348 Eh             248.34968 eV
Electronic Energy  :          -85.55667505 Eh           -2328.11549 eV
One Electron Energy:         -123.08041026 Eh           -3349.18823 eV
Two Electron Energy:           37.52373521 Eh            1021.07275 eV
CPCM Dielectric    :           -0.00763777 Eh              -0.20783 eV
SMD CDS (Gcds)     :           -0.00030624 Eh              -0.00833 eV

Virial components:
Potential Energy   :         -152.48078042 Eh           -4149.21298 eV
Kinetic Energy     :           76.05078885 Eh            2069.44717 eV
Virial Ratio       :            2.00498618


DFT components:
N(Alpha)           :        4.999999898507 electrons
N(Beta)            :        4.999999898507 electrons
N(Total)           :        9.999999797014 electrons
E(X)               :       -7.119279645584 Eh       
E(C)               :       -0.402356812821 Eh       
E(XC)              :       -7.521636458405 Eh       
DFET-embed. en.    :        0.000000000000 Eh       
CPCM Solvation Model Properties:
Surface-charge          :           -0.00246502
Charge-correction       :            0.00002279 Eh               0.00062 eV
Free-energy (cav+disp)  :            0.00271107 Eh               0.07377 eV
Corrected G(solv)       :          -76.42725770 Eh           -2079.69141 eV

---------------
SCF CONVERGENCE
---------------

  Last Energy change         ...   -1.8197e-10  Tolerance :   1.0000e-08
  Last MAX-Density change    ...    4.0316e-07  Tolerance :   1.0000e-07
  Last RMS-Density change    ...    2.7057e-08  Tolerance :   5.0000e-09
  Last Orbital Gradient      ...    6.5774e-07  Tolerance :   1.0000e-05
  Last Orbital Rotation      ...    4.7477e-07  Tolerance :   1.0000e-05

             **** THE GBW FILE WAS UPDATED (/tmp/slurm-scratch/opt+freq.215/opt+freq.gbw) ****
             **** DENSITY FILE WAS UPDATED (/tmp/slurm-scratch/opt+freq.215/opt+freq.scfp) ****
             **** ENERGY FILE WAS UPDATED (/tmp/slurm-scratch/opt+freq.215/opt+freq.en.tmp) ****
             **** THE GBW FILE WAS UPDATED (/tmp/slurm-scratch/opt+freq.215/opt+freq.gbw) ****
             **** DENSITY FILE WAS UPDATED (/tmp/slurm-scratch/opt+freq.215/opt+freq.scfp) ****
----------------
ORBITAL ENERGIES
----------------

  NO   OCC          E(Eh)            E(eV) 
   0   2.0000     -19.110611      -520.0262 
   1   2.0000      -0.996210       -27.1083 
   2   2.0000      -0.513207       -13.9651 
   3   2.0000      -0.378787       -10.3073 
   4   2.0000      -0.301909        -8.2154 
   5   0.0000       0.041727         1.1355 
   6   0.0000       0.118302         3.2192 
   7   0.0000       0.375214        10.2101 
   8   0.0000       0.431514        11.7421 
   9   0.0000       0.493330        13.4242 
  10   0.0000       0.583133        15.8679 
  11   0.0000       0.626321        17.0431 
  12   0.0000       0.631667        17.1885 
  13   0.0000       0.694728        18.9045 
  14   0.0000       0.781537        21.2667 
  15   0.0000       0.927530        25.2394 
  16   0.0000       1.024498        27.8780 
  17   0.0000       1.304953        35.5096 
  18   0.0000       1.330467        36.2039 
  19   0.0000       1.772094        48.2211 
  20   0.0000       1.794371        48.8273 
  21   0.0000       1.819490        49.5108 
  22   0.0000       1.900872        51.7253 
  23   0.0000       1.962700        53.4078 
  24   0.0000       2.258932        61.4687 
  25   0.0000       2.618921        71.2645 
  26   0.0000       3.062928        83.3465 
  27   0.0000       3.200674        87.0948 
  28   0.0000       3.284039        89.3632 
  29   0.0000       3.366825        91.6160 
  30   0.0000       3.381152        92.0058 
  31   0.0000       3.535641        96.2097 
  32   0.0000       3.598993        97.9336 
  33   0.0000       3.657465        99.5247 
  34   0.0000       3.702939       100.7621 
  35   0.0000       3.725694       101.3813 
  36   0.0000       3.791853       103.1816 
  37   0.0000       4.002215       108.9058 
  38   0.0000       4.030882       109.6859 
  39   0.0000       4.252251       115.7096 
  40   0.0000       4.287489       116.6685 
  41   0.0000       4.520241       123.0020 
  42   0.0000       4.746293       129.1532 
  43   0.0000       4.829420       131.4152 
  44   0.0000       5.091803       138.5550 
  45   0.0000       5.603410       152.4765 
  46   0.0000       6.104106       166.1012 
  47   0.0000       6.404141       174.2655 
  48   0.0000       6.413817       174.5288 
  49   0.0000       6.501223       176.9073 
  50   0.0000       6.534922       177.8243 
  51   0.0000       6.571411       178.8172 
  52   0.0000       6.666694       181.4100 
  53   0.0000       6.775257       184.3641 
  54   0.0000       6.957822       189.3320 
  55   0.0000       7.291643       198.4157 
  56   0.0000       7.748751       210.8542 
  57   0.0000      12.073995       328.5501 
------------------
MOLECULAR ORBITALS
------------------
                      0         1         2         3         4         5   
                 -19.11061  -0.99621  -0.51321  -0.37879  -0.30191   0.04173
                   2.00000   2.00000   2.00000   2.00000   2.00000   0.00000
                  --------  --------  --------  --------  --------  --------
  0O   1s         0.971679  0.020613 -0.000004 -0.004601 -0.000000  0.015906
  0O   2s        -0.002050 -0.484423 -0.000081  0.184487 -0.000000 -0.167618
  0O   3s         0.051110 -0.141373 -0.000021  0.057802 -0.000000 -0.060042
  0O   4s         0.005280 -0.271909 -0.000097  0.258669 -0.000000 -1.282207
  0O   1pz        0.000000 -0.000000 -0.000021  0.000000  0.368849 -0.000000
  0O   1px        0.000864 -0.036990 -0.244639 -0.186666 -0.000024 -0.062967
  0O   1py        0.001222 -0.052400  0.172952 -0.264074  0.000017 -0.088915
  0O   2pz       -0.000000 -0.000000 -0.000005  0.000000  0.419739 -0.000000
  0O   2px        0.000162 -0.044549 -0.268512 -0.209819 -0.000047 -0.111396
  0O   2py        0.000235 -0.063074  0.189819 -0.296797  0.000034 -0.157535
  0O   3pz        0.000000 -0.000000 -0.000012  0.000001  0.397343  0.000000
  0O   3px        0.000497 -0.008137 -0.136922 -0.177301 -0.000046 -0.240458
  0O   3py        0.000707 -0.011513  0.096818 -0.250821  0.000032 -0.339938
  0O   1dz2      -0.000289  0.004209 -0.000001  0.004135 -0.000000 -0.001849
  0O   1dxz       0.000000 -0.000001 -0.000001 -0.000001  0.002959  0.000005
  0O   1dyz      -0.000000  0.000000 -0.000001  0.000001  0.004190 -0.000004
  0O   1dx2y2     0.000035 -0.000269 -0.010488  0.001235 -0.000001  0.000810
  0O   1dxy      -0.000099  0.000766 -0.003714 -0.003488 -0.000000 -0.002275
  0O   2dz2      -0.000047  0.008054 -0.000002  0.012425  0.000000  0.034153
  0O   2dxz      -0.000000  0.000004  0.000007  0.000011  0.010403 -0.000047
  0O   2dyz       0.000000 -0.000002  0.000010 -0.000008  0.014720  0.000033
  0O   2dx2y2     0.000060 -0.000301 -0.014866  0.004851 -0.000012 -0.002455
  0O   2dxy      -0.000173  0.000839 -0.005260 -0.013716 -0.000004  0.006978
  0O   1f0        0.000000 -0.000000 -0.000002  0.000000 -0.003868  0.000000
  0O   1f+1      -0.000006  0.000722  0.002025  0.001440  0.000001  0.001710
  0O   1f-1      -0.000008  0.001021 -0.001432  0.002035 -0.000001  0.002421
  0O   1f+2       0.000000  0.000001  0.000000  0.000002  0.000359 -0.000012
  0O   1f-2       0.000000  0.000001  0.000000  0.000001 -0.001014 -0.000004
  0O   1f+3      -0.000119  0.001382 -0.000254  0.000730  0.000000  0.005068
  0O   1f-3       0.000034 -0.000390 -0.000902 -0.000206  0.000001 -0.001431
  1H   1s         0.000414 -0.094586 -0.148196 -0.088147 -0.000015  0.041853
  1H   2s        -0.001841 -0.077237 -0.202553 -0.111900  0.000036  0.285214
  1H   3s        -0.000371 -0.010874 -0.074699 -0.024118  0.000063  0.824086
  1H   1pz       -0.000000  0.000000  0.000001  0.000001  0.010597 -0.000017
  1H   1px        0.000172  0.013249  0.014377  0.006823 -0.000001  0.011363
  1H   1py        0.000066 -0.000284  0.005297 -0.006600 -0.000000 -0.001705
  1H   2pz        0.000000 -0.000017 -0.000038 -0.000027  0.029019  0.000146
  1H   2px        0.000994  0.013285  0.024935 -0.000875 -0.000027 -0.119581
  1H   2py        0.000084 -0.001700  0.008902 -0.019806  0.000005 -0.003818
  1H   1dz2       0.000385  0.001781  0.003643  0.001525  0.000002 -0.005718
  1H   1dxz       0.000000  0.000004  0.000008  0.000006 -0.004669 -0.000023
  1H   1dyz       0.000000 -0.000001 -0.000000 -0.000003  0.000032 -0.000000
  1H   1dx2y2    -0.000753 -0.002880 -0.005458 -0.001660  0.000002  0.009795
  1H   1dxy      -0.000164  0.000183 -0.002313  0.002845 -0.000000  0.003372
  2H   1s         0.000414 -0.094660  0.148223 -0.088127  0.000015  0.041775
  2H   2s        -0.001849 -0.077295  0.202530 -0.111857 -0.000036  0.285334
  2H   3s        -0.000372 -0.010883  0.074678 -0.024057 -0.000063  0.823512
  2H   1pz        0.000000 -0.000000  0.000001 -0.000001  0.010604  0.000017
  2H   1px        0.000004 -0.004694 -0.000194 -0.008506 -0.000000 -0.005398
  2H   1py        0.000186  0.012407 -0.015327  0.004231  0.000001  0.010121
  2H   2pz       -0.000000  0.000017 -0.000038  0.000027  0.029028 -0.000146
  2H   2px       -0.000254 -0.006036 -0.000087 -0.018378 -0.000013  0.036336
  2H   2py        0.000969  0.011968 -0.026464 -0.007433  0.000024 -0.114112
  2H   1dz2       0.000386  0.001783 -0.003643  0.001526 -0.000002 -0.005728
  2H   1dxz       0.000000  0.000001 -0.000002  0.000004  0.001588 -0.000006
  2H   1dyz      -0.000000 -0.000003  0.000008 -0.000005 -0.004392  0.000023
  2H   1dx2y2     0.000690  0.002129 -0.005699 -0.000497  0.000001 -0.009749
  2H   1dxy       0.000347  0.001956 -0.001635  0.003258  0.000002 -0.003548
                      6         7         8         9        10        11   
                   0.11830   0.37521   0.43151   0.49333   0.58313   0.62632
                   0.00000   0.00000   0.00000   0.00000   0.00000   0.00000
                  --------  --------  --------  --------  --------  --------
  0O   1s        -0.000002 -0.000011  0.018042  0.033941 -0.000000 -0.000071
  0O   2s        -0.000066 -0.000186  0.182003  0.120594 -0.000003 -0.000052
  0O   3s        -0.000026 -0.000051  0.044212 -0.025780 -0.000001 -0.000030
  0O   4s        -0.000745  0.000774  0.037359  4.047337 -0.000017 -0.000694
  0O   1pz        0.000033  0.000003 -0.000001 -0.000000 -0.293411  0.000016
  0O   1px        0.156265 -0.093855  0.086955 -0.148955 -0.000002 -0.242954
  0O   1py       -0.110441  0.066075  0.123216 -0.210825 -0.000000  0.171726
  0O   2pz        0.000113  0.000006 -0.000002 -0.000000 -0.745276  0.000042
  0O   2px        0.208803 -0.212149  0.115412 -0.089989 -0.000054 -0.047808
  0O   2py       -0.147620  0.149668  0.163836 -0.127241  0.000035  0.033656
  0O   3pz        0.000049  0.000006 -0.000002 -0.000003  1.138743  0.000101
  0O   3px        0.584226 -0.845399  0.130839  1.475360  0.000104  2.365421
  0O   3py       -0.413046  0.597506  0.188643  2.087995 -0.000106 -1.671158
  0O   1dz2       0.000001 -0.000012  0.009599  0.026432 -0.000000  0.000015
  0O   1dxz      -0.000002 -0.000000  0.000003  0.000001 -0.004593 -0.000002
  0O   1dyz      -0.000003 -0.000001 -0.000002 -0.000001 -0.006506 -0.000003
  0O   1dx2y2    -0.002858  0.024058 -0.004779  0.000076 -0.000001 -0.023492
  0O   1dxy      -0.001011  0.008503  0.013615 -0.000248  0.000000 -0.008325
  0O   2dz2       0.000013 -0.000061  0.029762 -0.246504  0.000000 -0.000018
  0O   2dxz       0.000024  0.000003 -0.000010 -0.000005  0.018129  0.000006
  0O   2dyz       0.000035  0.000005  0.000007  0.000003  0.025651  0.000008
  0O   2dx2y2     0.034567 -0.087795  0.001014  0.017716 -0.000014  0.390279
  0O   2dxy       0.012252 -0.031108 -0.003397 -0.049939 -0.000007  0.138220
  0O   1f0       -0.000010  0.000001 -0.000000 -0.000000 -0.005655 -0.000002
  0O   1f+1      -0.002012  0.011756 -0.001493 -0.009782  0.000000 -0.021871
  0O   1f-1       0.001421 -0.008308 -0.002156 -0.013823 -0.000000  0.015446
  0O   1f+2       0.000001  0.000000  0.000002 -0.000002  0.000460  0.000000
  0O   1f-2      -0.000002 -0.000000  0.000001 -0.000001 -0.001308 -0.000000
  0O   1f+3       0.000112  0.002104 -0.008189 -0.025952  0.000000 -0.005360
  0O   1f-3       0.000396  0.007451  0.002320  0.007315  0.000002 -0.018966
  1H   1s        -0.036270  0.129459 -0.121129  0.022154 -0.000018  0.049263
  1H   2s        -0.193992  1.436533 -1.061746 -2.201280  0.000071 -1.498373
  1H   3s        -1.540056 -0.807997  0.702993 -0.329137 -0.000212 -1.509133
  1H   1pz        0.000016  0.000007 -0.000013 -0.000002 -0.008737  0.000015
  1H   1px       -0.017083 -0.044344  0.019968  0.030232 -0.000007  0.056414
  1H   1py       -0.002996  0.005075  0.000067 -0.001190 -0.000004  0.001370
  1H   2pz       -0.000122 -0.000018  0.000078  0.000037  0.023597 -0.000148
  1H   2px        0.101709 -0.013432 -0.236022  0.935693 -0.000024  1.006038
  1H   2py        0.006466  0.038148  0.152437  0.005046  0.000045  0.064921
  1H   1dz2       0.004702 -0.007734  0.005717  0.039376  0.000004  0.046834
  1H   1dxz       0.000022 -0.000004  0.000006 -0.000003  0.021241  0.000003
  1H   1dyz      -0.000004  0.000007  0.000002  0.000007  0.000414 -0.000005
  1H   1dx2y2    -0.007784  0.025816  0.004522 -0.060727  0.000002 -0.086644
  1H   1dxy       0.001774 -0.000591 -0.008825  0.004965 -0.000001 -0.004654
  2H   1s         0.036234 -0.129182 -0.121427  0.022127  0.000019 -0.049177
  2H   2s         0.194191 -1.434501 -1.065893 -2.202043 -0.000027  1.498073
  2H   3s         1.540838  0.805849  0.704017 -0.329713  0.000200  1.509750
  2H   1pz        0.000016  0.000008  0.000012  0.000002 -0.008722  0.000014
  2H   1px       -0.002875 -0.019592 -0.006656 -0.011225 -0.000000  0.017568
  2H   1py        0.017115  0.040093  0.018975  0.028131  0.000007 -0.053666
  2H   2pz       -0.000124 -0.000021 -0.000070 -0.000031  0.023245 -0.000140
  2H   2px        0.027894 -0.040811  0.222371 -0.307605 -0.000021  0.274176
  2H   2py       -0.098197  0.000468 -0.171488  0.883865  0.000014 -0.970295
  2H   1dz2      -0.004704  0.007715  0.005737  0.039373 -0.000005 -0.046798
  2H   1dxz      -0.000010  0.000007 -0.000001 -0.000007 -0.006701 -0.000007
  2H   1dyz       0.000020 -0.000002 -0.000006  0.000001  0.020157  0.000001
  2H   1dx2y2    -0.004944  0.019695  0.002104  0.044049  0.000002 -0.070268
  2H   1dxy      -0.006277  0.016719 -0.009670  0.042042  0.000001 -0.050869
                     12        13        14        15        16        17   
                   0.63167   0.69473   0.78154   0.92753   1.02450   1.30495
                   0.00000   0.00000   0.00000   0.00000   0.00000   0.00000
                  --------  --------  --------  --------  --------  --------
  0O   1s        -0.020732 -0.000023  0.000002  0.266793 -0.000207 -0.001597
  0O   2s        -0.130152 -0.000051  0.000009  0.879396 -0.000604 -0.004762
  0O   3s        -0.027335  0.000014  0.000002  0.300097 -0.000181 -0.001330
  0O   4s        -0.756496 -0.001440 -0.000019 -6.988423  0.002840 -0.013638
  0O   1pz        0.000005  0.000059 -0.022156  0.000000  0.000012  0.000008
  0O   1px       -0.031014 -0.000013 -0.000027 -0.026898  0.022680 -0.156967
  0O   1py       -0.043759 -0.000017  0.000021 -0.038140 -0.015979  0.109569
  0O   2pz        0.000012  0.000267 -0.038611  0.000000  0.000020  0.000029
  0O   2px       -0.083902 -0.000139 -0.000285 -0.558593  0.157785 -0.889930
  0O   2py       -0.118455 -0.000199  0.000202 -0.791748 -0.110912  0.624367
  0O   3pz       -0.000060 -0.000618 -1.121760  0.000005  0.000157  0.000081
  0O   3px       -0.770152 -0.000413  0.000292 -1.028056  1.380086 -0.719098
  0O   3py       -1.091482 -0.000668 -0.000175 -1.456975 -0.974257  0.505248
  0O   1dz2      -0.010293 -0.000008  0.000000 -0.011100  0.000005 -0.000070
  0O   1dxz      -0.000006  0.020856  0.013105  0.000001 -0.000002 -0.000001
  0O   1dyz       0.000005 -0.014733  0.018572 -0.000001 -0.000002 -0.000001
  0O   1dx2y2    -0.011441 -0.000002 -0.000003  0.001844 -0.002969  0.006040
  0O   1dxy       0.032268  0.000006 -0.000002 -0.005106 -0.001064  0.002081
  0O   2dz2       0.011874  0.000061  0.000002  0.216701 -0.000024 -0.000899
  0O   2dxz       0.000005  0.002189  0.017560 -0.000042 -0.000029 -0.000067
  0O   2dyz      -0.000007 -0.001483  0.024757  0.000029 -0.000031 -0.000093
  0O   2dx2y2     0.038582 -0.000000 -0.000076 -0.055018  0.074420  0.066049
  0O   2dxy      -0.108661  0.000011 -0.000026  0.155911  0.026351  0.022728
  0O   1f0        0.000001  0.000003  0.015348 -0.000000 -0.000002 -0.000005
  0O   1f+1       0.005677  0.000002  0.000002  0.020822 -0.007889 -0.002053
  0O   1f-1       0.008039  0.000004 -0.000002  0.029488  0.005554  0.001325
  0O   1f+2       0.000005 -0.012943 -0.001975 -0.000003  0.000001  0.000001
  0O   1f-2       0.000002 -0.004582  0.005613 -0.000001 -0.000003 -0.000002
  0O   1f+3      -0.010158  0.000007  0.000003  0.074989  0.000979 -0.001290
  0O   1f-3       0.002851 -0.000002  0.000008 -0.021160  0.003579 -0.003843
  1H   1s         0.000340 -0.000030 -0.000028 -0.035722  0.009012  0.154030
  1H   2s         0.969815  0.000989  0.000273  2.857048 -0.956820  1.239514
  1H   3s        -0.245190 -0.000135 -0.000207  0.655752 -0.109814  0.874765
  1H   1pz        0.000016 -0.048431 -0.060708 -0.000003  0.000003 -0.000004
  1H   1px       -0.000932 -0.000009 -0.000005 -0.105651  0.020190  0.075937
  1H   1py       -0.035085 -0.000015 -0.000022 -0.017157 -0.069933  0.002099
  1H   2pz       -0.000212  0.823096  0.974385 -0.000055 -0.000169 -0.000086
  1H   2px       -0.104368 -0.000371 -0.000334 -1.340144  0.169148 -1.783680
  1H   2py        0.841922  0.000251  0.000204  0.068517  1.198787 -0.004139
  1H   1dz2      -0.006459  0.000005 -0.000004 -0.104841  0.013276 -0.036571
  1H   1dxz       0.000009 -0.023535 -0.034012 -0.000005  0.000008  0.000024
  1H   1dyz       0.000019 -0.013232  0.019955  0.000002  0.000016 -0.000015
  1H   1dx2y2    -0.004538  0.000014  0.000028  0.146521 -0.011377  0.084277
  1H   1dxy      -0.054151 -0.000001 -0.000003  0.032142 -0.014255 -0.002561
  2H   1s         0.000375 -0.000030  0.000029 -0.035613 -0.008994 -0.152704
  2H   2s         0.971083  0.001040 -0.000291  2.860695  0.954693 -1.227949
  2H   3s        -0.244575 -0.000124  0.000226  0.656320  0.109249 -0.870551
  2H   1pz       -0.000021  0.048361 -0.060728  0.000004  0.000003 -0.000003
  2H   1px       -0.032700 -0.000006  0.000020  0.019221  0.072634  0.022917
  2H   1py       -0.012612 -0.000013  0.000011 -0.105491  0.004381 -0.070759
  2H   2pz        0.000280 -0.822383  0.975264  0.000047 -0.000142 -0.000085
  2H   2px        0.828449  0.000316 -0.000350  0.511097 -1.074370 -0.586555
  2H   2py        0.182327 -0.000292  0.000222 -1.242024 -0.558659  1.666387
  2H   1dz2      -0.006460  0.000005  0.000003 -0.104918 -0.013178  0.036538
  2H   1dxz      -0.000012  0.004628  0.030172 -0.000004  0.000012 -0.000020
  2H   1dyz      -0.000016  0.026603 -0.025455  0.000004  0.000009  0.000018
  2H   1dx2y2     0.037605 -0.000010  0.000015 -0.134196 -0.017731  0.064128
  2H   1dxy      -0.039267 -0.000011  0.000023 -0.067269  0.004042  0.055156
                     18        19        20        21        22        23   
                   1.33047   1.77209   1.79437   1.81949   1.90087   1.96270
                   0.00000   0.00000   0.00000   0.00000   0.00000   0.00000
                  --------  --------  --------  --------  --------  --------
  0O   1s         0.291721  0.000004  0.000044 -0.000467  0.158552 -0.117255
  0O   2s         0.853102  0.000009  0.000092 -0.001090  0.385099 -0.260792
  0O   3s         0.251774  0.000002 -0.000008 -0.000334  0.062322  0.042400
  0O   4s         2.159071  0.000023  0.000982 -0.002996  2.065886 -7.029731
  0O   1pz       -0.000000  0.006173  0.000013 -0.000010  0.000000  0.000000
  0O   1px        0.106682 -0.000017 -0.000001  0.039910  0.032936 -0.083728
  0O   1py        0.153019  0.000013 -0.000003 -0.028262  0.046584 -0.118515
  0O   2pz        0.000000 -0.043535 -0.000279 -0.000064  0.000002  0.000000
  0O   2px        0.339947 -0.001918  0.000094  1.444934  0.202651 -0.524219
  0O   2py        0.492179  0.001362  0.000101 -1.021906  0.285603 -0.741956
  0O   3pz        0.000001 -0.728963 -0.002455 -0.001055  0.000019  0.000003
  0O   3px        0.204056 -0.003074  0.000225  2.315370  0.078100 -1.617067
  0O   3py        0.297375  0.002167  0.000255 -1.637192  0.108783 -2.287859
  0O   1dz2       0.010271 -0.000000 -0.000000  0.000035 -0.001791  0.004541
  0O   1dxz       0.000002  0.003145 -0.003972  0.000003  0.000000 -0.000000
  0O   1dyz      -0.000001  0.004430  0.002831  0.000005 -0.000000  0.000000
  0O   1dx2y2    -0.002588 -0.000019 -0.000001  0.014373  0.000582  0.000760
  0O   1dxy       0.007447 -0.000007  0.000002  0.005107 -0.001664 -0.002079
  0O   2dz2       0.186102  0.000002 -0.000225  0.000048 -0.188228  1.458926
  0O   2dxz       0.000037 -0.673867  0.998404 -0.000920 -0.000159  0.000135
  0O   2dyz      -0.000027 -0.947203 -0.710174 -0.001272  0.000144 -0.000091
  0O   2dx2y2    -0.041332 -0.002196  0.000095  1.615564  0.445122  0.033899
  0O   2dxy       0.119123 -0.000807 -0.000220  0.572502 -1.254324 -0.096553
  0O   1f0       -0.000000  0.007429  0.000048  0.000006 -0.000000  0.000000
  0O   1f+1       0.012192  0.000122 -0.000006 -0.090205 -0.010666  0.027952
  0O   1f-1       0.017334 -0.000087 -0.000007  0.063762 -0.015001  0.039532
  0O   1f+2      -0.000008  0.003380  0.015643  0.000005 -0.000001  0.000001
  0O   1f-2      -0.000003 -0.009621  0.005510 -0.000014 -0.000000  0.000000
  0O   1f+3       0.039874  0.000032 -0.000023 -0.023765 -0.061534  0.068994
  0O   1f-3      -0.011297  0.000118  0.000006 -0.084328  0.017276 -0.019456
  1H   1s        -0.115731 -0.000593  0.000105  0.414995  0.224179 -0.222572
  1H   2s        -0.928816  0.006009 -0.000815 -4.476230 -1.465403  4.305894
  1H   3s        -0.331447  0.000225  0.000058 -0.288117 -0.013661  0.166558
  1H   1pz        0.000003 -0.036131  0.050631 -0.000029 -0.000003 -0.000001
  1H   1px       -0.136759 -0.000295  0.000030  0.206552  0.046292 -0.079461
  1H   1py       -0.007452 -0.000066 -0.000010  0.043644 -0.093150 -0.006158
  1H   2pz        0.000049  0.690101 -0.616933  0.001017  0.000106 -0.000109
  1H   2px        1.370970 -0.002786  0.000264  2.185898  0.695623 -1.740642
  1H   2py        0.069173 -0.000028  0.000103  0.015745  0.703981  0.242708
  1H   1dz2      -0.001334 -0.000159 -0.000003  0.120294  0.028222 -0.052629
  1H   1dxz      -0.000026 -0.021306  0.035142 -0.000028 -0.000001  0.000004
  1H   1dyz       0.000001 -0.068473 -0.042290 -0.000098  0.000019 -0.000005
  1H   1dx2y2     0.028992  0.000354 -0.000020 -0.262967 -0.034421  0.127434
  1H   1dxy       0.006036  0.000021 -0.000018 -0.016034 -0.046576 -0.001568
  2H   1s        -0.117653  0.000600  0.000096 -0.414988  0.223659 -0.222363
  2H   2s        -0.943643 -0.006045 -0.000720  4.480528 -1.461860  4.307040
  2H   3s        -0.341951 -0.000225  0.000067  0.288200 -0.013571  0.166584
  2H   1pz       -0.000003 -0.035794 -0.050802 -0.000028  0.000003  0.000001
  2H   1px        0.038939 -0.000041 -0.000020  0.027994 -0.103200  0.020772
  2H   1py       -0.132432  0.000300  0.000021 -0.209483  0.012407 -0.077035
  2H   2pz       -0.000050  0.686607  0.621521  0.000999 -0.000142  0.000103
  2H   2px       -0.399620 -0.000884  0.000012  0.714649  0.432524  0.809934
  2H   2py        1.335710  0.002664  0.000237 -2.067294  0.889066 -1.559665
  2H   1dz2      -0.000916  0.000160 -0.000007 -0.120250  0.028114 -0.052555
  2H   1dxz      -0.000007 -0.057713  0.051282 -0.000085 -0.000016  0.000007
  2H   1dyz       0.000025 -0.042925 -0.019417 -0.000058 -0.000002 -0.000002
  2H   1dx2y2    -0.025591  0.000289  0.000023 -0.214382  0.055910 -0.097975
  2H   1dxy      -0.012897  0.000206 -0.000003 -0.152973 -0.014858 -0.081351
                     24        25        26        27        28        29   
                   2.25893   2.61892   3.06293   3.20067   3.28404   3.36682
                   0.00000   0.00000   0.00000   0.00000   0.00000   0.00000
                  --------  --------  --------  --------  --------  --------
  0O   1s         0.211490 -0.000184 -0.000001  0.012915  0.000007  0.000038
  0O   2s         0.417938 -0.000358 -0.000003  0.036909  0.000012  0.000044
  0O   3s         0.027225 -0.000039  0.000000 -0.007419  0.000003 -0.000092
  0O   4s         0.604786 -0.000175 -0.000026  1.083519 -0.000113  0.000359
  0O   1pz       -0.000000 -0.000014 -0.144602 -0.000007 -0.000473  0.000107
  0O   1px       -0.119025 -0.268713 -0.000012 -0.041135 -0.000015 -0.026550
  0O   1py       -0.168432  0.190133  0.000011 -0.058368 -0.000020  0.018755
  0O   2pz        0.000000  0.000014  0.105415  0.000006  0.000384 -0.000092
  0O   2px        0.214160  0.406710  0.000001  0.028336  0.000018  0.101498
  0O   2py        0.302776 -0.287803 -0.000005  0.040842  0.000019 -0.071711
  0O   3pz       -0.000000 -0.000018  0.106645 -0.000000 -0.000283  0.000055
  0O   3px        0.216485 -0.441941 -0.000034  0.210372 -0.000027  0.095773
  0O   3py        0.306164  0.312354  0.000011  0.298273 -0.000038 -0.067426
  0O   1dz2      -0.014065  0.000038  0.000000  0.010601 -0.000003  0.000002
  0O   1dxz       0.000000 -0.000000  0.016017  0.000003  0.045514 -0.000003
  0O   1dyz      -0.000000 -0.000000  0.022684 -0.000001 -0.032167 -0.000000
  0O   1dx2y2     0.003318 -0.005935 -0.000003 -0.015612  0.000004  0.063217
  0O   1dxy      -0.009496 -0.002084 -0.000002  0.044065 -0.000002  0.022370
  0O   2dz2       0.226188 -0.000130 -0.000005  0.260346 -0.000026 -0.000046
  0O   2dxz      -0.000015 -0.000007  0.176812 -0.000010  0.033955  0.000040
  0O   2dyz       0.000012 -0.000012  0.250160  0.000010 -0.024212  0.000048
  0O   2dx2y2    -0.132912 -0.651499 -0.000031  0.106244  0.000006  0.317069
  0O   2dxy       0.375303 -0.230704 -0.000010 -0.300637  0.000016  0.112397
  0O   1f0       -0.000000 -0.000005 -0.012833 -0.000001 -0.000032  0.000003
  0O   1f+1      -0.034323 -0.096728  0.000006 -0.061572  0.000007 -0.046237
  0O   1f-1      -0.048538  0.068403 -0.000002 -0.087183  0.000013  0.032622
  0O   1f+2       0.000005  0.000001  0.045424  0.000014  0.122164 -0.000001
  0O   1f-2       0.000002 -0.000001 -0.128304  0.000002  0.043288 -0.000016
  0O   1f+3      -0.108319 -0.015337 -0.000001 -0.006830 -0.000001  0.001133
  0O   1f-3       0.030560 -0.054688 -0.000006  0.001880 -0.000001  0.004333
  1H   1s         0.951427  0.878112 -0.000003  0.297540 -0.000050 -0.310352
  1H   2s        -1.518342 -0.717761  0.000057 -0.878888  0.000084  0.014893
  1H   3s         0.367435  0.604096  0.000020  0.042066 -0.000001 -0.217664
  1H   1pz        0.000011  0.000012  0.225694  0.000049  0.493667 -0.000062
  1H   1px        0.118337  0.154181  0.000002  0.100032 -0.000032 -0.237399
  1H   1py        0.010688 -0.015240  0.000003  0.031581  0.000014  0.100523
  1H   2pz        0.000013  0.000019 -0.217513  0.000004 -0.299012  0.000014
  1H   2px        0.211008 -0.005978 -0.000027  0.239708 -0.000005  0.336824
  1H   2py       -0.139109  0.031000  0.000021  0.053719 -0.000022 -0.098621
  1H   1dz2       0.136141 -0.151283  0.000037 -0.582432  0.000048 -0.397304
  1H   1dxz       0.000009  0.000013 -0.019995 -0.000006 -0.097133  0.000045
  1H   1dyz      -0.000004  0.000002 -0.629340  0.000047  0.546400 -0.000066
  1H   1dx2y2     0.050358 -0.125584  0.000028 -0.242124 -0.000004 -0.510036
  1H   1dxy       0.058334 -0.002085  0.000013 -0.283567  0.000013  0.182294
  2H   1s         0.950708 -0.878514 -0.000014  0.297459 -0.000026  0.310455
  2H   2s        -1.517477  0.718602 -0.000008 -0.880092  0.000076 -0.015322
  2H   3s         0.367034 -0.604244 -0.000024  0.041908  0.000012  0.217624
  2H   1pz       -0.000010  0.000012  0.225708 -0.000036 -0.493259 -0.000013
  2H   1px       -0.029507  0.065930 -0.000002 -0.003782  0.000002 -0.173954
  2H   1py        0.115224 -0.140547 -0.000006  0.104824 -0.000013  0.190112
  2H   2pz       -0.000013  0.000021 -0.217590 -0.000012  0.298987 -0.000009
  2H   2px       -0.201642 -0.031143 -0.000021 -0.029352 -0.000000  0.205194
  2H   2py        0.152272 -0.005071  0.000010  0.244567 -0.000025 -0.284342
  2H   1dz2       0.136205  0.151095 -0.000017 -0.582431  0.000078  0.397172
  2H   1dxz       0.000003 -0.000003 -0.586628 -0.000063 -0.547102 -0.000041
  2H   1dyz      -0.000008  0.000012 -0.228736 -0.000021 -0.091261  0.000019
  2H   1dx2y2    -0.075877 -0.098988  0.000016  0.366697 -0.000029 -0.281613
  2H   1dxy       0.013677 -0.077403  0.000005 -0.067856 -0.000022 -0.462492
                     30        31        32        33        34        35   
                   3.38115   3.53564   3.59899   3.65747   3.70294   3.72569
                   0.00000   0.00000   0.00000   0.00000   0.00000   0.00000
                  --------  --------  --------  --------  --------  --------
  0O   1s         0.000000  0.000127  0.093065 -0.000027  0.000004  0.000233
  0O   2s         0.000001  0.000355  0.212979 -0.000070  0.000007  0.000416
  0O   3s         0.000000  0.000171  0.078115 -0.000030  0.000002  0.000003
  0O   4s         0.000000  0.001503  0.077050 -0.000338  0.000006  0.006324
  0O   1pz       -0.906280  0.000034 -0.000010 -0.000156  0.422034 -0.000276
  0O   1px       -0.000041  0.103130  0.008863  0.000050 -0.000451 -0.567606
  0O   1py        0.000028 -0.073139  0.012581  0.000068  0.000318  0.398827
  0O   2pz        0.832677 -0.000022  0.000002  0.000263 -0.188930  0.000079
  0O   2px        0.000054 -0.147425 -0.079499 -0.000098  0.001134  1.290937
  0O   2py       -0.000036  0.104615 -0.112086 -0.000139 -0.000801 -0.908778
  0O   3pz       -0.371593  0.000031 -0.000017  0.000012  0.699732 -0.000549
  0O   3px       -0.000026 -0.683305 -0.193111 -0.000041  0.000421  0.458700
  0O   3py        0.000017  0.482747 -0.274278 -0.000038 -0.000306 -0.323010
  0O   1dz2      -0.000000 -0.000032 -0.009878  0.000007 -0.000001 -0.000230
  0O   1dxz       0.019925 -0.000001  0.000001 -0.014306  0.005656 -0.000006
  0O   1dyz       0.028242 -0.000001 -0.000001  0.010122  0.008056 -0.000009
  0O   1dx2y2     0.000012  0.015695 -0.002780 -0.000000  0.000117  0.161582
  0O   1dxy       0.000004  0.005529  0.007781  0.000001  0.000041  0.057186
  0O   2dz2      -0.000002 -0.000218  0.010988  0.000024  0.000002 -0.000331
  0O   2dxz      -0.206042  0.000002 -0.000013  0.170101  0.153540 -0.000131
  0O   2dyz      -0.291090  0.000015 -0.000001 -0.120126  0.217114 -0.000179
  0O   2dx2y2     0.000022 -0.376419  0.102234 -0.000020 -0.000056 -0.174661
  0O   2dxy       0.000007 -0.133943 -0.287867  0.000030 -0.000023 -0.062733
  0O   1f0       -0.056941 -0.000006  0.000004 -0.000019 -0.176945  0.000141
  0O   1f+1       0.000002  0.016870  0.040109  0.000004 -0.000018 -0.016467
  0O   1f-1      -0.000001 -0.011848  0.056791  0.000004  0.000014  0.011473
  0O   1f+2      -0.015843  0.000001  0.000000 -0.166683  0.002976 -0.000002
  0O   1f-2       0.044676  0.000002  0.000001 -0.059024 -0.008629  0.000006
  0O   1f+3      -0.000000 -0.048339 -0.166251 -0.000003 -0.000010 -0.006835
  0O   1f-3       0.000000 -0.170864  0.046974 -0.000002 -0.000017 -0.024203
  1H   1s        -0.000053  0.035574 -0.024445  0.000018  0.000129  0.193999
  1H   2s         0.000027  0.667543 -0.002253  0.000188 -0.001309 -1.444670
  1H   3s        -0.000015  0.035596 -0.055620  0.000020 -0.000264 -0.344405
  1H   1pz        0.421978  0.000029 -0.000014 -0.688505  0.699311 -0.000566
  1H   1px       -0.000055 -0.099392 -0.062526  0.000033 -0.000429 -0.592644
  1H   1py        0.000027  0.791085 -0.717238 -0.000012 -0.000137 -0.116818
  1H   2pz       -0.143138 -0.000026  0.000020  0.439981 -0.733643  0.000606
  1H   2px        0.000051 -0.176591  0.175086 -0.000155  0.001282  1.484974
  1H   2py       -0.000023 -0.663528  0.623370 -0.000015  0.000161  0.171135
  1H   1dz2      -0.000029  0.035843  0.133442 -0.000012  0.000368  0.396815
  1H   1dxz      -0.245491  0.000026 -0.000019 -0.158390  0.469521 -0.000378
  1H   1dyz       0.196837 -0.000006 -0.000014  0.460602  0.115045 -0.000093
  1H   1dx2y2    -0.000064 -0.001604 -0.039305  0.000045 -0.000224 -0.220720
  1H   1dxy       0.000017 -0.198816 -0.472250  0.000003 -0.000146 -0.209301
  2H   1s         0.000051 -0.035861 -0.024457  0.000012 -0.000129 -0.193970
  2H   2s        -0.000026 -0.668944 -0.001621  0.000174  0.001305  1.438678
  2H   3s         0.000015 -0.035910 -0.055641  0.000015  0.000260  0.343301
  2H   1pz        0.422484  0.000015 -0.000020  0.688495  0.699026 -0.000568
  2H   1px       -0.000042 -0.779672 -0.653704 -0.000039 -0.000046 -0.086283
  2H   1py        0.000041 -0.170884 -0.297926  0.000022  0.000429  0.595546
  2H   2pz       -0.143646 -0.000023  0.000018 -0.440131 -0.733575  0.000603
  2H   2px        0.000040  0.567366  0.528172  0.000047  0.000298  0.332738
  2H   2py       -0.000038  0.389436  0.372855 -0.000139 -0.001238 -1.451665
  2H   1dz2       0.000036 -0.035233  0.133623 -0.000020 -0.000361 -0.396478
  2H   1dxz       0.268176  0.000004  0.000011 -0.487098 -0.048399  0.000040
  2H   1dyz      -0.165186  0.000028 -0.000004 -0.004182  0.480937 -0.000382
  2H   1dx2y2    -0.000042 -0.125551  0.328098 -0.000041 -0.000249 -0.302145
  2H   1dxy      -0.000052  0.152484 -0.342630 -0.000012 -0.000038  0.023571
                     36        37        38        39        40        41   
                   3.79185   4.00222   4.03088   4.25225   4.28749   4.52024
                   0.00000   0.00000   0.00000   0.00000   0.00000   0.00000
                  --------  --------  --------  --------  --------  --------
  0O   1s        -0.188985  0.000109 -0.266591 -0.000070 -0.000001 -0.000040
  0O   2s        -0.454046  0.000221 -0.373976 -0.000429 -0.000002 -0.000651
  0O   3s        -0.214492  0.000061  0.013151 -0.000305  0.000001 -0.000445
  0O   4s        -3.919043  0.000186  0.683856 -0.002695  0.000010 -0.003477
  0O   1pz       -0.000002 -0.000593  0.000005  0.000174 -0.664112 -0.000053
  0O   1px        0.520124  0.000041 -0.205137 -0.413897 -0.000102 -0.106665
  0O   1py        0.738142  0.000066 -0.289949  0.292559  0.000067  0.075038
  0O   2pz        0.000003  0.000390 -0.000008 -0.000352  1.379700  0.000147
  0O   2px       -0.917523  0.000066  0.114061  0.076665  0.000286 -1.698322
  0O   2py       -1.305103  0.000082  0.162213 -0.055339 -0.000195  1.199796
  0O   3pz        0.000000 -0.000302  0.000002 -0.000004 -0.054915  0.000037
  0O   3px       -0.384072  0.000060 -0.042653 -0.329709  0.000083 -1.142417
  0O   3py       -0.546053  0.000088 -0.060058  0.232097 -0.000058  0.806496
  0O   1dz2       0.118449 -0.000016  0.057051 -0.000026  0.000000 -0.000176
  0O   1dxz       0.000003 -0.082367 -0.000026  0.000009 -0.047525 -0.000004
  0O   1dyz      -0.000002  0.058220  0.000018  0.000011 -0.067456 -0.000005
  0O   1dx2y2    -0.003431  0.000009 -0.037111  0.010611 -0.000014  0.209957
  0O   1dxy       0.010904 -0.000025  0.105100  0.003732 -0.000004  0.074073
  0O   2dz2       0.246015  0.000083 -0.481494  0.000408 -0.000003  0.000787
  0O   2dxz       0.000023  0.831271  0.000222 -0.000106  0.388391  0.000055
  0O   2dyz      -0.000015 -0.587500 -0.000160 -0.000139  0.550799  0.000076
  0O   2dx2y2    -0.153302 -0.000082  0.335758  0.144149  0.000181 -1.112863
  0O   2dxy       0.431778  0.000234 -0.948826  0.051300  0.000061 -0.392067
  0O   1f0       -0.000000  0.000244 -0.000002 -0.000066  0.292657  0.000034
  0O   1f+1       0.028140 -0.000023  0.059716  0.133599  0.000013  0.203093
  0O   1f-1       0.039900 -0.000034  0.084327 -0.094205 -0.000008 -0.142942
  0O   1f+2       0.000021 -0.061885 -0.000019 -0.000002  0.002793  0.000002
  0O   1f-2       0.000008 -0.021891 -0.000006  0.000006 -0.007948 -0.000006
  0O   1f+3      -0.011826 -0.000049  0.123886 -0.005490 -0.000006  0.033267
  0O   1f-3       0.003254  0.000012 -0.034936 -0.019493 -0.000023  0.117325
  1H   1s        -0.012952  0.000033 -0.167392  0.051137  0.000011 -0.044637
  1H   2s         2.044718 -0.000137 -0.356917 -0.088502 -0.000473  3.165357
  1H   3s         0.291016 -0.000033  0.058904  0.018764 -0.000038  0.274415
  1H   1pz        0.000081  0.051665  0.000018  0.000016 -0.137607  0.000033
  1H   1px        0.445250 -0.000136  0.561487 -0.080635  0.000030 -0.422574
  1H   1py       -0.195924 -0.000045  0.205866  0.395939  0.000105 -0.116146
  1H   2pz       -0.000080 -0.538592 -0.000140  0.000114 -0.330231 -0.000083
  1H   2px       -1.543086  0.000239 -0.257268  0.150582  0.000347 -1.968147
  1H   2py       -0.081809 -0.000082  0.278449 -0.702396 -0.000196  0.251121
  1H   1dz2      -0.165079  0.000027  0.066992  0.004774  0.000105 -0.744176
  1H   1dxz       0.000043  0.889740  0.000248 -0.000182  0.717648  0.000113
  1H   1dyz      -0.000015  0.226412  0.000058  0.000024 -0.062887 -0.000005
  1H   1dx2y2     0.271831 -0.000180  0.425494  0.301667 -0.000037  0.826659
  1H   1dxy       0.232554  0.000132 -0.518645  0.714542  0.000203 -0.300476
  2H   1s        -0.013766  0.000029 -0.167639 -0.051140 -0.000014  0.044024
  2H   2s         2.053256 -0.000120 -0.357569  0.091759  0.000463 -3.160849
  2H   3s         0.292757 -0.000033  0.058855 -0.018509  0.000038 -0.274096
  2H   1pz       -0.000080 -0.051509 -0.000012  0.000021 -0.137976  0.000032
  2H   1px       -0.334071 -0.000005  0.007040 -0.400322 -0.000093 -0.032448
  2H   1py        0.356534 -0.000144  0.598441 -0.056404 -0.000059  0.436442
  2H   2pz        0.000078  0.538782  0.000139  0.000104 -0.330918 -0.000081
  2H   2px        0.440032 -0.000139  0.348192  0.713104  0.000302 -0.893567
  2H   2py       -1.489204  0.000191 -0.149480  0.090892 -0.000259  1.768238
  2H   1dz2      -0.167229  0.000018  0.067287 -0.005285 -0.000105  0.742666
  2H   1dxz       0.000029  0.083363  0.000033  0.000079 -0.298984 -0.000042
  2H   1dyz      -0.000034 -0.914243 -0.000255 -0.000150  0.656537  0.000102
  2H   1dx2y2    -0.359493  0.000066 -0.004340  0.683493  0.000100  0.450878
  2H   1dxy       0.009615  0.000212 -0.671018 -0.365840 -0.000186  0.754040
                     42        43        44        45        46        47   
                   4.74629   4.82942   5.09180   5.60341   6.10411   6.40414
                   0.00000   0.00000   0.00000   0.00000   0.00000   0.00000
                  --------  --------  --------  --------  --------  --------
  0O   1s         0.249903  0.077928 -0.000104 -0.000001 -0.451068  0.000005
  0O   2s         1.027624 -0.362672  0.000003 -0.000000 -0.667824  0.000006
  0O   3s         0.723527 -0.592007  0.000172  0.000001  0.189783 -0.000004
  0O   4s         3.176644 -3.704082  0.001174  0.000003 -0.537358 -0.000001
  0O   1pz       -0.000000 -0.000000  0.000008 -0.049365 -0.000001 -0.168147
  0O   1px        0.203619  0.344771 -0.572713 -0.000011 -0.229294  0.000007
  0O   1py        0.288901  0.488112  0.404642  0.000007 -0.324328 -0.000004
  0O   2pz        0.000001  0.000002 -0.000018  0.125236  0.000001  0.472793
  0O   2px        0.423386 -1.281228  2.117238  0.000034  0.442762 -0.000008
  0O   2py        0.605576 -1.813764 -1.495547 -0.000021  0.624559  0.000003
  0O   3pz       -0.000000  0.000000 -0.000014 -0.020941  0.000000 -0.110496
  0O   3px        0.469352 -0.592751  0.836097  0.000016 -0.076490 -0.000001
  0O   3py        0.668205 -0.838996 -0.590505 -0.000010 -0.109255  0.000000
  0O   1dz2       0.115178 -0.113948  0.000129  0.000000 -0.321510  0.000001
  0O   1dxz       0.000008 -0.000004 -0.000006  0.094538  0.000009  0.618922
  0O   1dyz      -0.000006  0.000002 -0.000008  0.133607 -0.000006  0.822105
  0O   1dx2y2    -0.037324 -0.005615 -0.192475 -0.000001 -0.058803  0.000012
  0O   1dxy       0.106639  0.015724 -0.068161 -0.000000  0.165929  0.000010
  0O   2dz2      -0.570633  0.632656 -0.000361 -0.000000 -0.076643  0.000002
  0O   2dxz      -0.000034  0.000016 -0.000005  0.062660  0.000001 -0.198088
  0O   2dyz       0.000025 -0.000010 -0.000006  0.088534  0.000000 -0.256765
  0O   2dx2y2     0.261286  0.190482  1.176016  0.000017 -0.251453 -0.000015
  0O   2dxy      -0.743775 -0.536518  0.416360  0.000008  0.711463 -0.000009
  0O   1f0        0.000001  0.000001 -0.000002 -0.249671 -0.000002 -0.430605
  0O   1f+1      -0.239509 -0.171290  0.449908  0.000011 -0.506112  0.000018
  0O   1f-1      -0.339582 -0.242585 -0.317765 -0.000009 -0.716474 -0.000009
  0O   1f+2       0.000009 -0.000011  0.000006 -0.332215  0.000006  0.104549
  0O   1f-2       0.000003 -0.000003 -0.000019  0.938473  0.000000 -0.275671
  0O   1f+3      -0.173711  0.223192  0.012018 -0.000002  0.062429  0.000002
  0O   1f-3       0.049149 -0.062923  0.043069 -0.000008 -0.018001 -0.000012
  1H   1s        -0.024121  0.143070 -0.286296 -0.000006 -0.411095  0.000020
  1H   2s        -2.168051  2.249398 -2.230598 -0.000033  0.622128 -0.000019
  1H   3s        -0.115377  0.110829 -0.022716 -0.000003  0.017431 -0.000007
  1H   1pz       -0.000013  0.000016 -0.000015 -0.059700  0.000000 -0.229142
  1H   1px        0.404143 -0.604427  0.601888  0.000007  0.393264 -0.000014
  1H   1py        0.266561  0.214306  0.003844 -0.000006 -0.391020 -0.000002
  1H   2pz        0.000019 -0.000021  0.000026  0.001993 -0.000006  0.044600
  1H   2px        1.144607 -0.939490  1.104312  0.000022 -0.542786  0.000029
  1H   2py        0.177404  0.252582  0.222414  0.000010 -0.236383 -0.000010
  1H   1dz2       0.523625 -0.068546 -0.006417 -0.000004  0.021722  0.000005
  1H   1dxz      -0.000045  0.000023 -0.000006  0.094479  0.000004  0.335438
  1H   1dyz      -0.000010 -0.000001  0.000002 -0.330039  0.000004  0.113395
  1H   1dx2y2    -0.684289  0.533095 -0.428038 -0.000008  0.178936 -0.000005
  1H   1dxy      -0.382170 -0.459335 -0.271141 -0.000000  0.570487  0.000010
  2H   1s        -0.024872  0.144208  0.286894  0.000005 -0.411325 -0.000013
  2H   2s        -2.178488  2.250154  2.228978  0.000032  0.625221  0.000014
  2H   3s        -0.116035  0.110705  0.022652  0.000003  0.017525  0.000008
  2H   1pz        0.000013 -0.000015 -0.000015 -0.059653 -0.000002 -0.223138
  2H   1px        0.115872  0.404335  0.197132  0.000007 -0.499783 -0.000001
  2H   1py        0.472269 -0.499042 -0.568371 -0.000005  0.239671  0.000008
  2H   2pz       -0.000019  0.000020  0.000026  0.002011  0.000004  0.038613
  2H   2px       -0.216619  0.551326  0.158445 -0.000004 -0.041125  0.000020
  2H   2py        1.143464 -0.800908 -1.114114 -0.000023 -0.592189 -0.000018
  2H   1dz2       0.525643 -0.067988  0.006961  0.000004  0.021491 -0.000004
  2H   1dxz      -0.000006  0.000008  0.000005 -0.342850 -0.000002  0.000703
  2H   1dyz       0.000047 -0.000018 -0.000005 -0.021242 -0.000003  0.344686
  2H   1dx2y2     0.774424 -0.125263 -0.502521 -0.000007 -0.498588  0.000003
  2H   1dxy       0.135275 -0.692144 -0.057983 -0.000002  0.330147 -0.000011
                     48        49        50        51        52        53   
                   6.41382   6.50122   6.53492   6.57141   6.66669   6.77526
                   0.00000   0.00000   0.00000   0.00000   0.00000   0.00000
                  --------  --------  --------  --------  --------  --------
  0O   1s        -0.000015  0.538044 -0.000003 -0.002122  0.407686 -0.000042
  0O   2s        -0.000021  0.715929 -0.000004 -0.002892  0.468636 -0.000049
  0O   3s         0.000010 -0.400912  0.000002  0.001424 -0.487532  0.000047
  0O   4s         0.000029 -0.180444  0.000005  0.001076  1.305410 -0.000040
  0O   1pz        0.003820 -0.000002 -0.318775  0.000002  0.000001 -0.000497
  0O   1px        0.000000  0.025504 -0.000004  0.502125 -0.145579  0.000010
  0O   1py       -0.000002  0.030722  0.000002 -0.355116 -0.205039  0.000009
  0O   2pz       -0.010772  0.000005  0.943441 -0.000009 -0.000003  0.001852
  0O   2px       -0.000005 -0.011109  0.000006 -1.410110  0.389521 -0.000023
  0O   2py       -0.000000 -0.000330 -0.000004  0.996350  0.548236 -0.000017
  0O   3pz        0.003767  0.000004  0.321914  0.000006 -0.000001  0.000251
  0O   3px        0.000005 -0.086096 -0.000008 -0.512089  0.450902 -0.000024
  0O   3py        0.000011 -0.115686  0.000009  0.363239  0.637083 -0.000028
  0O   1dz2      -0.000005  0.050554  0.000002  0.000355  0.887910 -0.000054
  0O   1dxz       0.929186  0.000037 -0.334551 -0.000018  0.000011  0.231435
  0O   1dyz      -0.692379 -0.000043 -0.468035 -0.000017 -0.000006 -0.162935
  0O   1dx2y2     0.000019 -0.327660  0.000016  0.251375  0.145219 -0.000006
  0O   1dxy      -0.000052  0.929273 -0.000006  0.082889 -0.411200  0.000021
  0O   2dz2      -0.000001  0.180842 -0.000003 -0.001164 -0.642624  0.000031
  0O   2dxz      -0.429317 -0.000022  0.615998  0.000010 -0.000057 -0.926445
  0O   2dyz       0.317014  0.000031  0.868129  0.000004  0.000037  0.655954
  0O   2dx2y2    -0.000008  0.112555 -0.000004 -0.805109 -0.340094  0.000016
  0O   2dxy       0.000020 -0.330521  0.000004 -0.282534  0.963192 -0.000060
  0O   1f0        0.009175 -0.000007 -1.038570  0.000005  0.000003 -0.001505
  0O   1f+1       0.000002  0.121610 -0.000010  0.655532 -0.168687  0.000012
  0O   1f-1      -0.000000  0.165059  0.000005 -0.464519 -0.237368  0.000010
  0O   1f+2       0.186830 -0.000003  0.076840  0.000005 -0.000079 -1.197116
  0O   1f-2       0.073902 -0.000001 -0.215497  0.000000 -0.000027 -0.424363
  0O   1f+3      -0.000012  0.559194 -0.000005 -0.202211  0.585860 -0.000048
  0O   1f-3       0.000001 -0.161800 -0.000003 -0.708808 -0.164499  0.000011
  1H   1s        -0.000003  0.327551 -0.000014  0.570781  0.113624 -0.000007
  1H   2s        -0.000001 -0.191006  0.000018  0.790613 -0.960162  0.000041
  1H   3s        -0.000005  0.024001  0.000006 -0.001954  0.005011 -0.000002
  1H   1pz       -0.094552 -0.000003 -0.398078  0.000003  0.000032  0.490661
  1H   1px        0.000004 -0.323690  0.000008 -0.502820 -0.101670  0.000016
  1H   1py        0.000005 -0.138818 -0.000000 -0.299383 -0.337657  0.000021
  1H   2pz        0.118702  0.000006 -0.429057 -0.000007  0.000024  0.348328
  1H   2px        0.000001  0.308067 -0.000005 -0.188628  0.402574 -0.000031
  1H   2py       -0.000009  0.167344 -0.000001 -0.290849 -0.304957  0.000015
  1H   1dz2      -0.000003  0.041979  0.000001 -0.056516  0.083072 -0.000005
  1H   1dxz       0.173572  0.000005  0.647558 -0.000006 -0.000047 -0.695271
  1H   1dyz      -0.046451 -0.000004 -0.029668  0.000002 -0.000001 -0.062321
  1H   1dx2y2     0.000003 -0.064855  0.000005 -0.093468  0.061807 -0.000010
  1H   1dxy      -0.000009  0.165729 -0.000003  0.546642  0.402328 -0.000022
  2H   1s        -0.000004  0.322432  0.000010 -0.573859  0.114919 -0.000013
  2H   2s        -0.000005 -0.200620 -0.000019 -0.789306 -0.959431  0.000032
  2H   3s        -0.000006  0.023914 -0.000007  0.001770  0.004986 -0.000002
  2H   1pz        0.105082 -0.000000 -0.398163  0.000007 -0.000030 -0.492395
  2H   1px        0.000004 -0.021715  0.000003  0.114857 -0.284801  0.000015
  2H   1py        0.000007 -0.345710 -0.000003  0.576577 -0.209772  0.000028
  2H   2pz       -0.122913 -0.000016 -0.428103 -0.000004 -0.000021 -0.349301
  2H   2px       -0.000007  0.056754 -0.000004  0.210329 -0.422508  0.000026
  2H   2py        0.000000  0.349999  0.000001  0.271614  0.277415 -0.000021
  2H   1dz2      -0.000003  0.042891 -0.000001  0.056127  0.083112 -0.000005
  2H   1dxz       0.100875  0.000000 -0.244295  0.000005 -0.000013 -0.173888
  2H   1dyz      -0.164435  0.000003  0.600235 -0.000009  0.000040  0.678203
  2H   1dx2y2     0.000005 -0.051005  0.000003  0.271378 -0.301756  0.000024
  2H   1dxy      -0.000011  0.165055  0.000002 -0.485531  0.274749 -0.000015
                     54        55        56        57   
                   6.95782   7.29164   7.74875  12.07399
                   0.00000   0.00000   0.00000   0.00000
                  --------  --------  --------  --------
  0O   1s         0.328145 -0.000173  0.000221  3.730378
  0O   2s         0.642700 -0.000428  0.000016  5.815818
  0O   3s         0.125843 -0.000283 -0.000812 -2.628644
  0O   4s        -1.124505 -0.000193  0.000061  3.582434
  0O   1pz        0.000000 -0.000001  0.000006  0.000000
  0O   1px        0.095308  0.367233 -0.319401 -0.205923
  0O   1py        0.135255 -0.259849  0.225471 -0.291421
  0O   2pz       -0.000001  0.000001 -0.000020 -0.000000
  0O   2px        0.047076 -0.794981  2.237813  1.541177
  0O   2py        0.065500  0.562254 -1.581800  2.184340
  0O   3pz       -0.000000  0.000004 -0.000009  0.000000
  0O   3px       -0.163133 -0.565291  0.494635  0.652824
  0O   3py       -0.230562  0.399466 -0.349506  0.925331
  0O   1dz2      -0.737927  0.000270  0.000272 -0.254812
  0O   1dxz      -0.000011 -0.000004  0.000001  0.000001
  0O   1dyz       0.000007 -0.000006  0.000002 -0.000000
  0O   1dx2y2     0.179219  0.614173  1.010134  0.023288
  0O   1dxy      -0.504997  0.217905  0.357736 -0.067059
  0O   2dz2       0.747708 -0.000295 -0.000235 -0.982529
  0O   2dxz       0.000003  0.000005 -0.000011 -0.000005
  0O   2dyz      -0.000002  0.000006 -0.000015  0.000004
  0O   2dx2y2    -0.335430 -1.577669  0.834243  0.224468
  0O   2dxy       0.946469 -0.558513  0.294908 -0.636044
  0O   1f0        0.000001 -0.000001  0.000014  0.000000
  0O   1f+1       0.089811  0.349855 -0.364619 -0.170548
  0O   1f-1       0.127460 -0.247584  0.257739 -0.241644
  0O   1f+2      -0.000005 -0.000000 -0.000001 -0.000003
  0O   1f-2      -0.000001  0.000005  0.000003 -0.000001
  0O   1f+3       0.823071  0.294440 -0.132294 -0.713971
  0O   1f-3      -0.231455  1.044430 -0.468051  0.201567
  1H   1s         0.505118  0.850623 -0.485582 -0.506592
  1H   2s         0.173538  0.720036 -2.174981 -3.574040
  1H   3s         0.088932  0.055185  0.084460  0.098960
  1H   1pz        0.000002  0.000000  0.000002 -0.000001
  1H   1px       -0.148323 -0.549570  1.061496  1.094054
  1H   1py       -0.283486  0.287496 -0.011691  0.153311
  1H   2pz       -0.000002 -0.000005  0.000013  0.000005
  1H   2px        0.127773 -0.131166  1.114310  1.810393
  1H   2py       -0.162033  0.047162 -0.026896  0.159575
  1H   1dz2       0.143420  0.149639  0.408078  0.435404
  1H   1dxz      -0.000008 -0.000001 -0.000017 -0.000004
  1H   1dyz       0.000001 -0.000003  0.000000 -0.000001
  1H   1dx2y2    -0.307447 -0.023080 -0.630531 -0.788138
  1H   1dxy       0.261253 -0.363108  0.073751 -0.205271
  2H   1s         0.505368 -0.851847  0.486422 -0.508225
  2H   2s         0.173147 -0.718876  2.174738 -3.578785
  2H   3s         0.088891 -0.055275 -0.084423  0.098813
  2H   1pz       -0.000002  0.000001  0.000001  0.000001
  2H   1px       -0.218417 -0.454755  0.365668 -0.221001
  2H   1py       -0.234482  0.421738 -0.996963  1.083897
  2H   2pz        0.000003 -0.000005  0.000013 -0.000005
  2H   2px       -0.195787 -0.088051  0.397332 -0.454390
  2H   2py        0.066520  0.106954 -1.040957  1.761830
  2H   1dz2       0.143367 -0.150081 -0.407907  0.435648
  2H   1dxz      -0.000003 -0.000002  0.000006 -0.000001
  2H   1dyz       0.000006 -0.000003 -0.000015  0.000004
  2H   1dx2y2     0.074282 -0.247307 -0.443190  0.741985
  2H   1dxy       0.397128  0.267466 -0.454163  0.336625



                    ********************************
                    * MULLIKEN POPULATION ANALYSIS *
[...]
      py      :     1.467782
      dz2     :     0.003855  d :     0.014964
      dxz     :     0.000603
      dyz     :     0.001208
      dx2y2   :     0.007903
      dxy     :     0.001395
      f0      :     0.000105  f :     0.000642
      f+1     :     0.000211
      f-1     :     0.000194
      f+2     :     0.000001
      f-2     :     0.000008
      f+3     :     0.000151
      f-3     :    -0.000027
  1 H s       :     0.658199  s :     0.658199
      pz      :     0.032268  p :     0.081305
      px      :     0.027199
      py      :     0.021838
      dz2     :     0.000648  d :     0.007025
      dxz     :     0.002711
      dyz     :    -0.000001
      dx2y2   :     0.001732
      dxy     :     0.001935
  2 H s       :     0.658135  s :     0.658135
      pz      :     0.032271  p :     0.081302
      px      :     0.017614
      py      :     0.031416
      dz2     :     0.000647  d :     0.007024
      dxz     :     0.000285
      dyz     :     0.002426
      dx2y2   :     0.002280
      dxy     :     0.001385


                     *******************************
                     * LOEWDIN POPULATION ANALYSIS *
                     *******************************

----------------------
LOEWDIN ATOMIC CHARGES
----------------------
   0 O :    0.338430
   1 H :   -0.169246
   2 H :   -0.169184

-------------------------------
LOEWDIN REDUCED ORBITAL CHARGES
-------------------------------
  0 O s       :     3.177638  s :     3.177638
      pz      :     1.695292  p :     4.446799
      px      :     1.327579
      py      :     1.423928
      dz2     :     0.005747  d :     0.033940
      dxz     :     0.000243
      dyz     :     0.000486
      dx2y2   :     0.021858
      dxy     :     0.005606
      f0      :     0.000436  f :     0.003194
      f+1     :     0.000309
      f-1     :     0.000219
      f+2     :     0.000005
      f-2     :     0.000037
      f+3     :     0.001284
      f-3     :     0.000904
  1 H s       :     0.710572  s :     0.710572
      pz      :     0.115360  p :     0.361311
      px      :     0.162504
      py      :     0.083446
      dz2     :     0.007686  d :     0.097363
      dxz     :     0.036353
      dyz     :     0.000046
      dx2y2   :     0.023739
      dxy     :     0.029539
  2 H s       :     0.710554  s :     0.710554
      pz      :     0.115350  p :     0.361280
      px      :     0.075472
      py      :     0.170457
      dz2     :     0.007686  d :     0.097350
      dxz     :     0.003282
      dyz     :     0.033110
      dx2y2   :     0.029736
      dxy     :     0.023536


                      *****************************
                      * MAYER POPULATION ANALYSIS *
                      *****************************

  NA   - Mulliken gross atomic population
  ZA   - Total nuclear charge
  QA   - Mulliken gross atomic charge
  VA   - Mayer's total valence
  BVA  - Mayer's bonded valence
  FA   - Mayer's free valence

  ATOM       NA         ZA         QA         VA         BVA        FA
  0 O      8.5070     8.0000    -0.5070     1.9890     1.9890     0.0000
  1 H      0.7465     1.0000     0.2535     1.0049     1.0049    -0.0000
  2 H      0.7465     1.0000     0.2535     1.0049     1.0049     0.0000

  Mayer bond orders larger than 0.100000
B(  0-O ,  1-H ) :   0.9945 B(  0-O ,  2-H ) :   0.9945 

-------
TIMINGS
-------

Total SCF time: 0 days 0 hours 0 min 3 sec 

Total time                  ....       3.445 sec
Sum of individual times     ....       3.002 sec  ( 87.2%)

Fock matrix formation       ....       2.451 sec  ( 71.1%)
  XC integration            ....       0.175 sec  (  7.1% of F)
    Basis function eval.    ....       0.038 sec  ( 22.1% of XC)
    Density eval.           ....       0.025 sec  ( 14.5% of XC)
    XC-Functional eval.     ....       0.019 sec  ( 11.0% of XC)
    XC-Potential eval.      ....       0.027 sec  ( 15.4% of XC)
Diagonalization             ....       0.002 sec  (  0.1%)
Density matrix formation    ....       0.004 sec  (  0.1%)
Population analysis         ....       0.009 sec  (  0.2%)
Initial guess               ....       0.002 sec  (  0.1%)
Orbital Transformation      ....       0.000 sec  (  0.0%)
Orbital Orthonormalization  ....       0.001 sec  (  0.0%)
DIIS solution               ....       0.000 sec  (  0.0%)
SOSCF solution              ....       0.005 sec  (  0.1%)
Grid generation             ....       0.530 sec  ( 15.4%)


-------------------------------------------------------------------------------
                          DFT DISPERSION CORRECTION                            
                                                                               
                              DFTD3 V3.1  Rev 1                                
                          USING Becke-Johnson damping                          
-------------------------------------------------------------------------------
The B3LYP functional is recognized
Active option DFTDOPT                   ...         4   

molecular C6(AA) [au] = 44.534925 


            DFT-D V3
 parameters
 s6 scaling factor         :     1.0000 
 a1 scaling factor         :     0.3981 
 s8 scaling factor         :     1.9889 
 a2 scaling factor         :     4.4211 
 ad hoc parameters k1-k3   :    16.0000     1.3333    -4.0000 

 Edisp/kcal,au: -0.360125274083  -0.000573896093 
 E6   /kcal   :  -0.196937617 
 E8   /kcal   :  -0.163187657 
 % E8         :  45.314136145 

-------------------------   ----------------
Dispersion correction           -0.000573896
-------------------------   ----------------


-------------------------   --------------------
FINAL SINGLE POINT ENERGY       -76.430563316268
-------------------------   --------------------

                                *** OPTIMIZATION RUN DONE ***

                            ***************************************
                            *     ORCA property calculations      *
                            ***************************************

                                    ---------------------
                                    Active property flags
                                    ---------------------
   (+) Dipole Moment


------------------------------------------------------------------------------
                       ORCA ELECTRIC PROPERTIES CALCULATION
------------------------------------------------------------------------------

Dipole Moment Calculation                       ... on
Quadrupole Moment Calculation                   ... off
Polarizability Calculation                      ... off
GBWName                                         ... /tmp/slurm-scratch/opt+freq.215/opt+freq.gbw
Electron density file                           ... /tmp/slurm-scratch/opt+freq.215/opt+freq.scfp
The origin for moment calculation is the CENTER OF MASS  = ( 1.602532,  0.350557  0.000000)

-------------
DIPOLE MOMENT
-------------
                                X             Y             Z
Electronic contribution:     -0.07786      -0.11021      -0.00000
Nuclear contribution   :      0.57018       0.80689       0.00000
                        -----------------------------------------
Total Dipole Moment    :      0.49232       0.69668      -0.00000
                        -----------------------------------------
Magnitude (a.u.)       :      0.85308
Magnitude (Debye)      :      2.16836



--------------------
Rotational spectrum 
--------------------
 
Rotational constants in cm-1:    26.730030    14.471601     9.388617 
Rotational constants in MHz : 801346.144624 433847.688295 281463.656232 

 Dipole components along the rotational axes: 
x,y,z [a.u.] :     0.000059     0.853081    -0.000001 
x,y,z [Debye]:     0.000150     2.168360    -0.000003 

 


           ************************************************************
           *        Program running with 8 parallel MPI-processes     *
           *              working on a common directory               *
           ************************************************************

-------------------------------------------------------------------------------
                               ORCA SCF HESSIAN
-------------------------------------------------------------------------------

Hessian of the Kohn-Sham DFT energy:
Kohn-Sham wavefunction type                      ... RKS
Hartree-Fock exchange scaling                    ...    0.200
Number of operators                              ...    1
Number of atoms                                  ...    3
Basis set dimensions                             ...   58
Integral neglect threshold                       ... 2.5e-11
Integral primitive cutoff                        ... 2.5e-12

Setting up DFT Hessian calculations              ... 
Electron density on the grid                     ... found on disk
Electron density on the final grid               ... found on disk
Building xc-kernel on the grid                   ... done   (      0.0 sec)
Building xc-kernel on the final grid             ... done   (      0.0 sec)
                                                     done   (      0.2 sec)

Nuclear repulsion Hessian                        ... done   (      0.0 sec)

----------------------------------------------
Forming right-hand sides of CP-SCF equations     ...
----------------------------------------------
One electron integral derivatives                ... done   (      1.2 sec)
Transforming the overlap derivative matrices     ... done   (      0.0 sec)
Adding tr(S(x)F(y) C-PCM term to the hessian     ... done   (      0.4 sec)
Making the Q(x) pseudodensities                  ... done   (      0.0 sec)
Adding the E*S(x)*S(y) terms to the Hessian      ... done   (      0.0 sec)
Calculating energy weighted overlap derivatives  ... done   (      0.0 sec)
Two electron integral derivatives                ... done   (      0.6 sec)
Exchange-correlation integral derivatives        ... done   (      0.7 sec)
tr(F(y)Q(x)) contribution to the Hessian         ... done   (      0.0 sec)
Response fock operator R(S(x))                   ... done   (      4.1 sec)
XC Response fock operator R(S(x))                ... done   (      0.2 sec)
tr(F(y)S(x)) contribution to the Hessian         ... done   (      0.0 sec)
Transforming and finalizing RHSs                 ... done   (      0.0 sec)

----------------------------------------------
Solving the CP-SCF equations                     ...
----------------------------------------------
     CP-SCF ITERATION   0: 
     CP-SCF ITERATION   1:      0.001032657450
     CP-SCF ITERATION   2:      0.000012504060
     CP-SCF ITERATION   3:      0.000000222796
     CP-SCF ITERATION   4:      0.000000005570

                                                 ... done   (      5.2 sec)
Forming perturbed density Hessian contributions  ... done   (      0.0 sec)
Making the perturbed densities                   ... done   (      0.0 sec)
Calculating [Q*(d^2 A/dXdY)*Q  ] C-PCM term      ... done   (      0.0 sec)
Calculating [d^2(V_N)/(dXdY)*Q ] C-PCM term      ... done   (      0.0 sec)
Calculating [d^2(V_el)/(dXdY)*Q] C-PCM term      ... done   (      0.1 sec)
Calculating C-PCM term that depends on dQ/dX     ... done   (      0.0 sec)
2nd integral derivative contribs                 ... done   (      1.7 sec)
Exchange-correlation Hessian                     ... done   (      0.6 sec)
Dispersion correction in the Hessian             ... done   (      0.3 sec)
Dipol derivatives                                ... done   (      0.2 sec)

Total SCF Hessian time: 0 days 0 hours 0 min 16 sec 

Writing the Hessian file to the disk             ... done


Maximum memory used throughout the entire calculation: 158.1 MB

-----------------------
VIBRATIONAL FREQUENCIES
-----------------------

Scaling factor for frequencies =  1.000000000  (already applied!)

   0:         0.00 cm**-1
   1:         0.00 cm**-1
   2:         0.00 cm**-1
   3:         0.00 cm**-1
   4:         0.00 cm**-1
   5:         0.00 cm**-1
   6:      1604.39 cm**-1
   7:      3752.32 cm**-1
   8:      3835.23 cm**-1


------------
NORMAL MODES
------------

These modes are the Cartesian displacements weighted by the diagonal matrix
M(i,i)=1/sqrt(m[i]) where m[i] is the mass of the displaced atom
Thus, these vectors are normalized but *not* orthogonal

                  0          1          2          3          4          5    
      0       0.000000   0.000000   0.000000   0.000000   0.000000   0.000000
      1       0.000000   0.000000   0.000000   0.000000   0.000000   0.000000
      2       0.000000   0.000000   0.000000   0.000000   0.000000   0.000000
      3       0.000000   0.000000   0.000000   0.000000   0.000000   0.000000
      4       0.000000   0.000000   0.000000   0.000000   0.000000   0.000000
      5       0.000000   0.000000   0.000000   0.000000   0.000000   0.000000
      6       0.000000   0.000000   0.000000   0.000000   0.000000   0.000000
      7       0.000000   0.000000   0.000000   0.000000   0.000000   0.000000
      8       0.000000   0.000000   0.000000   0.000000   0.000000   0.000000
                   6          7          8    
      0       0.040718  -0.028602  -0.057362
      1       0.057621  -0.041081   0.040219
      2       0.000000   0.000000   0.000000
      3       0.027157   0.702581   0.708205
      4      -0.704835  -0.012728   0.033582
      5       0.000000   0.000000   0.000000
      6      -0.673431  -0.248604   0.202239
      7      -0.209719   0.664762  -0.671944
      8       0.000000   0.000000   0.000000


-----------
IR SPECTRUM
-----------

 Mode    freq (cm**-1)   T**2         TX         TY         TZ
-------------------------------------------------------------------
   6:      1604.39  101.011619  ( -5.801069  -8.207266  -0.000172)
   7:      3752.32   16.355748  (  2.313767   3.316960   0.001854)
   8:      3835.23   93.729727  (  7.928937  -5.555324   0.007389)

The first frequency considered to be a vibration is 6
The total number of vibrations considered is 3


--------------------------
THERMOCHEMISTRY AT 298.15K
--------------------------

Temperature         ... 298.15 K
Pressure            ... 1.00 atm
Total Mass          ... 18.02 AMU

Throughout the following assumptions are being made:
  (1) The electronic state is orbitally nondegenerate
  (2) There are no thermally accessible electronically excited states
  (3) Hindered rotations indicated by low frequency modes are not
      treated as such but are treated as vibrations and this may
      cause some error
  (4) All equations used are the standard statistical mechanics
      equations for an ideal gas
  (5) All vibrations are strictly harmonic

freq.    1604.39  E(vib)   ...       0.00 
freq.    3752.32  E(vib)   ...       0.00 
freq.    3835.23  E(vib)   ...       0.00 

------------
INNER ENERGY
------------

The inner energy is: U= E(el) + E(ZPE) + E(vib) + E(rot) + E(trans)
    E(el)   - is the total energy from the electronic structure calculation
              = E(kin-el) + E(nuc-el) + E(el-el) + E(nuc-nuc)
    E(ZPE)  - the the zero temperature vibrational energy from the frequency calculation
    E(vib)  - the the finite temperature correction to E(ZPE) due to population
              of excited vibrational states
    E(rot)  - is the rotational thermal energy
    E(trans)- is the translational thermal energy

Summary of contributions to the inner energy U:
Electronic energy                ...    -76.43056332 Eh
Zero point energy                ...      0.02094077 Eh      13.14 kcal/mol
Thermal vibrational correction   ...      0.00000318 Eh       0.00 kcal/mol
Thermal rotational correction    ...      0.00141627 Eh       0.89 kcal/mol
Thermal translational correction ...      0.00141627 Eh       0.89 kcal/mol
-----------------------------------------------------------------------
Total thermal energy                    -76.40678683 Eh


Summary of corrections to the electronic energy:
(perhaps to be used in another calculation)
Total thermal correction                  0.00283572 Eh       1.78 kcal/mol
Non-thermal (ZPE) correction              0.02094077 Eh      13.14 kcal/mol
-----------------------------------------------------------------------
Total correction                          0.02377649 Eh      14.92 kcal/mol


--------
ENTHALPY
--------

The enthalpy is H = U + kB*T
                kB is Boltzmann's constant
Total free energy                 ...    -76.40678683 Eh 
Thermal Enthalpy correction       ...      0.00094421 Eh       0.59 kcal/mol
-----------------------------------------------------------------------
Total Enthalpy                    ...    -76.40584262 Eh


Note: Rotational entropy computed according to Herzberg 
Infrared and Raman Spectra, Chapter V,1, Van Nostrand Reinhold, 1945 
Point Group:  Cs, Symmetry Number:   1  
Rotational constants in cm-1:    26.730030    14.471601     9.388617 

Vibrational entropy computed according to the QRRHO of S. Grimme
Chem.Eur.J. 2012 18 9955


-------
ENTROPY
-------

The entropy contributions are T*S = T*(S(el)+S(vib)+S(rot)+S(trans))
     S(el)   - electronic entropy
     S(vib)  - vibrational entropy
     S(rot)  - rotational entropy
     S(trans)- translational entropy
The entropies will be listed as mutliplied by the temperature to get
units of energy

Electronic entropy                ...      0.00000000 Eh      0.00 kcal/mol
Vibrational entropy               ...      0.00000359 Eh      0.00 kcal/mol
Rotational entropy                ...      0.00564086 Eh      3.54 kcal/mol
Translational entropy             ...      0.01644380 Eh     10.32 kcal/mol
-----------------------------------------------------------------------
Final entropy term                ...      0.02208825 Eh     13.86 kcal/mol

In case the symmetry of your molecule has not been determined correctly
or in case you have a reason to use a different symmetry number we print 
out the resulting rotational entropy values for sn=1,12 :
 --------------------------------------------------------
|  sn= 1 | S(rot)=       0.00564086 Eh      3.54 kcal/mol|
|  sn= 2 | S(rot)=       0.00498640 Eh      3.13 kcal/mol|
|  sn= 3 | S(rot)=       0.00460357 Eh      2.89 kcal/mol|
|  sn= 4 | S(rot)=       0.00433195 Eh      2.72 kcal/mol|
|  sn= 5 | S(rot)=       0.00412126 Eh      2.59 kcal/mol|
|  sn= 6 | S(rot)=       0.00394912 Eh      2.48 kcal/mol|
|  sn= 7 | S(rot)=       0.00380357 Eh      2.39 kcal/mol|
|  sn= 8 | S(rot)=       0.00367749 Eh      2.31 kcal/mol|
|  sn= 9 | S(rot)=       0.00356628 Eh      2.24 kcal/mol|
|  sn=10 | S(rot)=       0.00346680 Eh      2.18 kcal/mol|
|  sn=11 | S(rot)=       0.00337681 Eh      2.12 kcal/mol|
|  sn=12 | S(rot)=       0.00329466 Eh      2.07 kcal/mol|
 --------------------------------------------------------


-------------------
GIBBS FREE ENERGY
-------------------

The Gibbs free energy is G = H - T*S

Total enthalpy                    ...    -76.40584262 Eh 
Total entropy correction          ...     -0.02208825 Eh    -13.86 kcal/mol
-----------------------------------------------------------------------
Final Gibbs free energy         ...    -76.42793086 Eh

For completeness - the Gibbs free energy minus the electronic energy
G-E(el)                           ...      0.00263245 Eh      1.65 kcal/mol


Timings for individual modules:

Sum of individual times         ...       31.204 sec (=   0.520 min)
GTO integral calculation        ...        1.678 sec (=   0.028 min)   5.4 %
SCF iterations                  ...       11.633 sec (=   0.194 min)  37.3 %
SCF Gradient evaluation         ...        1.141 sec (=   0.019 min)   3.7 %
Geometry relaxation             ...        0.089 sec (=   0.001 min)   0.3 %
Analytical frequency calculation...       16.663 sec (=   0.278 min)  53.4 %
                             ****ORCA TERMINATED NORMALLY****
TOTAL RUN TIME: 0 days 0 hours 0 minutes 31 seconds 759 msec
(SLURM) EXECUTION TIME: 31.797402026 seconds.
