
                                 *****************
                                 * O   R   C   A *
                                 *****************

           --- An Ab Initio, DFT and Semiempirical electronic structure package ---

                  #######################################################
                  #                        -***-                        #
                  #          Department of theory and spectroscopy      #
                  #               Directorship: Frank Neese             #
                  #        Max Planck Institute fuer Kohlenforschung    #
                  #                Kaiser Wilhelm Platz 1               #
                  #                 D-45470 Muelheim/Ruhr               #
                  #                      Germany                        #
                  #                                                     #
                  #                  All rights reserved                #
                  #                        -***-                        #
                  #######################################################


                         Program Version 4.2.1 -  RELEASE  -


 With contributions from (in alphabetic order):
   Daniel Aravena         : Magnetic Suceptibility
   Michael Atanasov       : Ab Initio Ligand Field Theory (pilot matlab implementation)
   Alexander A. Auer      : GIAO ZORA, VPT2
   Ute Becker             : Parallelization
   Giovanni Bistoni       : ED, misc. LED, open-shell LED, HFLD
   Martin Brehm           : Molecular dynamics
   Dmytro Bykov           : SCF Hessian
   Vijay G. Chilkuri      : MRCI spin determinant printing, contributions to CSF-ICE
   Dipayan Datta          : RHF DLPNO-CCSD density
   Achintya Kumar Dutta   : EOM-CC, STEOM-CC
   Dmitry Ganyushin       : Spin-Orbit,Spin-Spin,Magnetic field MRCI
   Miquel Garcia          : C-PCM Hessian, Gaussian charge scheme
   Yang Guo               : DLPNO-NEVPT2, CIM, IAO-localization
   Andreas Hansen         : Spin unrestricted coupled pair/coupled cluster methods
   Benjamin Helmich-Paris : CASSCF linear response (MC-RPA)
   Lee Huntington         : MR-EOM, pCC
   Robert Izsak           : Overlap fitted RIJCOSX, COSX-SCS-MP3, EOM
   Christian Kollmar      : KDIIS, OOCD, Brueckner-CCSD(T), CCSD density
   Simone Kossmann        : Meta GGA functionals, TD-DFT gradient, OOMP2, MP2 Hessian
   Martin Krupicka        : AUTO-CI
   Lucas Lang             : DCDCAS
   Dagmar Lenk            : GEPOL surface, SMD
   Dimitrios Liakos       : Extrapolation schemes; Compound Job, initial MDCI parallelization
   Dimitrios Manganas     : Further ROCIS development; embedding schemes
   Dimitrios Pantazis     : SARC Basis sets
   Taras Petrenko         : DFT Hessian,TD-DFT gradient, ASA, ECA, R-Raman, ABS, FL, XAS/XES, NRVS
   Peter Pinski           : DLPNO-MP2, DLPNO-MP2 Gradient
   Christoph Reimann      : Effective Core Potentials
   Marius Retegan         : Local ZFS, SOC
   Christoph Riplinger    : Optimizer, TS searches, QM/MM, DLPNO-CCSD(T), (RO)-DLPNO pert. Triples
   Tobias Risthaus        : Range-separated hybrids, TD-DFT gradient, RPA, STAB
   Michael Roemelt        : Original ROCIS implementation
   Masaaki Saitow         : Open-shell DLPNO-CCSD energy and density
   Barbara Sandhoefer     : DKH picture change effects
   Avijit Sen             : IP-ROCIS
   Kantharuban Sivalingam : CASSCF convergence, NEVPT2, FIC-MRCI
   Bernardo de Souza      : ESD, SOC TD-DFT
   Georgi Stoychev        : AutoAux, RI-MP2 NMR
   Willem Van den Heuvel  : Paramagnetic NMR
   Boris Wezisla          : Elementary symmetry handling
   Frank Wennmohs         : Technical directorship


 We gratefully acknowledge several colleagues who have allowed us to
 interface, adapt or use parts of their codes:
   Stefan Grimme, W. Hujo, H. Kruse,             : VdW corrections, initial TS optimization,
                  C. Bannwarth                     DFT functionals, gCP, sTDA/sTD-DF
   Ed Valeev, F. Pavosevic, A. Kumar             : LibInt (2-el integral package), F12 methods
   Garnet Chan, S. Sharma, J. Yang, R. Olivares  : DMRG
   Ulf Ekstrom                                   : XCFun DFT Library
   Mihaly Kallay                                 : mrcc  (arbitrary order and MRCC methods)
   Andreas Klamt, Michael Diedenhofen            : otool_cosmo (COSMO solvation model)
   Jiri Pittner, Ondrej Demel                    : Mk-CCSD
   Frank Weinhold                                : gennbo (NPA and NBO analysis)
   Christopher J. Cramer and Donald G. Truhlar   : smd solvation model
   Lars Goerigk                                  : TD-DFT with DH, B97 family of functionals
   V. Asgeirsson, H. Jonsson                     : NEB implementation
   FAccTs GmbH                                   : IRC, NEB, NEB-TS, Multilevel, MM, QM/MM, CI optimization
   S Lehtola, MJT Oliveira, MAL Marques          : LibXC Library


 Your calculation uses the libint2 library for the computation of 2-el integrals
 For citations please refer to: http://libint.valeyev.net

 Your ORCA version has been built with support for libXC version: 4.2.3
 For citations please refer to: https://tddft.org/programs/libxc/

 This ORCA versions uses:
   CBLAS   interface :  Fast vector & matrix operations
   LAPACKE interface :  Fast linear algebra routines
   SCALAPACK package :  Parallel linear algebra routines




***************************************
The coordinates will be read from file: init.xyz
***************************************


Your calculation utilizes the geometrical counterpoise correction gCP
Please cite in your paper:
H.Kruse, S. Grimme J.Chem.Phys., 136, (2012), 154101 
   

Your calculation utilizes the atom-pairwise dispersion correction
based on tight binding partial charges (D4)
Cite in your paper:
E.Caldeweyher, C.Bannwarth, S.Grimme, J.Chem.Phys., (2017), 147, 034112.
E.Caldeweyher, S.Ehlert, A.Hansen, H.Neugebauer, S.Grimme, J.Chem.Phys., (2018), in progress.
   

----- Orbital basis set information -----
Your calculation utilizes the basis: 6-311G(3df,3pd)
   H, Li - Ne  : R. Krishnan, J. S. Binkley, R. Seeger and J. A. Pople, J. Chem. Phys. 72, 650 (1980).
   Na - Ar     : A. D. McLean and G. S. Chandler J. Chem. Phys. 72, 5639, (1980).
   K  - Ca     : J.-P. Blaudeau, M. P. McGrath, L. A. Curtiss and L. Radom, J. Chem. Phys. 107, 5016 (1997).
   Ga - Kr     : L. A. Curtiss, M. P. McGrath, J.-P. Blandeau, N. E. Davis, R. C. Binning and L. Radom, J. Chem. Phys. 103, 6104 (1995).
   Pol./Diff.
   H, Li - Cl  : T. Clark, J. Chandrasekhar and P. v. R. Schleyer, J. Comp. Chem. 4, 294 (1983).
   H - Ne      : M. J. Frisch, J. A. Pople and J. S. Binkley, J. Chem. Phys. 80, 3265 (1984).

----- AuxJ basis set information -----
Your calculation utilizes the auxiliary basis: def2/J
   F. Weigend, Phys. Chem. Chem. Phys. 8, 1057 (2006).

================================================================================
                                        WARNINGS
                       Please study these warnings very carefully!
================================================================================


WARNING: Geometry Optimization
  ===> : Switching off AutoStart
         For restart on a previous wavefunction, please use MOREAD

INFO   : the flag for use of LIBINT has been found!

================================================================================
                                       INPUT FILE
================================================================================
NAME = NH3.inp
|  1> ! revPBE D4 gCP(DFT/TZ) 6-311G(3df,3pd) Opt Freq TightOpt TightSCF Grid4 FinalGrid5 PrintBasis PrintMOs NBO
|  2> 
|  3> %pal
|  4>  nprocs 12
|  5> end
|  6> 
|  7> *xyzfile 0 1 init.xyz
|  8> 
|  9>                          ****END OF INPUT****
================================================================================

                       *****************************
                       * Geometry Optimization Run *
                       *****************************

Geometry optimization settings:
Update method            Update   .... BFGS
Choice of coordinates    CoordSys .... Z-matrix Internals
Initial Hessian          InHess   .... Almoef's Model

Convergence Tolerances:
Energy Change            TolE     ....  1.0000e-06 Eh
Max. Gradient            TolMAXG  ....  1.0000e-04 Eh/bohr
RMS Gradient             TolRMSG  ....  3.0000e-05 Eh/bohr
Max. Displacement        TolMAXD  ....  1.0000e-03 bohr
RMS Displacement         TolRMSD  ....  6.0000e-04 bohr
Strict Convergence                ....  False
------------------------------------------------------------------------------
                        ORCA OPTIMIZATION COORDINATE SETUP
------------------------------------------------------------------------------

The optimization will be done in new redundant internal coordinates
Making redundant internal coordinates   ...  (new redundants) done
Evaluating the initial hessian          ...  (Almloef) done
Evaluating the coordinates              ...  done
Calculating the B-matrix                .... done
Calculating the G-matrix                .... done
Diagonalizing the G-matrix              .... done
The first mode is                       ....    1
The number of degrees of freedom        ....    6

    -----------------------------------------------------------------
                    Redundant Internal Coordinates


    -----------------------------------------------------------------
         Definition                    Initial Value    Approx d2E/dq
    -----------------------------------------------------------------
      1. B(H   1,N   0)                  1.0245         0.410301   
      2. B(H   2,N   0)                  1.0245         0.410299   
      3. B(H   3,N   0)                  1.0245         0.410295   
      4. A(H   1,N   0,H   3)          106.0430         0.298161   
      5. A(H   2,N   0,H   3)          106.0428         0.298161   
      6. A(H   1,N   0,H   2)          106.0428         0.298161   
      7. I(H   1,H   3,H   2,N   0)    -62.6495         0.003510   
    -----------------------------------------------------------------

Number of atoms                         .... 4
Number of degrees of freedom            .... 7

         *************************************************************
         *                GEOMETRY OPTIMIZATION CYCLE   1            *
         *************************************************************
---------------------------------
CARTESIAN COORDINATES (ANGSTROEM)
---------------------------------
  N     -2.448642   -2.762637    0.018060
  H     -1.425808   -2.814106   -0.008565
  H     -2.762267   -3.609817    0.501254
  H     -2.762273   -2.857770   -0.952579

----------------------------
CARTESIAN COORDINATES (A.U.)
----------------------------
  NO LB      ZA    FRAG     MASS         X           Y           Z
   0 N     7.0000    0    14.007   -4.627263   -5.220628    0.034128
   1 H     1.0000    0     1.008   -2.694387   -5.317889   -0.016185
   2 H     1.0000    0     1.008   -5.219928   -6.821565    0.947233
   3 H     1.0000    0     1.008   -5.219939   -5.400402   -1.800114

--------------------------------
INTERNAL COORDINATES (ANGSTROEM)
--------------------------------
 N      0   0   0     0.000000000000     0.00000000     0.00000000
 H      1   0   0     1.024474300771     0.00000000     0.00000000
 H      1   2   0     1.024475646575   106.04275333     0.00000000
 H      1   2   3     1.024477691820   106.04299652   247.54884755

---------------------------
INTERNAL COORDINATES (A.U.)
---------------------------
 N      0   0   0     0.000000000000     0.00000000     0.00000000
 H      1   0   0     1.935975859697     0.00000000     0.00000000
 H      1   2   0     1.935978402899   106.04275333     0.00000000
 H      1   2   3     1.935982267852   106.04299652   247.54884755

---------------------
BASIS SET INFORMATION
---------------------
There are 2 groups of distinct atoms

 Group   1 Type N   : 11s5p3d1f contracted to 4s3p3d1f pattern {6311/311/111/1}
 Group   2 Type H   : 5s3p1d contracted to 3s3p1d pattern {311/111/1}

Atom   0N    basis set group =>   1
Atom   1H    basis set group =>   2
Atom   2H    basis set group =>   2
Atom   3H    basis set group =>   2

-------------------------
BASIS SET IN INPUT FORMAT
-------------------------

 # Basis set for element : H 
 NewGTO H 
 S 3 
   1      33.8650000000      0.0254938145
   2       5.0947900000      0.1903731086
   3       1.1587900000      0.8521614860
 S 1 
   1       0.3258400000      1.0000000000
 S 1 
   1       0.1027410000      1.0000000000
 P 1 
   1       3.0000000000      1.0000000000
 P 1 
   1       0.7500000000      1.0000000000
 P 1 
   1       0.1875000000      1.0000000000
 D 1 
   1       1.0000000000      1.0000000000
  end;

 # Basis set for element : N 
 NewGTO N 
 S 6 
   1    6293.4800000000      0.0019697881
   2     949.0440000000      0.0149612859
   3     218.7760000000      0.0735005308
   4      63.6916000000      0.2489367658
   5      18.8282000000      0.6024594331
   6       2.7202300000      0.2562017589
 S 3 
   1      30.6331000000      0.1119060795
   2       7.0261400000      0.9216666549
   3       2.1120500000     -0.0025691918
 P 3 
   1      30.6331000000      0.0383119186
   2       7.0261400000      0.2374031155
   3       2.1120500000      0.8175923978
 S 1 
   1       0.6840090000      1.0000000000
 P 1 
   1       0.6840090000      1.0000000000
 S 1 
   1       0.2008780000      1.0000000000
 P 1 
   1       0.2008780000      1.0000000000
 D 1 
   1       3.6520000000      1.0000000000
 D 1 
   1       0.9130000000      1.0000000000
 D 1 
   1       0.2282500000      1.0000000000
 F 1 
   1       1.0000000000      1.0000000000
  end;

---------------------------------
AUXILIARY/J BASIS SET INFORMATION
---------------------------------
There are 2 groups of distinct atoms

 Group   1 Type N   : 12s5p4d2f1g contracted to 6s4p3d1f1g pattern {711111/2111/211/2/1}
 Group   2 Type H   : 5s2p1d contracted to 3s1p1d pattern {311/2/1}

Atom   0N    basis set group =>   1
Atom   1H    basis set group =>   2
Atom   2H    basis set group =>   2
Atom   3H    basis set group =>   2

-------------------------------------
AUXILIARY/J BASIS SET IN INPUT FORMAT
-------------------------------------

 # Auxiliary/J basis set for element : H 
 NewAuxJGTO H 
 S 3 
   1      15.6752927000      0.1007184237
   2       3.6063578000      0.3404257499
   3       1.2080016000      0.6491996172
 S 1 
   1       0.4726794000      1.0000000000
 S 1 
   1       0.2018100000      1.0000000000
 P 2 
   1       2.0281365000      0.5596620919
   2       0.5358730000      0.5596620919
 D 1 
   1       2.2165124000      1.0000000000
  end;

 # Auxiliary/J basis set for element : N 
 NewAuxJGTO N 
 S 7 
   1    2542.9401785000      0.0128431329
   2    1029.5472946000      0.0206655120
   3     424.9053546000      0.0652200677
   4     178.4573708000      0.1617388940
   5      76.1362742000      0.3094256941
   6      32.9338653000      0.3918849307
   7      14.4155436000      0.1822470660
 S 1 
   1       6.3718891000     -1.0000000000
 S 1 
   1       2.8381742000      1.0000000000
 S 1 
   1       1.2711793000      1.0000000000
 S 1 
   1       0.5712407000      1.0000000000
 S 1 
   1       0.2569887000      1.0000000000
 P 2 
   1      17.8975990000     -1.0974070137
   2       6.5346319000      0.1380055963
 P 1 
   1       2.3523645000      1.0000000000
 P 1 
   1       0.8397377000      1.0000000000
 P 1 
   1       0.2989335000      1.0000000000
 D 2 
   1       7.6909870000      0.1770780943
   2       2.3044972000      0.8918319220
 D 1 
   1       0.8403987000      1.0000000000
 D 1 
   1       0.3303797000      1.0000000000
 F 2 
   1       2.3331076000      0.6223178877
   2       0.8446137000      0.5036714203
 G 1 
   1       1.4037700000     -1.0000000000
  end;



           ************************************************************
           *        Program running with 12 parallel MPI-processes    *
           *              working on a common directory               *
           ************************************************************
------------------------------------------------------------------------------
                           ORCA GTO INTEGRAL CALCULATION
                           -- RI-GTO INTEGRALS CHOSEN --
------------------------------------------------------------------------------

                         BASIS SET STATISTICS AND STARTUP INFO

Gaussian basis set:
 # of primitive gaussian shells          ...   47
 # of primitive gaussian functions       ...  105
 # of contracted shells                  ...   32
 # of contracted basis functions         ...   86
 Highest angular momentum                ...    3
 Maximum contraction depth               ...    6
Auxiliary gaussian basis set:
 # of primitive gaussian shells          ...   48
 # of primitive gaussian functions       ...  118
 # of contracted shells                  ...   30
 # of contracted aux-basis functions     ...   82
 Highest angular momentum                ...    4
 Maximum contraction depth               ...    7
Ratio of auxiliary to basis functions    ...  0.95
Integral package used                  ... LIBINT
 One Electron integrals                  ... done
 Ordering auxiliary basis shells         ... done
 Integral threshhold             Thresh  ...  2.500e-11
 Primitive cut-off               TCut    ...  2.500e-12
 Pre-screening matrix                    ... done
 Shell pair data                         ... 
 Ordering of the shell pairs             ... done (   0.001 sec) 528 of 528 pairs
 Determination of significant pairs      ... done (   0.000 sec)
 Creation of shell pair data             ... done (   0.001 sec)
 Storage of shell pair data              ... done (   0.002 sec)
 Shell pair data done in (   0.008 sec)
 Computing two index integrals           ... done
 Cholesky decomposition of the V-matrix  ... done


Timings:
 Total evaluation time                   ...   0.221 sec (  0.004 min)
 One electron matrix time                ...   0.010 sec (  0.000 min) =  4.5%
 Schwartz matrix evaluation time         ...   0.163 sec (  0.003 min) = 73.4%
 Two index repulsion integral time       ...   0.005 sec (  0.000 min) =  2.3%
 Cholesky decomposition of V             ...   0.005 sec (  0.000 min) =  2.1%
 Three index repulsion integral time     ...   0.000 sec (  0.000 min) =  0.0%



           ************************************************************
           *        Program running with 12 parallel MPI-processes    *
           *              working on a common directory               *
           ************************************************************
-------------------------------------------------------------------------------
                                 ORCA SCF
-------------------------------------------------------------------------------

------------
SCF SETTINGS
------------
Hamiltonian:
 Density Functional     Method          .... DFT(GTOs)
 Exchange Functional    Exchange        .... PBE
   PBE kappa parameter   XKappa         ....  1.245000
   PBE mue parameter    XMuePBE         ....  0.219520
 Correlation Functional Correlation     .... PBE
   PBE beta parameter  CBetaPBE         ....  0.066725
 LDA part of GGA corr.  LDAOpt          .... PW91-LDA
 Gradients option       PostSCFGGA      .... off
   Density functional embedding theory  .... OFF
   NL short-range parameter             ....  3.700000
 RI-approximation to the Coulomb term is turned on
   Number of auxiliary basis functions  .... 82


General Settings:
 Integral files         IntName         .... NH3
 Hartree-Fock type      HFTyp           .... RHF
 Total Charge           Charge          ....    0
 Multiplicity           Mult            ....    1
 Number of Electrons    NEL             ....   10
 Basis Dimension        Dim             ....   86
 Nuclear Repulsion      ENuc            ....     11.8171096757 Eh

Convergence Acceleration:
 DIIS                   CNVDIIS         .... on
   Start iteration      DIISMaxIt       ....    12
   Startup error        DIISStart       ....  0.200000
   # of expansion vecs  DIISMaxEq       ....     5
   Bias factor          DIISBfac        ....   1.050
   Max. coefficient     DIISMaxC        ....  10.000
 Newton-Raphson         CNVNR           .... off
 SOSCF                  CNVSOSCF        .... on
   Start iteration      SOSCFMaxIt      ....   150
   Startup grad/error   SOSCFStart      ....  0.003300
 Level Shifting         CNVShift        .... on
   Level shift para.    LevelShift      ....    0.2500
   Turn off err/grad.   ShiftErr        ....    0.0010
 Zerner damping         CNVZerner       .... off
 Static damping         CNVDamp         .... on
   Fraction old density DampFac         ....    0.7000
   Max. Damping (<1)    DampMax         ....    0.9800
   Min. Damping (>=0)   DampMin         ....    0.0000
   Turn off err/grad.   DampErr         ....    0.1000
 Fernandez-Rico         CNVRico         .... off

SCF Procedure:
 Maximum # iterations   MaxIter         ....   125
 SCF integral mode      SCFMode         .... Direct
   Integral package                     .... LIBINT
 Reset frequency        DirectResetFreq ....    20
 Integral Threshold     Thresh          ....  2.500e-11 Eh
 Primitive CutOff       TCut            ....  2.500e-12 Eh

Convergence Tolerance:
 Convergence Check Mode ConvCheckMode   .... Total+1el-Energy
 Convergence forced     ConvForced      .... 0
 Energy Change          TolE            ....  1.000e-08 Eh
 1-El. energy change                    ....  1.000e-05 Eh
 Orbital Gradient       TolG            ....  1.000e-05
 Orbital Rotation angle TolX            ....  1.000e-05
 DIIS Error             TolErr          ....  5.000e-07


Diagonalization of the overlap matrix:
Smallest eigenvalue                        ... 1.240e-03
Time for diagonalization                   ...    0.002 sec
Threshold for overlap eigenvalues          ... 1.000e-08
Number of eigenvalues below threshold      ... 0
Time for construction of square roots      ...    0.006 sec
Total time needed                          ...    0.009 sec

-------------------
DFT GRID GENERATION
-------------------

General Integration Accuracy     IntAcc      ...  4.670
Radial Grid Type                 RadialGrid  ... Gauss-Chebyshev
Angular Grid (max. acc.)         AngularGrid ... Lebedev-302
Angular grid pruning method      GridPruning ... 3 (G Style)
Weight generation scheme         WeightScheme... Becke
Basis function cutoff            BFCut       ...    1.0000e-11
Integration weight cutoff        WCut        ...    1.0000e-14
Grids for H and He will be reduced by one unit

# of grid points (after initial pruning)     ...  16394 (   0.0 sec)
# of grid points (after weights+screening)   ...  16132 (   0.0 sec)
nearest neighbour list constructed           ...    0.0 sec
Grid point re-assignment to atoms done       ...    0.0 sec
Grid point division into batches done        ...    0.1 sec
Reduced shell lists constructed in    0.1 sec

Total number of grid points                  ...    16132
Total number of batches                      ...      255
Average number of points per batch           ...       63
Average number of grid points per atom       ...     4033
Average number of shells per batch           ...    26.35 (82.34%)
Average number of basis functions per batch  ...    70.09 (81.50%)
Average number of large shells per batch     ...    24.30 (92.24%)
Average number of large basis fcns per batch ...    65.17 (92.99%)
Maximum spatial batch extension              ...  12.33, 10.83, 13.14 au
Average spatial batch extension              ...   0.29,  0.28,  0.27 au

Time for grid setup =    0.150 sec

------------------------------
INITIAL GUESS: MODEL POTENTIAL
------------------------------
Loading Hartree-Fock densities                     ... done
Calculating cut-offs                               ... done
Setting up the integral package                    ... done
Initializing the effective Hamiltonian             ... done
Starting the Coulomb interaction                   ... done (   0.0 sec)
Reading the grid                                   ... done
Mapping shells                                     ... done
Starting the XC term evaluation                    ... done (   0.0 sec)
  promolecular density results
     # of electrons  =      9.998528221
     EX              =     -7.451545185
     EC              =     -0.305042255
     EX+EC           =     -7.756587440
Transforming the Hamiltonian                       ... done (   0.0 sec)
Diagonalizing the Hamiltonian                      ... done (   0.0 sec)
Back transforming the eigenvectors                 ... done (   0.0 sec)
Now organizing SCF variables                       ... done
                      ------------------
                      INITIAL GUESS DONE (   0.3 sec)
                      ------------------
--------------
SCF ITERATIONS
--------------
ITER       Energy         Delta-E        Max-DP      RMS-DP      [F,P]     Damp
               ***  Starting incremental Fock matrix formation  ***
  0    -56.4541333546   0.000000000000 0.08397813  0.00246925  0.3271325 0.7000
  1    -56.5117237990  -0.057590444401 0.03841457  0.00155984  0.1179424 0.7000
                               ***Turning on DIIS***
  2    -56.5271755234  -0.015451724443 0.04333110  0.00180033  0.0123589 0.0000
  3    -56.5558095950  -0.028634071583 0.02553128  0.00091911  0.0784312 0.0000
  4    -56.5623165325  -0.006506937506 0.00757555  0.00033743  0.0204604 0.0000
  5    -56.5628488017  -0.000532269176 0.00178945  0.00010760  0.0046957 0.0000
                      *** Initiating the SOSCF procedure ***
                           *** Shutting down DIIS ***
                      *** Re-Reading the Fockian *** 
                      *** Removing any level shift *** 
ITER      Energy       Delta-E        Grad      Rot      Max-DP    RMS-DP
  6    -56.56288553  -0.0000367255  0.000439  0.000439  0.000784  0.000035
               *** Restarting incremental Fock matrix formation ***
  7    -56.56288871  -0.0000031787  0.000233  0.000981  0.000509  0.000026
  8    -56.56288883  -0.0000001258  0.000181  0.000130  0.000340  0.000012
  9    -56.56288919  -0.0000003616  0.000049  0.000250  0.000201  0.000008
 10    -56.56288923  -0.0000000377  0.000015  0.000060  0.000038  0.000002
                  ***Gradient check signals convergence***
              ***Rediagonalizing the Fockian in SOSCF/NRSCF***

               *****************************************************
               *                     SUCCESS                       *
               *           SCF CONVERGED AFTER  11 CYCLES          *
               *****************************************************

Setting up the final grid:

General Integration Accuracy     IntAcc      ...  5.010
Radial Grid Type                 RadialGrid  ... Gauss-Chebyshev
Angular Grid (max. acc.)         AngularGrid ... Lebedev-434
Angular grid pruning method      GridPruning ... 3 (G Style)
Weight generation scheme         WeightScheme... Becke
Basis function cutoff            BFCut       ...    1.0000e-11
Integration weight cutoff        WCut        ...    1.0000e-14
Grids for H and He will be reduced by one unit

# of grid points (after initial pruning)     ...  30666 (   0.0 sec)
# of grid points (after weights+screening)   ...  30114 (   0.0 sec)
nearest neighbour list constructed           ...    0.0 sec
Grid point re-assignment to atoms done       ...    0.0 sec
Grid point division into batches done        ...    0.2 sec
Reduced shell lists constructed in    0.2 sec

Total number of grid points                  ...    30114
Total number of batches                      ...      473
Average number of points per batch           ...       63
Average number of grid points per atom       ...     7528
Average number of shells per batch           ...    25.66 (80.18%)
Average number of basis functions per batch  ...    68.49 (79.64%)
Average number of large shells per batch     ...    23.56 (91.83%)
Average number of large basis fcns per batch ...    62.88 (91.81%)
Maximum spatial batch extension              ...  13.82, 12.80, 13.82 au
Average spatial batch extension              ...   0.23,  0.25,  0.24 au

Final grid set up in    0.6 sec
Final integration                            ... done (   0.1 sec)
Change in XC energy                          ...    -0.000004352
Integrated number of electrons               ...     9.999999148
Previous integrated no of electrons          ...     9.999972465

----------------
TOTAL SCF ENERGY
----------------

Total Energy       :          -56.56289359 Eh           -1539.15458 eV

Components:
Nuclear Repulsion  :           11.81710968 Eh             321.55990 eV
Electronic Energy  :          -68.38000326 Eh           -1860.71449 eV
One Electron Energy:          -99.46671087 Eh           -2706.62681 eV
Two Electron Energy:           31.08670761 Eh             845.91232 eV

Virial components:
Potential Energy   :         -112.91937698 Eh           -3072.69246 eV
Kinetic Energy     :           56.35648339 Eh            1533.53788 eV
Virial Ratio       :            2.00366258


DFT components:
N(Alpha)           :        4.999999574076 electrons
N(Beta)            :        4.999999574076 electrons
N(Total)           :        9.999999148152 electrons
E(X)               :       -7.692993089318 Eh       
E(C)               :       -0.314725570124 Eh       
E(XC)              :       -8.007718659442 Eh       
DFET-embed. en.    :        0.000000000000 Eh       

---------------
SCF CONVERGENCE
---------------

  Last Energy change         ...   -2.0981e-09  Tolerance :   1.0000e-08
  Last MAX-Density change    ...    1.1707e-06  Tolerance :   1.0000e-07
  Last RMS-Density change    ...    5.3051e-08  Tolerance :   5.0000e-09
  Last Orbital Gradient      ...    1.4100e-06  Tolerance :   1.0000e-05
  Last Orbital Rotation      ...    1.7239e-06  Tolerance :   1.0000e-05

             **** THE GBW FILE WAS UPDATED (NH3.gbw) ****
             **** DENSITY FILE WAS UPDATED (NH3.scfp) ****
             **** ENERGY FILE WAS UPDATED (NH3.en.tmp) ****
             **** THE GBW FILE WAS UPDATED (NH3.gbw) ****
             **** DENSITY FILE WAS UPDATED (NH3.scfp) ****
----------------
ORBITAL ENERGIES
----------------

  NO   OCC          E(Eh)            E(eV) 
   0   2.0000     -13.964944      -380.0054 
   1   2.0000      -0.768890       -20.9225 
   2   2.0000      -0.404099       -10.9961 
   3   2.0000      -0.404099       -10.9961 
   4   2.0000      -0.217034        -5.9058 
   5   0.0000       0.020710         0.5635 
   6   0.0000       0.089064         2.4236 
   7   0.0000       0.089082         2.4240 
   8   0.0000       0.202617         5.5135 
   9   0.0000       0.202640         5.5141 
  10   0.0000       0.263686         7.1753 
  11   0.0000       0.291515         7.9325 
  12   0.0000       0.291526         7.9328 
  13   0.0000       0.325440         8.8557 
  14   0.0000       0.479970        13.0606 
  15   0.0000       0.480002        13.0615 
  16   0.0000       0.510831        13.9004 
  17   0.0000       0.597288        16.2530 
  18   0.0000       0.633930        17.2501 
  19   0.0000       0.645723        17.5710 
  20   0.0000       0.645764        17.5721 
  21   0.0000       0.725728        19.7481 
  22   0.0000       0.725749        19.7486 
  23   0.0000       0.852121        23.1874 
  24   0.0000       0.852137        23.1878 
  25   0.0000       0.871651        23.7188 
  26   0.0000       0.895717        24.3737 
  27   0.0000       0.895841        24.3771 
  28   0.0000       1.115330        30.3497 
  29   0.0000       1.721058        46.8324 
  30   0.0000       1.721118        46.8340 
  31   0.0000       1.763789        47.9951 
  32   0.0000       1.772073        48.2205 
  33   0.0000       1.873974        50.9934 
  34   0.0000       1.874021        50.9947 
  35   0.0000       2.025505        55.1168 
  36   0.0000       2.025523        55.1173 
  37   0.0000       2.190712        59.6123 
  38   0.0000       2.395226        65.1774 
  39   0.0000       2.476978        67.4020 
  40   0.0000       2.476988        67.4023 
  41   0.0000       2.745458        74.7077 
  42   0.0000       2.791922        75.9721 
  43   0.0000       2.791971        75.9734 
  44   0.0000       2.884017        78.4781 
  45   0.0000       2.884148        78.4817 
  46   0.0000       2.911624        79.2293 
  47   0.0000       3.039569        82.7109 
  48   0.0000       3.157717        85.9258 
  49   0.0000       3.157739        85.9265 
  50   0.0000       3.199436        87.0611 
  51   0.0000       3.199478        87.0622 
  52   0.0000       3.582448        97.4834 
  53   0.0000       3.582461        97.4837 
  54   0.0000       3.672955        99.9462 
  55   0.0000       3.733324       101.5889 
  56   0.0000       3.959905       107.7545 
  57   0.0000       3.959920       107.7549 
  58   0.0000       4.287743       116.6754 
  59   0.0000       4.384039       119.2958 
  60   0.0000       4.461097       121.3926 
  61   0.0000       4.461142       121.3938 
  62   0.0000       4.814325       131.0044 
  63   0.0000       5.063459       137.7837 
  64   0.0000       5.063486       137.7845 
  65   0.0000       5.097997       138.7235 
  66   0.0000       5.210680       141.7898 
  67   0.0000       5.210699       141.7903 
  68   0.0000       5.363175       145.9394 
  69   0.0000       5.923594       161.1892 
  70   0.0000       5.923754       161.1935 
  71   0.0000       8.181628       222.6334 
  72   0.0000       8.181660       222.6343 
  73   0.0000       8.261100       224.7960 
  74   0.0000       8.273228       225.1260 
  75   0.0000       8.353622       227.3136 
  76   0.0000       8.353639       227.3141 
  77   0.0000       9.089479       247.3373 
  78   0.0000       9.089513       247.3382 
  79   0.0000       9.109804       247.8904 
  80   0.0000      10.698419       291.1188 
  81   0.0000      10.790714       293.6303 
  82   0.0000      10.790728       293.6306 
  83   0.0000      11.584057       315.2182 
  84   0.0000      11.584065       315.2184 
  85   0.0000      36.798878      1001.3484 
------------------
MOLECULAR ORBITALS
------------------
                      0         1         2         3         4         5   
                 -13.96494  -0.76889  -0.40410  -0.40410  -0.21703   0.02071
                   2.00000   2.00000   2.00000   2.00000   2.00000   0.00000
                  --------  --------  --------  --------  --------  --------
  0N   1s         0.559097 -0.111802  0.000000  0.000000 -0.040588  0.053738
  0N   2s         0.462621 -0.174765  0.000001 -0.000000 -0.064946  0.086743
  0N   1pz       -0.000339 -0.021242  0.175266  0.092286  0.110137  0.032306
  0N   1px        0.000261  0.016348  0.126285 -0.164269 -0.084755 -0.024888
  0N   1py       -0.000656 -0.041066 -0.040395 -0.113127  0.212914  0.062475
  0N   3s         0.022989  0.481016 -0.000001  0.000001  0.197200 -0.204655
  0N   2pz       -0.002945 -0.032352  0.251679  0.132514  0.160937  0.064462
  0N   2px        0.002266  0.024876  0.181327 -0.235862 -0.123813 -0.049609
  0N   2py       -0.005693 -0.062534 -0.058002 -0.162440  0.311088  0.124644
  0N   4s         0.023692  0.344300 -0.000098  0.000049  0.082743 -1.515857
  0N   3pz       -0.002708 -0.016894  0.130328  0.068616  0.160442  0.124275
  0N   3px        0.002084  0.012925  0.093861 -0.122050 -0.123285 -0.096060
  0N   3py       -0.005235 -0.032626 -0.030026 -0.084100  0.310118  0.240549
  0N   1dz2      -0.000051  0.000091 -0.003012 -0.000145  0.000276  0.000423
  0N   1dxz      -0.000058  0.000105 -0.001147  0.000084  0.000315  0.000484
  0N   1dyz       0.000146 -0.000264 -0.001497 -0.001375 -0.000791 -0.001216
  0N   1dx2y2    -0.000119  0.000215  0.000530 -0.003036  0.000643  0.000988
  0N   1dxy      -0.000112  0.000203 -0.000550  0.001444  0.000609  0.000936
  0N   2dz2       0.000665  0.001306 -0.016997 -0.001309  0.002666 -0.001704
  0N   2dxz       0.000761  0.001489 -0.006057  0.001229  0.003059 -0.001943
  0N   2dyz      -0.001912 -0.003733 -0.008938 -0.007512 -0.007701  0.004890
  0N   2dx2y2     0.001555  0.003031  0.002866 -0.017245  0.006271 -0.003964
  0N   2dxy       0.001471  0.002875 -0.003836  0.008427  0.005921 -0.003760
  0N   3dz2       0.000188  0.000100  0.002011 -0.005477 -0.002480 -0.003720
  0N   3dxz       0.000215  0.000102  0.005516  0.008632 -0.002814 -0.004314
  0N   3dyz      -0.000539 -0.000246 -0.004656  0.003732  0.007040  0.010863
  0N   3dx2y2     0.000439  0.000183 -0.001675  0.000542 -0.005687 -0.008915
  0N   3dxy       0.000415  0.000193 -0.008046  0.002282 -0.005431 -0.008377
  0N   1f0       -0.001248 -0.001636  0.000981 -0.000578  0.002833  0.008055
  0N   1f+1      -0.001483 -0.001440  0.000810  0.001101  0.001997  0.009023
  0N   1f-1      -0.000257 -0.000281 -0.000521 -0.000543  0.000432  0.001597
  0N   1f+2      -0.000822 -0.001261  0.000328 -0.001064  0.002371  0.005508
  0N   1f-2       0.000455  0.000014  0.000461  0.001328  0.000556 -0.002301
  0N   1f+3      -0.001389 -0.001842 -0.001649  0.000478  0.003217  0.008991
  0N   1f-3      -0.000163  0.000065 -0.000324  0.000239 -0.000390  0.000745
  1H   1s        -0.000327  0.092882  0.106239 -0.138193 -0.044420  0.032041
  1H   2s        -0.013056  0.078974  0.157920 -0.205440 -0.026896  0.162928
  1H   3s        -0.000478  0.004843  0.095573 -0.124339 -0.000391  0.663927
  1H   1pz        0.000010 -0.000039  0.001332  0.000580  0.001275  0.000309
  1H   1px       -0.000496 -0.002968 -0.001926  0.002505  0.000651  0.005753
  1H   1py        0.000019 -0.000076 -0.000163 -0.000984  0.002465  0.000596
  1H   2pz       -0.000190 -0.000683  0.012857  0.006608  0.007973  0.001353
  1H   2px        0.006829 -0.015170 -0.010466  0.013615 -0.002915 -0.017919
  1H   2py       -0.000367 -0.001319 -0.002771 -0.008465  0.015409  0.002626
  1H   3pz        0.000129 -0.000003  0.004047  0.002244  0.025986  0.007023
  1H   3px        0.002278  0.000177 -0.017579  0.022877 -0.038688 -0.036669
  1H   3py        0.000250 -0.000013 -0.001075 -0.002490  0.050256  0.013591
  1H   1dz2       0.001400 -0.000368 -0.000852  0.000457 -0.000091 -0.002305
  1H   1dxz       0.000191  0.000267 -0.003348 -0.001819 -0.002624 -0.001203
  1H   1dyz      -0.000045 -0.000193 -0.000390 -0.000026 -0.000326 -0.000371
  1H   1dx2y2    -0.002361  0.000910  0.000936 -0.001593  0.000618  0.004521
  1H   1dxy       0.000369  0.000515  0.000838  0.002104 -0.005073 -0.002329
  2H   1s        -0.000327  0.092885  0.066561  0.161106 -0.044426  0.032044
  2H   2s        -0.013055  0.078887  0.098903  0.239408 -0.026708  0.162804
  2H   3s        -0.000478  0.004825  0.059858  0.144919 -0.000299  0.663170
  2H   1pz       -0.000238 -0.001565  0.000419 -0.001383  0.002108  0.003356
  2H   1px        0.000155  0.001030  0.001462  0.000146 -0.001526 -0.002235
  2H   1py        0.000406  0.002304  0.001175  0.002733  0.001169 -0.004160
  2H   2pz        0.003209 -0.008654  0.006583 -0.008248  0.009588 -0.007240
  2H   2px       -0.002081  0.005751  0.013248 -0.002173 -0.007197  0.004596
  2H   2py       -0.005673  0.011126  0.006905  0.015598  0.012871  0.016040
  2H   3pz        0.001338  0.000086 -0.002483 -0.013804  0.016474 -0.008757
  2H   3px       -0.000892 -0.000052  0.007293  0.006622 -0.013778  0.004850
  2H   3py       -0.001637 -0.000167  0.009207  0.021933  0.065149  0.038238
  2H   1dz2       0.000538  0.000203 -0.002695  0.000055 -0.003307 -0.002076
  2H   1dxz       0.000661 -0.000365 -0.000927  0.000600  0.002723  0.000052
  2H   1dyz       0.001816 -0.000879  0.001071 -0.001799  0.000575 -0.003203
  2H   1dx2y2     0.001523  0.000033  0.000567 -0.002004 -0.003755 -0.003775
  2H   1dxy      -0.001169  0.000615  0.002621 -0.000234 -0.000589  0.002019
  3H   1s        -0.000327  0.092885 -0.172803 -0.022910 -0.044427  0.032050
  3H   2s        -0.013055  0.078861 -0.256727 -0.034026 -0.026658  0.162729
  3H   3s        -0.000478  0.004812 -0.155411 -0.020585 -0.000317  0.662643
  3H   1pz        0.000469  0.002785 -0.003113  0.000086 -0.000265 -0.005334
  3H   1px        0.000155  0.001030 -0.000517 -0.001375 -0.001527 -0.002236
  3H   1py        0.000040  0.000054 -0.000698 -0.000871  0.002395  0.000336
  3H   2pz       -0.006484  0.014075 -0.017367  0.002728  0.004981  0.017277
  3H   2px       -0.002081  0.005747 -0.001300 -0.013362 -0.007191  0.004597
  3H   2py       -0.000659 -0.000636 -0.004607 -0.008462  0.015263  0.003353
  3H   3pz       -0.002110 -0.000195 -0.027288 -0.001990  0.043655  0.036084
  3H   3px       -0.000892 -0.000052 -0.008279 -0.005339 -0.013781  0.004813
  3H   3py        0.000146 -0.000026 -0.002206 -0.002819  0.051099  0.014952
  3H   1dz2      -0.002361  0.000697 -0.002223  0.001838  0.001700  0.004789
  3H   1dxz      -0.001336  0.000711 -0.000166 -0.002723 -0.002051  0.001616
  3H   1dyz      -0.000554 -0.000473 -0.000880 -0.002135  0.004664  0.002412
  3H   1dx2y2    -0.000151  0.000319  0.000137 -0.001515 -0.000867  0.000191
  3H   1dxy      -0.000136  0.000059 -0.000538 -0.000640  0.001881  0.001208
                      6         7         8         9        10        11   
                   0.08906   0.08908   0.20262   0.20264   0.26369   0.29152
                   0.00000   0.00000   0.00000   0.00000   0.00000   0.00000
                  --------  --------  --------  --------  --------  --------
  0N   1s        -0.000011  0.000005  0.000006 -0.000005 -0.020921  0.000002
  0N   2s        -0.000016  0.000006  0.000011 -0.000009 -0.034019  0.000003
  0N   1pz       -0.020011  0.145374  0.004710  0.063025  0.041581  0.060799
  0N   1px       -0.153381  0.005212 -0.064149  0.016068 -0.031948  0.012590
  0N   1py       -0.050729 -0.073108 -0.027985 -0.026202  0.080372 -0.026544
  0N   3s         0.000104 -0.000040 -0.000049  0.000039  0.184299  0.000084
  0N   2pz       -0.029563  0.215027  0.000423  0.006268  0.061501  0.048683
  0N   2px       -0.226919  0.007770 -0.006524  0.001610 -0.047242  0.010063
  0N   2py       -0.075028 -0.108144 -0.002834 -0.002598  0.118928 -0.021269
  0N   4s        -0.000995  0.000541  0.000430 -0.000249 -1.128758 -0.002154
  0N   3pz       -0.178978  1.302113 -0.135367 -1.804433  0.551801 -0.457764
  0N   3px       -1.374781  0.047045  1.836044 -0.460008 -0.424902 -0.094660
  0N   3py       -0.454340 -0.654975  0.800567  0.750417  1.066751  0.198913
  0N   1dz2      -0.001384  0.001560 -0.000417 -0.000758 -0.000149  0.001206
  0N   1dxz      -0.000261  0.001117  0.000811  0.000745 -0.000170 -0.001078
  0N   1dyz       0.000487  0.001220  0.000454 -0.000818  0.000428  0.001205
  0N   1dx2y2     0.001886  0.000807 -0.000625 -0.000341 -0.000348  0.000558
  0N   1dxy      -0.000598 -0.000553  0.001020 -0.000747 -0.000327  0.000987
  0N   2dz2       0.008450 -0.017326 -0.053977  0.081346 -0.010572  0.034260
  0N   2dxz       0.006406 -0.001887  0.006747  0.063118 -0.012072 -0.013091
  0N   2dyz       0.000746 -0.013944  0.040091  0.045386  0.030372  0.030085
  0N   2dx2y2    -0.017729 -0.009199  0.092171  0.016050 -0.024672  0.013713
  0N   2dxy       0.012537  0.000435 -0.024406 -0.027410 -0.023336  0.015873
  0N   3dz2       0.159658 -0.169176 -0.161978  0.485933  0.041891  0.207553
  0N   3dxz       0.023522 -0.135693 -0.112794  0.143712  0.047677  0.422627
  0N   3dyz      -0.061450 -0.131727  0.094839  0.340331 -0.119870  0.064776
  0N   3dx2y2    -0.208971 -0.087344  0.510288  0.129305  0.097212  0.022866
  0N   3dxy       0.056719  0.067809 -0.284699  0.011623  0.092045 -0.253042
  0N   1f0       -0.004758  0.002079  0.013501 -0.009052  0.011476 -0.004854
  0N   1f+1       0.002008  0.005709 -0.009866 -0.010440  0.009885 -0.006671
  0N   1f-1      -0.000706 -0.002808  0.002843 -0.006885  0.001943 -0.002743
  0N   1f+2      -0.004513 -0.001738  0.007748  0.007151  0.008952  0.003980
  0N   1f-2       0.003427  0.005063 -0.005519 -0.010179  0.000174 -0.006252
  0N   1f+3       0.005939 -0.004691 -0.009678  0.012427  0.012968  0.007295
  0N   1f-3       0.001260 -0.000736  0.009908  0.004806 -0.000593  0.002848
  1H   1s         0.006768 -0.000214  0.158969 -0.039841 -0.058532 -0.011423
  1H   2s         0.648341 -0.022416 -0.926970  0.232149  0.098083  0.072412
  1H   3s         2.547538 -0.086790 -1.928019  0.483002  0.214725  0.318820
  1H   1pz       -0.001056  0.003771  0.000275  0.002837 -0.003112 -0.003639
  1H   1px        0.006744 -0.000233 -0.003105  0.000778  0.001547 -0.000341
  1H   1py       -0.002354 -0.001852 -0.001149 -0.001217 -0.006016  0.003806
  1H   2pz        0.004753 -0.012044  0.007888  0.035495  0.005075 -0.003274
  1H   2px       -0.015427  0.000594  0.124316 -0.031157 -0.047966 -0.006716
  1H   2py        0.010200  0.005801 -0.006393 -0.017778  0.009823  0.002377
  1H   3pz       -0.011830  0.078279  0.103249  0.494553 -0.347330 -0.617259
  1H   3px       -0.534774  0.018354  1.131619 -0.283500 -0.270651 -0.151646
  1H   3py       -0.029349 -0.039289 -0.101272 -0.243888 -0.671169  0.499421
  1H   1dz2      -0.004751  0.003326  0.015405 -0.008627 -0.008204 -0.001873
  1H   1dxz      -0.000198 -0.000889 -0.003165 -0.014666  0.004661  0.010395
  1H   1dyz       0.000833  0.002548  0.001258 -0.004207  0.006427  0.001610
  1H   1dx2y2     0.007424  0.001549 -0.032357  0.005361  0.005111  0.002356
  1H   1dxy      -0.000314  0.000475  0.002813  0.007291  0.009003 -0.007868
  2H   1s        -0.003602 -0.005782 -0.113962 -0.117754 -0.058529 -0.043405
  2H   2s        -0.343067 -0.549940  0.664690  0.686842  0.097645  0.273744
  2H   3s        -1.348853 -2.162273  1.382278  1.428161  0.213575  1.211252
  2H   1pz       -0.003001 -0.000229  0.000231  0.002869 -0.003550  0.001553
  2H   1px       -0.002366  0.002693 -0.002909  0.000721  0.002676 -0.005371
  2H   1py        0.003568  0.005932 -0.001438 -0.001369 -0.005352  0.004893
  2H   2pz        0.006871 -0.003562 -0.061371 -0.029478 -0.017327 -0.012958
  2H   2px        0.009375 -0.005624  0.005019  0.053243  0.010777  0.005160
  2H   2py       -0.009763 -0.016333  0.070874  0.074839  0.044829  0.021428
  2H   3pz        0.111622  0.274575 -0.628355 -0.178151 -0.621182 -0.206417
  2H   3px       -0.162858 -0.125962 -0.077460  0.587258  0.446033 -0.522901
  2H   3py       -0.216485 -0.342587  0.651742  0.695066 -0.245099  0.812116
  2H   1dz2      -0.001381  0.002197  0.005742 -0.012399  0.005274 -0.000960
  2H   1dxz       0.000892  0.003115 -0.001822 -0.009655 -0.013171 -0.002104
  2H   1dyz       0.001264  0.005965 -0.022145 -0.015561 -0.005059 -0.007684
  2H   1dx2y2     0.003717  0.003052 -0.016148 -0.006830 -0.000554 -0.015201
  2H   1dxy      -0.004339 -0.001634  0.006507  0.018132  0.003230 -0.003633
  3H   1s        -0.003216  0.006022 -0.044958  0.157569 -0.058535  0.054787
  3H   2s        -0.304629  0.571986  0.262286 -0.919074  0.097499 -0.345392
  3H   3s        -1.198500  2.248964  0.545477 -1.910983  0.213456 -1.528893
  3H   1pz        0.004295 -0.005280  0.000155  0.003066 -0.002316 -0.003090
  3H   1px       -0.002544 -0.002525 -0.002903  0.000739  0.002676  0.004641
  3H   1py       -0.000607 -0.003206 -0.001300 -0.001063 -0.005992 -0.006441
  3H   2pz       -0.011111  0.012056  0.045444 -0.112894  0.046575 -0.030848
  3H   2px        0.009751  0.004961 -0.020693 -0.049333  0.010779 -0.008190
  3H   2py        0.000806  0.012317 -0.017093 -0.012615  0.011764 -0.003301
  3H   3pz       -0.210697  0.453525  0.473154 -1.012915  0.158763 -0.859452
  3H   3px       -0.153851  0.136655 -0.345174 -0.481114  0.446140  0.326412
  3H   3py       -0.035649 -0.023801 -0.241047 -0.161583 -0.648690 -0.577727
  3H   1dz2      -0.002709  0.006833  0.016317 -0.027603  0.004447 -0.015577
  3H   1dxz      -0.003827  0.003400 -0.004003 -0.020969  0.010241 -0.002206
  3H   1dyz      -0.000117  0.001262 -0.007768 -0.005122 -0.005727 -0.009863
  3H   1dx2y2     0.002815  0.001853 -0.007894 -0.007051 -0.001025  0.005599
  3H   1dxy      -0.001883 -0.001472  0.000781 -0.003359 -0.008885  0.003639
                     12        13        14        15        16        17   
                   0.29153   0.32544   0.47997   0.48000   0.51083   0.59729
                   0.00000   0.00000   0.00000   0.00000   0.00000   0.00000
                  --------  --------  --------  --------  --------  --------
  0N   1s        -0.000010 -0.004853  0.000007  0.000003 -0.000010  0.083549
  0N   2s        -0.000012 -0.004636  0.000014  0.000006 -0.000019  0.150115
  0N   1pz        0.001710 -0.079144  0.154718  0.043118 -0.000012  0.014521
  0N   1px       -0.062456  0.060920 -0.016928  0.167139 -0.000062 -0.011197
  0N   1py       -0.025667 -0.152970 -0.086760  0.044269 -0.000021  0.028121
  0N   3s         0.000097  0.292496 -0.000028  0.000060  0.000021 -0.601701
  0N   2pz        0.001419 -0.055460  0.285814  0.079657  0.000019  0.025512
  0N   2px       -0.050121  0.042857 -0.031333  0.308549  0.000058 -0.019690
  0N   2py       -0.020543 -0.107292 -0.160258  0.081728 -0.000040  0.049424
  0N   4s        -0.001006 -6.430475 -0.000908 -0.001252  0.001221 -3.773785
  0N   3pz       -0.012011  0.266308 -0.285080 -0.078991 -0.000843  0.635338
  0N   3px        0.468482 -0.204186  0.030246 -0.309385  0.001103 -0.488823
  0N   3py        0.194059  0.514005  0.160005 -0.081338  0.000323  1.227583
  0N   1dz2       0.000495 -0.000101 -0.000337  0.001202  0.000001 -0.000541
  0N   1dxz      -0.001125 -0.000116  0.002072 -0.000458 -0.000001 -0.000619
  0N   1dyz      -0.000678  0.000294 -0.000052 -0.001206 -0.000001  0.001557
  0N   1dx2y2     0.000982 -0.000242 -0.000072 -0.000448 -0.000006 -0.001263
  0N   1dxy      -0.001558 -0.000227 -0.000906 -0.001385  0.000003 -0.001196
  0N   2dz2       0.002266 -0.015391  0.001916  0.006626 -0.000046 -0.001168
  0N   2dxz      -0.021859 -0.017562  0.007899 -0.000406 -0.000009 -0.001336
  0N   2dyz      -0.008494  0.044067  0.002504 -0.003967  0.000005  0.003349
  0N   2dx2y2     0.031299 -0.035828  0.001944 -0.004985  0.000070 -0.002734
  0N   2dxy      -0.033938 -0.033939 -0.003784 -0.002704 -0.000009 -0.002577
  0N   3dz2      -0.324572 -0.118452  0.186720  0.329832 -0.000218 -0.128994
  0N   3dxz       0.157580 -0.135512  0.312216  0.031117 -0.000220 -0.147466
  0N   3dyz       0.256934  0.339906  0.193508 -0.134718  0.000122  0.370474
  0N   3dx2y2     0.293526 -0.276497  0.157792 -0.304448  0.000392 -0.301069
  0N   3dxy       0.089361 -0.261539 -0.161077 -0.017453  0.000108 -0.284833
  0N   1f0        0.007978  0.038201 -0.000674 -0.001739 -0.005910  0.012151
  0N   1f+1      -0.005341  0.043115 -0.003890 -0.000205  0.002896  0.011367
  0N   1f-1       0.001854  0.007609  0.005841  0.001215  0.004908  0.002157
  0N   1f+2       0.004819  0.025982  0.000143 -0.004299  0.006751  0.009134
  0N   1f-2      -0.003497 -0.011291 -0.003835  0.003216  0.002608 -0.000866
  0N   1f+3      -0.006295  0.042589  0.002580  0.004663 -0.002286  0.013668
  0N   1f-3       0.004556  0.003716 -0.001839  0.004426  0.003523 -0.000122
  1H   1s         0.056639 -0.078654  0.006627 -0.065414  0.000028  0.061090
  1H   2s        -0.356639  0.828356 -0.008286  0.093520 -0.001427  1.755580
  1H   3s        -1.581952  1.151847 -0.291283  2.881188 -0.001461 -0.037349
  1H   1pz       -0.004785  0.000939 -0.007785 -0.007157  0.011953 -0.000450
  1H   1px        0.001713  0.003875  0.000421 -0.004079 -0.000009  0.003990
  1H   1py       -0.007074  0.001815  0.005596 -0.011760 -0.006178 -0.000869
  1H   2pz       -0.002140 -0.009172  0.050690  0.036360 -0.045105 -0.000168
  1H   2px        0.032905 -0.172934  0.003194 -0.032753  0.000194 -0.012798
  1H   2py       -0.002341 -0.017751 -0.033911  0.057002  0.023305 -0.000354
  1H   3pz       -0.503850  0.190173 -0.921847 -0.588534  1.121265 -0.032196
  1H   3px        0.751094 -1.211494  0.123366 -1.223476  0.000902 -0.639772
  1H   3py       -0.633398  0.367373  0.598427 -0.897483 -0.579569 -0.062840
  1H   1dz2       0.011338 -0.019356 -0.001493 -0.002433 -0.001226 -0.005895
  1H   1dxz       0.007347 -0.002971  0.003167  0.001795 -0.005483 -0.000463
  1H   1dyz      -0.006322 -0.003173 -0.001517  0.001038 -0.001027 -0.002400
  1H   1dx2y2    -0.010405  0.038025 -0.001180  0.002151 -0.000776  0.013607
  1H   1dxy       0.008565 -0.005736 -0.001995  0.002643  0.002839 -0.000892
  2H   1s        -0.038235 -0.078658 -0.059986  0.027004 -0.000009  0.061083
  2H   2s         0.240811  0.828688  0.084246 -0.038192  0.000376  1.755564
  2H   3s         1.066619  1.151222  2.640553 -1.188024  0.001241 -0.038077
  2H   1pz        0.005269  0.003284 -0.012214 -0.000536 -0.007763  0.001403
  2H   1px        0.000799 -0.002260  0.003992 -0.010336 -0.010986 -0.000872
  2H   1py        0.004486 -0.001838 -0.004779  0.001874 -0.000358 -0.003764
  2H   2pz       -0.008258 -0.100783  0.038716  0.021134  0.029277 -0.006754
  2H   2px        0.008975  0.067114  0.001237  0.053978  0.041463  0.004460
  2H   2py        0.019007  0.125194  0.061870 -0.026091  0.001368  0.009918
  2H   3pz        0.427369 -0.351396 -1.455615 -0.040759 -0.728082 -0.370219
  2H   3px        0.403067  0.208522  0.466843 -1.194332 -1.029788  0.246326
  2H   3py        0.742707  1.213000  0.283406 -0.159904 -0.033189  0.464549
  2H   1dz2      -0.010196 -0.008669  0.001556 -0.000304  0.004263 -0.002410
  2H   1dxz      -0.005956 -0.006587 -0.003053  0.001623  0.001817 -0.001602
  2H   1dyz       0.000717 -0.029984 -0.003062 -0.001412 -0.002089 -0.011186
  2H   1dx2y2    -0.008685 -0.021721  0.000098  0.000010 -0.002262 -0.006066
  2H   1dxy       0.007897  0.019632 -0.000128 -0.003935 -0.003177  0.007477
  3H   1s        -0.018514 -0.078708  0.053364  0.038493 -0.000036  0.061077
  3H   2s         0.116686  0.829224 -0.074899 -0.053796 -0.000448  1.755810
  3H   3s         0.515599  1.151946 -2.349213 -1.693273  0.000146 -0.037293
  3H   1pz       -0.000633 -0.003401 -0.003462  0.001163 -0.004194 -0.003883
  3H   1px        0.002812 -0.002267 -0.001846 -0.010920  0.010995 -0.000868
  3H   1py        0.004775  0.001623  0.012341  0.003188  0.006541 -0.001030
  3H   2pz        0.009130  0.160497 -0.020840 -0.038413  0.015846  0.012023
  3H   2px        0.006319  0.067147 -0.012003  0.052614 -0.041497  0.004458
  3H   2py        0.003211 -0.009917 -0.066412 -0.011391 -0.024684  0.000224
  3H   3pz        0.029092  1.193456 -1.029343 -0.319994 -0.393358  0.593380
  3H   3px        0.574118  0.208109 -0.217786 -1.262775  1.030600  0.246650
  3H   3py        0.601384  0.414541  1.028523  0.082595  0.613542 -0.033598
  3H   1dz2      -0.001725  0.037039 -0.002633  0.000637 -0.002996  0.012636
  3H   1dxz       0.009810  0.019837 -0.000782 -0.004386  0.003657  0.007032
  3H   1dyz       0.009597  0.007370  0.002334  0.000248  0.003113  0.001117
  3H   1dx2y2     0.002085  0.004655 -0.000760  0.000718  0.002976  0.002614
  3H   1dxy       0.001202  0.005963  0.002699 -0.000410  0.000353  0.003016
                     18        19        20        21        22        23   
                   0.63393   0.64572   0.64576   0.72573   0.72575   0.85212
                   0.00000   0.00000   0.00000   0.00000   0.00000   0.00000
                  --------  --------  --------  --------  --------  --------
  0N   1s        -0.027011 -0.000010 -0.000035 -0.000009 -0.000006 -0.000027
  0N   2s        -0.047875 -0.000019 -0.000062 -0.000013 -0.000011 -0.000044
  0N   1pz       -0.033115  0.008508 -0.020965 -0.104357  0.012631 -0.063504
  0N   1px        0.025596 -0.020072 -0.012502 -0.031558 -0.105306  0.092927
  0N   1py       -0.064100 -0.012388  0.005769  0.041393 -0.048474  0.069571
  0N   3s         0.156073  0.000099  0.000223  0.000156  0.000080  0.000698
  0N   2pz       -0.108137  0.064544 -0.158263 -0.420980  0.050890 -0.318997
  0N   2px        0.083491 -0.151453 -0.094654 -0.127434 -0.424902  0.466725
  0N   2py       -0.209387 -0.093632  0.043886  0.167048 -0.195531  0.350154
  0N   4s         4.297925 -0.000036  0.004907 -0.001169  0.000214 -0.004701
  0N   3pz       -0.405915  1.137328 -2.783447  0.095847 -0.012622 -1.261890
  0N   3px        0.315161 -2.665435 -1.666331  0.028664  0.096016  1.843910
  0N   3py       -0.791300 -1.649504  0.775227 -0.037535  0.044927  1.391931
  0N   1dz2      -0.003078 -0.003889 -0.015060  0.005273 -0.004641 -0.003916
  0N   1dxz      -0.003531  0.003665 -0.008951 -0.007068  0.007522  0.005228
  0N   1dyz       0.008898  0.008140 -0.005223  0.006714  0.004224 -0.001409
  0N   1dx2y2    -0.007231  0.014884  0.002009  0.002556 -0.004313 -0.006496
  0N   1dxy      -0.006847 -0.005290  0.002495  0.007303  0.008254  0.004127
  0N   2dz2      -0.000986  0.002369  0.045133  0.022976  0.000262 -0.018558
  0N   2dxz      -0.001133  0.002566  0.017208 -0.001940  0.011505  0.047405
  0N   2dyz       0.002805 -0.018474  0.024111  0.018842  0.000409  0.054043
  0N   2dx2y2    -0.002346 -0.045937 -0.003572  0.006350 -0.022805  0.075185
  0N   2dxy      -0.002179  0.022155  0.005784  0.008352  0.018570 -0.025499
  0N   3dz2      -0.240631 -0.227759 -0.207506  0.852959 -0.426714 -0.752682
  0N   3dxz      -0.275621  0.305272 -0.304141 -0.687052  0.880591  1.582474
  0N   3dyz       0.693541  0.223469  0.086856  0.921526  0.398816  1.274665
  0N   3dx2y2    -0.564420  0.179815  0.073824  0.338085 -0.761079  1.450394
  0N   3dxy      -0.533900  0.045645  0.283386  0.810333  1.060131 -0.353029
  0N   1f0        0.002225 -0.003102 -0.004308 -0.002005 -0.003793  0.018727
  0N   1f+1       0.001435  0.004839 -0.004479  0.004105  0.002383 -0.035182
  0N   1f-1       0.000315 -0.002527  0.003255 -0.019224  0.001495  0.003517
  0N   1f+2       0.001921 -0.005318 -0.001330  0.007746  0.006039  0.027827
  0N   1f-2       0.000607  0.006342 -0.002758  0.000541 -0.008254 -0.029438
  0N   1f+3       0.002549  0.003106  0.007782 -0.003667 -0.003561 -0.008044
  0N   1f-3      -0.000392  0.001814  0.001502  0.002413 -0.018176  0.018933
  1H   1s        -0.026068  0.068537  0.042806  0.003834  0.012874 -0.046999
  1H   2s        -0.515252  1.610118  1.006638  0.255650  0.851363 -2.816218
  1H   3s        -0.649496  2.984682  1.865396 -0.088715 -0.295471 -1.948393
  1H   1pz       -0.001641  0.003590 -0.005332 -0.003904  0.002562  0.005118
  1H   1px        0.002592 -0.001484 -0.000919  0.001280  0.004243 -0.007279
  1H   1py       -0.003183 -0.001401  0.003035  0.002961  0.001804  0.000237
  1H   2pz       -0.000963 -0.008634  0.009936 -0.018291 -0.002640 -0.015932
  1H   2px       -0.014478 -0.083996 -0.052625 -0.007371 -0.024202  0.146873
  1H   2py       -0.001856  0.000180 -0.007801  0.003970 -0.016912  0.035529
  1H   3pz        0.162799 -0.110754  0.230032  0.150850 -0.659178 -0.896599
  1H   3px        1.174822 -2.400546 -1.499401 -0.067293 -0.224631  1.403031
  1H   3py        0.315467  0.114821 -0.082305 -0.492246 -1.038961  0.149100
  1H   1dz2       0.009988 -0.025114 -0.020934 -0.009142 -0.013112  0.027668
  1H   1dxz      -0.002865  0.005440 -0.011889 -0.005075  0.012106  0.023967
  1H   1dyz      -0.000337  0.000793 -0.003771 -0.004347 -0.000325 -0.007377
  1H   1dx2y2    -0.016815  0.050519  0.028567  0.005452  0.028116 -0.050704
  1H   1dxy      -0.005564 -0.006314  0.003940  0.009768  0.017524  0.001127
  2H   1s        -0.026024 -0.071347  0.037900  0.009231 -0.009766  0.060091
  2H   2s        -0.516258 -1.677484  0.891374  0.609424 -0.645764  3.603725
  2H   3s        -0.650832 -3.108544  1.651562 -0.211504  0.225188  2.490511
  2H   1pz       -0.000974 -0.001442 -0.003951  0.000702 -0.004980  0.001489
  2H   1px        0.000828 -0.003085 -0.005041 -0.004947 -0.000754 -0.003270
  2H   1py       -0.004227 -0.001568  0.000608 -0.001300  0.001180 -0.009456
  2H   2pz       -0.008598  0.051022 -0.017607 -0.024161  0.009709 -0.107603
  2H   2px        0.005768 -0.025459  0.027061  0.000052 -0.022475  0.089054
  2H   2py        0.010110 -0.066895  0.036052  0.006337 -0.007372  0.131211
  2H   3pz        0.824663  1.314846 -0.511364 -0.485105  0.830634 -0.453588
  2H   3px       -0.559535 -0.698757  0.634994  0.690920 -0.285299  0.758834
  2H   3py       -0.717349 -2.013319  1.077972 -0.398017  0.437504  1.649762
  2H   1dz2      -0.001358  0.003132 -0.014584 -0.000793 -0.012681 -0.019751
  2H   1dxz       0.008904  0.012389 -0.012034 -0.015149  0.010441 -0.021450
  2H   1dyz       0.014781  0.042869 -0.018049 -0.017818  0.021191 -0.040960
  2H   1dx2y2     0.004973  0.030751 -0.009355  0.004031  0.003274 -0.044266
  2H   1dxy      -0.009928 -0.023683  0.020003  0.015159 -0.012042  0.036753
  3H   1s        -0.025868  0.002800 -0.080783 -0.013081 -0.003107 -0.013060
  3H   2s        -0.513527  0.066982 -1.899667 -0.864136 -0.205545 -0.782481
  3H   3s        -0.645277  0.124056 -3.519268  0.300544  0.070113 -0.541414
  3H   1pz       -0.002878  0.002305 -0.001623  0.003335  0.002405  0.004013
  3H   1px        0.000825 -0.005884 -0.000559  0.003711 -0.003348 -0.004973
  3H   1py       -0.003239 -0.003495 -0.000615 -0.001714 -0.002920 -0.002446
  3H   2pz        0.013296 -0.001211 -0.092946 -0.022306  0.000679 -0.051354
  3H   2px        0.005816  0.013191 -0.034763 -0.012379 -0.018801  0.019696
  3H   2py       -0.001169  0.007137 -0.000168  0.015442 -0.005793  0.025770
  3H   3pz       -1.057637  0.004911 -2.676868 -0.030366 -0.128264 -0.771453
  3H   3px       -0.557894  0.265501 -0.907533 -0.733649  0.141801  0.941456
  3H   3py        0.259279  0.145143 -0.171025  1.034802  0.432319  0.530323
  3H   1dz2      -0.014869 -0.005002 -0.056272 -0.020777 -0.009351 -0.029886
  3H   1dxz      -0.013193  0.009344 -0.034048 -0.026355 -0.001643  0.014579
  3H   1dyz       0.003696  0.008056 -0.007061  0.014717  0.009277  0.007556
  3H   1dx2y2    -0.002857  0.008942 -0.006049 -0.009906  0.005935  0.001093
  3H   1dxy       0.001540 -0.000000 -0.003974  0.003873 -0.000674  0.009704
                     24        25        26        27        28        29   
                   0.85214   0.87165   0.89572   0.89584   1.11533   1.72106
                   0.00000   0.00000   0.00000   0.00000   0.00000   0.00000
                  --------  --------  --------  --------  --------  --------
  0N   1s         0.000040  0.016404 -0.000005 -0.000027 -0.072191  0.000004
  0N   2s         0.000062  0.026824 -0.000010 -0.000048 -0.125749  0.000004
  0N   1pz       -0.100670  0.094333  0.129789 -0.018665  0.038469  0.080259
  0N   1px       -0.083394 -0.071717  0.042232  0.130727 -0.029580  0.004416
  0N   1py        0.019307  0.182045 -0.050731  0.060928  0.074319 -0.039788
  0N   3s        -0.001040 -0.476444  0.000302  0.000949  1.710411 -0.000067
  0N   2pz       -0.506900  0.260663  0.250712 -0.036359  0.353095  0.112207
  0N   2px       -0.419027 -0.198123  0.081882  0.252820 -0.271585  0.006144
  0N   2py        0.096425  0.502917 -0.098450  0.117085  0.682524 -0.055679
  0N   4s         0.007228  3.010127 -0.001201 -0.005047-13.033806  0.000960
  0N   3pz       -2.018491 -1.654703 -5.790408  0.826024  0.712440 -0.132424
  0N   3px       -1.658711  1.255041 -1.877297 -5.830735 -0.550887 -0.007373
  0N   3py        0.375762 -3.194395  2.254121 -2.736087  1.379409  0.065110
  0N   1dz2      -0.005359 -0.002229 -0.009721 -0.006444  0.003342 -0.002796
  0N   1dxz       0.000203 -0.002518 -0.008405  0.002206  0.003826  0.005719
  0N   1dyz      -0.005977  0.006338 -0.004417  0.005688 -0.009613 -0.002589
  0N   1dx2y2     0.000715 -0.005116 -0.000921  0.010843  0.007818 -0.001637
  0N   1dxy      -0.006249 -0.004849  0.003996 -0.002249  0.007397 -0.003327
  0N   2dz2       0.086226  0.006699  0.106365  0.034306 -0.028131 -0.114322
  0N   2dxz       0.053682  0.007576  0.041438  0.015074 -0.032189  0.110387
  0N   2dyz       0.008233 -0.018787  0.068002 -0.030795  0.080900 -0.098695
  0N   2dx2y2    -0.027443  0.015103  0.018924 -0.112201 -0.065789 -0.062645
  0N   2dxy      -0.026828  0.014686 -0.001086  0.055296 -0.062255 -0.067287
  0N   3dz2       1.810476 -0.206842  1.989858  0.515916 -0.203327  0.212202
  0N   3dxz       1.380466 -0.235976  0.597257  0.419942 -0.233328 -0.864865
  0N   3dyz      -0.217396  0.599139  1.341011 -0.467874  0.586764  0.222005
  0N   3dx2y2    -0.649151 -0.488121  0.385396 -2.077904 -0.477797  0.139462
  0N   3dxy      -1.131908 -0.453836  0.130283  1.144114 -0.451389  0.492212
  0N   1f0       -0.035519 -0.034690 -0.021528 -0.027652  0.094828  0.001147
  0N   1f+1      -0.014790 -0.033554 -0.022851  0.022919  0.112202 -0.000007
  0N   1f-1      -0.010017 -0.006303 -0.010594 -0.005808  0.019454  0.008468
  0N   1f+2       0.001647 -0.025626  0.012669 -0.019824  0.062616 -0.003472
  0N   1f-2      -0.015064  0.003829 -0.021910  0.015987 -0.034026  0.000255
  0N   1f+3       0.043107 -0.038898  0.030059  0.020705  0.105517 -0.000076
  0N   1f-3       0.002121 -0.000330  0.008675 -0.017866  0.012084 -0.003483
  1H   1s         0.042201 -0.018566  0.008734  0.027259  0.097651 -0.000836
  1H   2s         2.530807 -1.206161  1.505036  4.678844  3.226648 -0.015309
  1H   3s         1.749925 -0.084073  0.213314  0.666772  1.245301 -0.066249
  1H   1pz        0.003319 -0.003006 -0.004677  0.001067 -0.001853 -0.007334
  1H   1px        0.006541 -0.014320  0.008050  0.024995  0.026058  0.000011
  1H   1py       -0.004313 -0.005799  0.002120 -0.001506 -0.003574  0.007054
  1H   2pz       -0.040071  0.008509 -0.014027  0.022556  0.037774  0.066546
  1H   2px       -0.131941  0.238815 -0.127537 -0.396062 -0.525916 -0.002679
  1H   2py       -0.003742  0.016473  0.020070  0.028161  0.072940 -0.094840
  1H   3pz       -0.738640  0.491608  0.971784 -0.254020  0.138258  0.682478
  1H   3px       -1.259747  0.065292 -0.034178 -0.109528 -1.372304  0.040125
  1H   3py        0.665892  0.947655 -0.461902  0.261054  0.266895 -0.328418
  1H   1dz2      -0.032525  0.010713 -0.016008 -0.016082 -0.067147 -0.030151
  1H   1dxz       0.015542 -0.014193 -0.031877  0.007827 -0.013268 -0.048685
  1H   1dyz       0.000345  0.008374 -0.007914  0.002966  0.000023 -0.022791
  1H   1dx2y2     0.041083 -0.030418  0.004859  0.034617  0.116275 -0.016972
  1H   1dxy      -0.020211 -0.027361  0.014795 -0.009427 -0.025639  0.026248
  2H   1s         0.019576 -0.018469  0.019087 -0.021114  0.097587 -0.013809
  2H   2s         1.176547 -1.218808  3.296032 -3.640456  3.224989 -0.245402
  2H   3s         0.812658 -0.081080  0.468197 -0.519856  1.245018 -1.066917
  2H   1pz        0.004493 -0.011538  0.006278 -0.011519  0.010682  0.026920
  2H   1px        0.004643  0.007863 -0.008855  0.003208 -0.006788 -0.026467
  2H   1py       -0.002895  0.007471 -0.014453  0.015735 -0.023130  0.028127
  2H   2pz       -0.062563  0.134025 -0.135767  0.130012 -0.215020 -0.543389
  2H   2px       -0.010207 -0.088717  0.067508 -0.102132  0.136574  0.468761
  2H   2py        0.041324 -0.179590  0.236247 -0.261405  0.467383 -0.490792
  2H   3pz       -0.931488  0.717565  0.496664  0.419527 -0.505766  0.791272
  2H   3px       -0.864742 -0.519191  0.671078  0.634506  0.315946 -0.044246
  2H   3py        0.502995  0.600375  0.132000 -0.105653  1.271803 -0.287223
  2H   1dz2       0.004691 -0.013265 -0.025686 -0.013355 -0.031290 -0.020413
  2H   1dxz      -0.001812  0.015304 -0.015408 -0.000712 -0.026382 -0.038172
  2H   1dyz      -0.030953  0.032206 -0.009759  0.027114 -0.088169  0.006017
  2H   1dx2y2    -0.019255 -0.009574 -0.003113  0.026071 -0.078840  0.014541
  2H   1dxy      -0.013632 -0.022907  0.024323 -0.001231  0.056591  0.007494
  3H   1s        -0.061813 -0.018431 -0.027723 -0.005939  0.097562  0.014746
  3H   2s        -3.715255 -1.219973 -4.798492 -1.031165  3.223681  0.259772
  3H   3s        -2.563590 -0.079472 -0.681915 -0.147027  1.244941  1.132972
  3H   1pz        0.009106  0.012778  0.023903  0.006834 -0.025044 -0.007474
  3H   1px        0.002770  0.007879  0.009056 -0.002550 -0.006789  0.027128
  3H   1py        0.004003 -0.005099  0.002440 -0.002132 -0.004647 -0.041211
  3H   2pz       -0.176493 -0.224238 -0.388608 -0.075949  0.505605  0.087897
  3H   2px       -0.087661 -0.088806 -0.114354 -0.043611  0.136591 -0.487579
  3H   2py        0.014855  0.005556 -0.047105 -0.021549  0.094564  0.778835
  3H   3pz       -1.700841  0.077306 -0.045644 -0.369925  1.330275  0.705005
  3H   3px       -0.661891 -0.520045 -0.173099  0.906307  0.315943  0.123705
  3H   3py       -0.528600  0.932426 -0.227172  0.509553  0.321857 -0.463876
  3H   1dz2      -0.062619 -0.020756 -0.029639 -0.024492  0.117464  0.010959
  3H   1dxz      -0.041124 -0.027559 -0.023671  0.016277  0.061420 -0.026679
  3H   1dyz      -0.022700  0.026048 -0.011159  0.017402  0.033434 -0.008404
  3H   1dx2y2    -0.001087 -0.013937 -0.006888  0.020086  0.007045 -0.013916
  3H   1dxy      -0.002716 -0.000741 -0.001959 -0.000185  0.011157  0.027333
                     30        31        32        33        34        35   
                   1.72112   1.76379   1.77207   1.87397   1.87402   2.02551
                   0.00000   0.00000   0.00000   0.00000   0.00000   0.00000
                  --------  --------  --------  --------  --------  --------
  0N   1s         0.000026  0.000010 -0.019933 -0.000004 -0.000005 -0.000001
  0N   2s         0.000039  0.000019 -0.032837 -0.000007 -0.000014 -0.000003
  0N   1pz        0.009501  0.000026  0.040090  0.030389  0.001814  0.176161
  0N   1px        0.084483  0.000010 -0.030697  0.007220 -0.030954 -0.077584
  0N   1py        0.028534 -0.000041  0.077515 -0.012830 -0.013226 -0.122002
  0N   3s        -0.000496 -0.000191  0.386479  0.000065  0.000111  0.000005
  0N   2pz        0.013225 -0.000103  0.055363 -0.078258 -0.004711 -0.141229
  0N   2px        0.118301 -0.000125 -0.042220 -0.018526  0.079831  0.062214
  0N   2py        0.039934 -0.000014  0.106754  0.033094  0.034160  0.097775
  0N   4s         0.004731  0.000988 -3.079408 -0.000156  0.000013  0.000452
  0N   3pz       -0.016776 -0.000333  0.638573  2.745388  0.161861 -1.066201
  0N   3px       -0.137873 -0.000304 -0.491214  0.655144 -2.801568  0.469211
  0N   3py       -0.048797 -0.000513  1.235476 -1.159215 -1.198649  0.738226
  0N   1dz2       0.002668 -0.000005 -0.000612 -0.003454  0.006241 -0.000023
  0N   1dxz      -0.003187 -0.000001 -0.000706 -0.008376 -0.003808 -0.000679
  0N   1dyz      -0.003644 -0.000002  0.001771 -0.000418 -0.005193 -0.000319
  0N   1dx2y2     0.001064  0.000001 -0.001443  0.000011 -0.004994 -0.000301
  0N   1dxy      -0.005410  0.000001 -0.001374  0.005337 -0.002325  0.000263
  0N   2dz2       0.027909  0.000084 -0.059796 -0.110503  0.182301  0.295370
  0N   2dxz      -0.085966  0.000064 -0.068416 -0.242444 -0.105758  0.176309
  0N   2dyz      -0.076303 -0.000050  0.171503 -0.020253 -0.150343  0.378467
  0N   2dx2y2     0.080616 -0.000062 -0.139439 -0.002862 -0.154990  0.439580
  0N   2dxy      -0.151589  0.000083 -0.132348  0.151997 -0.059289 -0.197566
  0N   3dz2      -0.485514  0.000083  0.158366 -0.658913 -0.336955 -0.290556
  0N   3dxz       0.396303 -0.000180  0.181840  0.638455  0.679882  0.406762
  0N   3dyz       0.530997  0.000117 -0.455771 -0.694917  0.392629 -0.119195
  0N   3dx2y2     0.046361 -0.000166  0.371627 -0.299770 -0.539129 -0.199745
  0N   3dxy       0.653315 -0.000085  0.352265 -0.618392  0.881196 -0.022716
  0N   1f0        0.003403 -0.016737  0.009006 -0.000353 -0.000695 -0.000393
  0N   1f+1      -0.002276  0.008228  0.025345 -0.006986  0.000332 -0.012448
  0N   1f-1       0.001737  0.013868  0.003487  0.019018  0.001093  0.012062
  0N   1f+2      -0.002426  0.019103  0.000487 -0.006038  0.008968  0.005560
  0N   1f-2       0.002834  0.007365 -0.020295 -0.003788 -0.010237 -0.013868
  0N   1f+3       0.000372 -0.006350  0.009216  0.006868 -0.006646  0.004125
  0N   1f-3       0.007992  0.009949  0.009341 -0.002522 -0.016840 -0.004931
  1H   1s        -0.016236 -0.000097 -0.065018  0.011538 -0.048697  0.177066
  1H   2s        -0.293753  0.000398  0.894665 -0.478509  2.044762 -0.636874
  1H   3s        -1.270690  0.000404  0.238358 -0.356810  1.525661 -0.519496
  1H   1pz        0.026001 -0.031442  0.019023  0.047010  0.011473  0.021472
  1H   1px        0.000205  0.000003  0.008061 -0.000250  0.001043  0.002094
  1H   1py        0.049181  0.016238  0.036828 -0.024571 -0.004807 -0.012514
  1H   2pz       -0.478158  0.662419 -0.335935 -0.892539 -0.185447 -0.362323
  1H   2px       -0.051044 -0.000068 -0.059315 -0.049832  0.213732 -0.108196
  1H   2py       -0.913170 -0.342164 -0.650398  0.448875  0.149886  0.217862
  1H   3pz        0.157540 -0.665107 -0.050118 -0.151352 -0.255598 -0.114494
  1H   3px        0.768803 -0.000257 -0.380968  0.260078 -1.111852  0.575767
  1H   3py        0.390818  0.343947 -0.096804  0.197961 -0.379623 -0.083276
  1H   1dz2      -0.015330  0.018761  0.000890  0.015058 -0.045949  0.077489
  1H   1dxz       0.010869  0.029299 -0.002452  0.025857  0.028590 -0.028978
  1H   1dyz       0.022805  0.015335 -0.049997  0.003025  0.002212  0.034183
  1H   1dx2y2    -0.000459  0.010856  0.069234 -0.016170  0.079743 -0.058897
  1H   1dxy       0.014726 -0.015160 -0.004725 -0.025621  0.037582  0.047560
  2H   1s         0.009067  0.000018 -0.065107  0.036455  0.034239 -0.484379
  2H   2s         0.157988 -0.000471  0.896395 -1.531351 -1.436284  1.742658
  2H   3s         0.692295 -0.000609  0.241782 -1.142697 -1.071692  1.422018
  2H   1pz       -0.024243  0.020409  0.030538  0.020619 -0.023726  0.001626
  2H   1px        0.007706  0.028892 -0.022175  0.031025 -0.031874  0.003630
  2H   1py       -0.018600  0.000944  0.018714  0.001167 -0.000894  0.006744
  2H   2pz        0.424261 -0.430108 -0.496835 -0.509250  0.333517  0.063308
  2H   2px       -0.204734 -0.608731  0.363605 -0.502449  0.677108 -0.120477
  2H   2py        0.322517 -0.019866 -0.396424  0.086361  0.118486 -0.282077
  2H   3pz        0.007918  0.432324 -0.264608  0.549869  0.698781 -0.586130
  2H   3px        0.766379  0.611249  0.180716 -0.567477 -0.272950  0.353560
  2H   3py        0.210209  0.019744  0.237238 -0.458289 -0.421496  1.461003
  2H   1dz2      -0.051841 -0.033715 -0.013779  0.002997 -0.027248 -0.071863
  2H   1dxz      -0.002345 -0.014020  0.032229  0.043508  0.027889 -0.023018
  2H   1dyz       0.007338  0.004910 -0.063419  0.045229  0.061194 -0.155785
  2H   1dx2y2     0.026955  0.018932 -0.005219  0.001442  0.016943 -0.155614
  2H   1dxy       0.014552  0.008816  0.045272 -0.051204 -0.019829  0.113307
  3H   1s         0.007598  0.000042 -0.065154 -0.047880  0.014521  0.307443
  3H   2s         0.131326 -0.000592  0.896168  2.009768 -0.608633 -1.106347
  3H   3s         0.577392 -0.000086  0.241874  1.499617 -0.453944 -0.902585
  3H   1pz       -0.000388  0.011028 -0.002376  0.004068  0.016496  0.002760
  3H   1px        0.004901 -0.028887 -0.022174 -0.013686 -0.042318 -0.017122
  3H   1py       -0.026393 -0.017221  0.035720 -0.006867 -0.025572 -0.012138
  3H   2pz        0.008820 -0.232351 -0.036373 -0.284348 -0.247836  0.073156
  3H   2px       -0.154650  0.608699  0.363707  0.150327  0.829566  0.328389
  3H   2py        0.454138  0.362787 -0.634184  0.176643  0.467307  0.220597
  3H   3pz        0.094128  0.233170  0.346784  0.951792 -0.363547 -0.986222
  3H   3px        0.757300 -0.611728  0.180225  0.629804  0.007035 -0.186583
  3H   3py        0.177033 -0.364204 -0.079183 -0.309842  0.211429 -0.209553
  3H   1dz2      -0.022870  0.014888  0.054842  0.060406 -0.036848 -0.117502
  3H   1dxz       0.016065 -0.015334  0.018324  0.074327  0.000723 -0.099513
  3H   1dyz       0.033118 -0.020259 -0.007363 -0.026014  0.025729 -0.058664
  3H   1dx2y2     0.046096 -0.029790  0.034340  0.020615  0.008145  0.014072
  3H   1dxy       0.003675  0.006324  0.052482 -0.010289  0.007540 -0.054340
                     36        37        38        39        40        41   
                   2.02552   2.19071   2.39523   2.47698   2.47699   2.74546
                   0.00000   0.00000   0.00000   0.00000   0.00000   0.00000
                  --------  --------  --------  --------  --------  --------
  0N   1s         0.000000 -0.045742  0.006280 -0.000004 -0.000001  0.045707
  0N   2s        -0.000006 -0.067154  0.045532 -0.000009  0.000001  0.099694
  0N   1pz       -0.105637 -0.084910  0.001388 -0.056153 -0.012471  0.100653
  0N   1px       -0.200379  0.065332 -0.001062  0.002852 -0.060091 -0.077633
  0N   1py       -0.025106 -0.164156  0.002616  0.030176 -0.017471  0.194492
  0N   3s         0.000024  0.487201 -0.076285  0.000049 -0.000005 -0.218309
  0N   2pz        0.084615  0.066268  0.224951  0.321429  0.071305  0.232972
  0N   2px        0.160617 -0.050974 -0.173256 -0.016301  0.344033 -0.177973
  0N   2py        0.020078  0.128159  0.435120 -0.172816  0.100098  0.450443
  0N   4s         0.000880 -4.644332 -6.922333  0.000368 -0.000498 -6.907454
  0N   3pz        0.638938  0.436614  0.513419  0.653294  0.144914  1.041344
  0N   3px        1.212255 -0.335907 -0.395235 -0.033140  0.699346 -0.796950
  0N   3py        0.151780  0.843984  0.992845 -0.351269  0.203471  2.012716
  0N   1dz2       0.000619 -0.000787  0.004309  0.012132 -0.003925 -0.000787
  0N   1dxz       0.000157 -0.000901  0.004931 -0.015644  0.008520 -0.000928
  0N   1dyz      -0.000270  0.002262 -0.012398  0.009256  0.010772  0.002328
  0N   1dx2y2    -0.000385 -0.001841  0.010083  0.007205 -0.006495 -0.001933
  0N   1dxy      -0.000307 -0.001741  0.009537  0.007019  0.018236 -0.001789
  0N   2dz2      -0.510985 -0.110242  0.086897  0.248634 -0.254543 -0.151768
  0N   2dxz      -0.197159 -0.126158  0.099327 -0.581066  0.232953 -0.173602
  0N   2dyz      -0.063945  0.316891 -0.249615  0.175932  0.367873  0.435824
  0N   2dx2y2     0.399842 -0.257738  0.203047  0.138546 -0.041267 -0.354230
  0N   2dxy      -0.172693 -0.243898  0.192000  0.270422  0.516363 -0.335502
  0N   3dz2      -0.003499  0.047979 -0.198898 -0.479068  0.080621 -0.002310
  0N   3dxz       0.069817  0.055003 -0.227494  0.506493 -0.311567 -0.001473
  0N   3dyz       0.302651 -0.137991  0.571913 -0.371320 -0.362501  0.003779
  0N   3dx2y2    -0.084693  0.112286 -0.465194 -0.288417  0.295714 -0.001474
  0N   3dxy       0.448300  0.106304 -0.440018 -0.223130 -0.659150 -0.003006
  0N   1f0        0.008342  0.076692  0.173648  0.005211  0.026085  0.049665
  0N   1f+1       0.002548  0.045024  0.275941 -0.006141 -0.018573  0.112324
  0N   1f-1      -0.005181  0.010668  0.043428  0.081553  0.023465  0.016175
  0N   1f+2       0.010585  0.067560  0.088590 -0.027092 -0.032005  0.012780
  0N   1f-2      -0.004760  0.025598 -0.144215 -0.007736  0.030787 -0.080527
  0N   1f+3      -0.016224  0.087713  0.189548  0.004837  0.012611  0.051915
  0N   1f-3      -0.008023 -0.015620  0.061267 -0.039007  0.073142  0.036350
  1H   1s         0.457178 -0.498417 -0.619566 -0.008066  0.170013 -0.185302
  1H   2s        -1.644791  1.528389  3.004111  0.047722 -1.008685  2.786109
  1H   3s        -1.341821  0.311735  0.233755 -0.010850  0.228072  0.284117
  1H   1pz       -0.010025 -0.006024  0.002878 -0.015490  0.006946 -0.003166
  1H   1px        0.005412 -0.012457  0.017695  0.000610 -0.012950  0.051325
  1H   1py        0.001546 -0.011647  0.005566  0.007123  0.015183 -0.006113
  1H   2pz        0.177345  0.101083 -0.006485  0.280387 -0.123468  0.064902
  1H   2px       -0.279536  0.249104 -0.560340 -0.011353  0.240422 -0.975096
  1H   2py       -0.012961  0.195473 -0.012368 -0.129205 -0.270564  0.125546
  1H   3pz       -0.128403 -0.079701  0.101878 -0.469924  0.209336 -0.154086
  1H   3px        1.487083 -0.837866 -0.617751 -0.000839  0.018387 -0.439246
[...]
   62. RY ( 8) H  3             0.00000     1.77888
   63. RY ( 9) H  3             0.00000     7.34391
   64. RY (10) H  3             0.00000     1.81895
   65. RY (11) H  3             0.00000     7.00423
   66. RY (12) H  3             0.00000     2.81419
   67. RY (13) H  3             0.00000     3.08208
   68. RY (14) H  3             0.00000     3.06995
   69. RY (15) H  3             0.00000     3.07797
   70. RY (16) H  3             0.00000     3.38384
   71. RY ( 1) H  4             0.00356     0.54761
   72. RY ( 2) H  4             0.00061     0.93544
   73. RY ( 3) H  4             0.00014     2.01892
   74. RY ( 4) H  4             0.00001     3.96121
   75. RY ( 5) H  4             0.00000     1.28178
   76. RY ( 6) H  4             0.00000     5.35995
   77. RY ( 7) H  4             0.00000     1.50800
   78. RY ( 8) H  4             0.00000     1.78925
   79. RY ( 9) H  4             0.00000     6.77902
   80. RY (10) H  4             0.00000     2.34112
   81. RY (11) H  4             0.00000     7.34803
   82. RY (12) H  4             0.00000     2.96903
   83. RY (13) H  4             0.00000     3.54417
   84. RY (14) H  4             0.00000     3.72181
   85. RY (15) H  4             0.00000     2.98102
   86. RY (16) H  4             0.00000     3.87686
          -------------------------------
                 Total Lewis    9.98699  ( 99.8699%)
           Valence non-Lewis    0.00004  (  0.0004%)
           Rydberg non-Lewis    0.01297  (  0.1297%)
          -------------------------------
               Total unit  1   10.00000  (100.0000%)
              Charge unit  1    0.00000

 $CHOOSE
   LONE 1 1 END
   BOND S 1 2 S 1 3 S 1 4 END
 $END

 NBO analysis completed in 0.12 CPU seconds (0 wall seconds)
 Maximum scratch memory used by NBO was 510233 words (3.89 MB)
Stopping NBO...Storing NBOs: NH3.nbo

                                *** returned from  NBO  program ***

-------
TIMINGS
-------

Total SCF time: 0 days 0 hours 0 min 2 sec 

Total time                  ....       2.175 sec
Sum of individual times     ....       1.888 sec  ( 86.8%)

Fock matrix formation       ....       0.930 sec  ( 42.7%)
  Split-RI-J                ....       0.581 sec  ( 62.5% of F)
  XC integration            ....       0.298 sec  ( 32.1% of F)
    Basis function eval.    ....       0.032 sec  ( 10.7% of XC)
    Density eval.           ....       0.034 sec  ( 11.4% of XC)
    XC-Functional eval.     ....       0.011 sec  (  3.6% of XC)
    XC-Potential eval.      ....       0.041 sec  ( 13.6% of XC)
Diagonalization             ....       0.003 sec  (  0.2%)
Density matrix formation    ....       0.011 sec  (  0.5%)
Population analysis         ....       0.256 sec  ( 11.8%)
Initial guess               ....       0.009 sec  (  0.4%)
Orbital Transformation      ....       0.000 sec  (  0.0%)
Orbital Orthonormalization  ....       0.002 sec  (  0.1%)
DIIS solution               ....       0.001 sec  (  0.0%)
SOSCF solution              ....       0.012 sec  (  0.5%)
Grid generation             ....       0.666 sec  ( 30.6%)


-------------------------------------------------------------------------------
                          DFT DISPERSION CORRECTION                            
                                                                               
                                 DFTD4 V2.0                                    
-------------------------------------------------------------------------------
The revPBE functional is recognized
Active option DFTDOPT                   ...         5   

-------------------------   ----------------
Dispersion correction           -0.002023211
-------------------------   ----------------

NOTIFICATION: Different basis set in ORCA and otool_gcp:
ORCA: 86  gCP: 49 
If you are NOT using ECPs, check your basis set inputs!
------------------   -----------------
gCP correction             0.002529881
------------------   -----------------

-------------------------   --------------------
FINAL SINGLE POINT ENERGY       -56.562439389910
-------------------------   --------------------

                                *** OPTIMIZATION RUN DONE ***

                            ***************************************
                            *     ORCA property calculations      *
                            ***************************************

                                    ---------------------
                                    Active property flags
                                    ---------------------
   (+) Dipole Moment


------------------------------------------------------------------------------
                       ORCA ELECTRIC PROPERTIES CALCULATION
------------------------------------------------------------------------------

Dipole Moment Calculation                       ... on
Quadrupole Moment Calculation                   ... off
Polarizability Calculation                      ... off
GBWName                                         ... NH3.gbw
Electron density file                           ... NH3.scfp
The origin for moment calculation is the CENTER OF MASS  = (-4.587796, -5.319773 -0.017159)

-------------
DIPOLE MOMENT
-------------
                                X             Y             Z
Electronic contribution:     -0.12547       0.31526       0.16308
Nuclear contribution   :      0.31531      -0.79215      -0.40977
                        -----------------------------------------
Total Dipole Moment    :      0.18985      -0.47689      -0.24669
                        -----------------------------------------
Magnitude (a.u.)       :      0.56949
Magnitude (Debye)      :      1.44754



--------------------
Rotational spectrum 
--------------------
 
Rotational constants in cm-1:     9.628687     9.628611     6.313325 
Rotational constants in MHz : 288660.788870 288658.494848 189268.725708 

 Dipole components along the rotational axes: 
x,y,z [a.u.] :    -0.000013     0.000006    -0.569494 
x,y,z [Debye]:    -0.000034     0.000015    -1.447539 

 


           ************************************************************
           *        Program running with 12 parallel MPI-processes    *
           *              working on a common directory               *
           ************************************************************

-------------------------------------------------------------------------------
                               ORCA SCF HESSIAN
-------------------------------------------------------------------------------

Hessian of the Kohn-Sham DFT energy:
Kohn-Sham wavefunction type                      ... RKS
Hartree-Fock exchange scaling                    ...    0.000
Number of operators                              ...    1
Number of atoms                                  ...    4
Basis set dimensions                             ...   86
Integral neglect threshold                       ... 2.5e-11
Integral primitive cutoff                        ... 2.5e-12

Setting up DFT Hessian calculations              ... 
Electron density on the grid                     ... found on disk
Electron density on the final grid               ... found on disk
Building xc-kernel on the grid                   ... done   (      0.0 sec)
Building xc-kernel on the final grid             ... done   (      0.0 sec)
                                                     done   (      0.3 sec)

Nuclear repulsion Hessian                        ... done   (      0.0 sec)

----------------------------------------------
Forming right-hand sides of CP-SCF equations     ...
----------------------------------------------
One electron integral derivatives                ... done   (      0.2 sec)
Transforming the overlap derivative matrices     ... done   (      0.0 sec)
Making the Q(x) pseudodensities                  ... done   (      0.0 sec)
Adding the E*S(x)*S(y) terms to the Hessian      ... done   (      0.0 sec)
Calculating energy weighted overlap derivatives  ... done   (      0.0 sec)
Two electron integral derivatives (RI)           ... done   (      0.3 sec)
Exchange-correlation integral derivatives        ... done   (      0.8 sec)
tr(F(y)Q(x)) contribution to the Hessian         ... done   (      0.0 sec)
Response fock operator R(S(x)) (RI)              ... done   (      0.2 sec)
XC Response fock operator R(S(x))                ... done   (      0.2 sec)
tr(F(y)S(x)) contribution to the Hessian         ... done   (      0.0 sec)
Transforming and finalizing RHSs                 ... done   (      0.0 sec)

----------------------------------------------
Solving the CP-SCF equations (RI)                ...
----------------------------------------------
     CP-SCF ITERATION   0: 
     CP-SCF ITERATION   1:      0.001277923218
     CP-SCF ITERATION   2:      0.000024367596
     CP-SCF ITERATION   3:      0.000000221523
     CP-SCF ITERATION   4:      0.000000006771

                                                 ... done   (      2.1 sec)
Forming perturbed density Hessian contributions  ... done   (      0.0 sec)
Making the perturbed densities                   ... done   (      0.0 sec)
2nd integral derivative contribs (RI)            ... done   (      0.6 sec)
Exchange-correlation Hessian                     ... done   (      1.1 sec)
Dispersion correction in the Hessian             ... 

------------------- 
Dispersion Gradient 
------------------- 
   1  :    0.000122933   -0.000308889   -0.000159782
   2  :   -0.000199537    0.000054526    0.000028205
   3  :    0.000037961    0.000194455   -0.000061636
   4  :    0.000037963    0.000062051    0.000194322

  |G| =    0.001462262



------------------- 
Dispersion Gradient 
------------------- 
   1  :    0.000123174   -0.000309386   -0.000160039
   2  :   -0.000197464    0.000054246    0.000028060
   3  :    0.000036640    0.000195099   -0.000061999
   4  :    0.000036641    0.000062127    0.000195058

  |G| =    0.001459933

done   (      0.1 sec)
gCP correction in the Hessian                    ... done   (      0.0 sec)
Dipol derivatives                                ... done   (      0.2 sec)

Total SCF Hessian time: 0 days 0 hours 0 min 6 sec 

Writing the Hessian file to the disk             ... done


Maximum memory used throughout the entire calculation: 181.8 MB

-----------------------
VIBRATIONAL FREQUENCIES
-----------------------

Scaling factor for frequencies =  1.000000000  (already applied!)

   0:         0.00 cm**-1
   1:         0.00 cm**-1
   2:         0.00 cm**-1
   3:         0.00 cm**-1
   4:         0.00 cm**-1
   5:         0.00 cm**-1
   6:      1075.39 cm**-1
   7:      1629.12 cm**-1
   8:      1629.14 cm**-1
   9:      3358.25 cm**-1
  10:      3471.43 cm**-1
  11:      3471.46 cm**-1


------------
NORMAL MODES
------------

These modes are the Cartesian displacements weighted by the diagonal matrix
M(i,i)=1/sqrt(m[i]) where m[i] is the mass of the displaced atom
Thus, these vectors are normalized but *not* orthogonal

                  0          1          2          3          4          5    
      0       0.000000   0.000000   0.000000   0.000000   0.000000   0.000000
      1       0.000000   0.000000   0.000000   0.000000   0.000000   0.000000
      2       0.000000   0.000000   0.000000   0.000000   0.000000   0.000000
      3       0.000000   0.000000   0.000000   0.000000   0.000000   0.000000
      4       0.000000   0.000000   0.000000   0.000000   0.000000   0.000000
      5       0.000000   0.000000   0.000000   0.000000   0.000000   0.000000
      6       0.000000   0.000000   0.000000   0.000000   0.000000   0.000000
      7       0.000000   0.000000   0.000000   0.000000   0.000000   0.000000
      8       0.000000   0.000000   0.000000   0.000000   0.000000   0.000000
      9       0.000000   0.000000   0.000000   0.000000   0.000000   0.000000
     10       0.000000   0.000000   0.000000   0.000000   0.000000   0.000000
     11       0.000000   0.000000   0.000000   0.000000   0.000000   0.000000
                  6          7          8          9         10         11    
      0      -0.038252  -0.060430  -0.013406   0.013116   0.026774  -0.068638
      1       0.096103  -0.025507   0.025241  -0.032967  -0.025046  -0.034599
      2       0.049714   0.002814  -0.059106  -0.017061   0.069008   0.014073
      3      -0.025836  -0.050125  -0.011120  -0.576728  -0.295221   0.756736
      4      -0.508889  -0.183874  -0.396691  -0.009344   0.003905  -0.043185
      5      -0.263253  -0.279507   0.625994  -0.004837   0.029537  -0.011606
      6       0.278686   0.348434   0.533669   0.197215   0.172174   0.180662
      7      -0.327578   0.109990  -0.090160   0.451485   0.421490   0.525036
      8      -0.379430   0.468230   0.134611  -0.300089  -0.227740  -0.308486
      9       0.278699   0.541414  -0.336258   0.197261  -0.248995   0.016392
     10      -0.498960   0.428331   0.136110   0.015958  -0.077359  -0.001075
     11      -0.048132  -0.227824   0.060726   0.542006  -0.760726   0.124543


-----------
IR SPECTRUM
-----------

 Mode    freq (cm**-1)   T**2         TX         TY         TZ
-------------------------------------------------------------------
   6:      1075.39   98.726338  (  3.311922  -8.320487  -4.304301)
   7:      1629.12   11.555296  (  3.128391   1.321922  -0.144862)
   8:      1629.14   11.555034  (  0.693927  -1.306159   3.060629)
   9:      3358.25    8.875163  (  0.993309  -2.494794  -1.290157)
  10:      3471.43    0.035364  ( -0.064937   0.060282  -0.165871)
  11:      3471.46    0.035439  (  0.165289   0.083424  -0.034043)

The first frequency considered to be a vibration is 6
The total number of vibrations considered is 6


--------------------------
THERMOCHEMISTRY AT 298.15K
--------------------------

Temperature         ... 298.15 K
Pressure            ... 1.00 atm
Total Mass          ... 17.03 AMU

Throughout the following assumptions are being made:
  (1) The electronic state is orbitally nondegenerate
  (2) There are no thermally accessible electronically excited states
  (3) Hindered rotations indicated by low frequency modes are not
      treated as such but are treated as vibrations and this may
      cause some error
  (4) All equations used are the standard statistical mechanics
      equations for an ideal gas
  (5) All vibrations are strictly harmonic

freq.    1075.39  E(vib)   ...       0.02 
freq.    1629.12  E(vib)   ...       0.00 
freq.    1629.14  E(vib)   ...       0.00 
freq.    3358.25  E(vib)   ...       0.00 
freq.    3471.43  E(vib)   ...       0.00 
freq.    3471.46  E(vib)   ...       0.00 

------------
INNER ENERGY
------------

The inner energy is: U= E(el) + E(ZPE) + E(vib) + E(rot) + E(trans)
    E(el)   - is the total energy from the electronic structure calculation
              = E(kin-el) + E(nuc-el) + E(el-el) + E(nuc-nuc)
    E(ZPE)  - the the zero temperature vibrational energy from the frequency calculation
    E(vib)  - the the finite temperature correction to E(ZPE) due to population
              of excited vibrational states
    E(rot)  - is the rotational thermal energy
    E(trans)- is the translational thermal energy

Summary of contributions to the inner energy U:
Electronic energy                ...    -56.56243939 Eh
Zero point energy                ...      0.03334050 Eh      20.92 kcal/mol
Thermal vibrational correction   ...      0.00003320 Eh       0.02 kcal/mol
Thermal rotational correction    ...      0.00141627 Eh       0.89 kcal/mol
Thermal translational correction ...      0.00141627 Eh       0.89 kcal/mol
-----------------------------------------------------------------------
Total thermal energy                    -56.52623315 Eh


Summary of corrections to the electronic energy:
(perhaps to be used in another calculation)
Total thermal correction                  0.00286574 Eh       1.80 kcal/mol
Non-thermal (ZPE) correction              0.03334050 Eh      20.92 kcal/mol
-----------------------------------------------------------------------
Total correction                          0.03620624 Eh      22.72 kcal/mol


--------
ENTHALPY
--------

The enthalpy is H = U + kB*T
                kB is Boltzmann's constant
Total free energy                 ...    -56.52623315 Eh 
Thermal Enthalpy correction       ...      0.00094421 Eh       0.59 kcal/mol
-----------------------------------------------------------------------
Total Enthalpy                    ...    -56.52528894 Eh


Note: Only C1 symmetry has been detected, increase convergence thresholds 
      if your molecule has a higher symmetry. Symmetry factor of 1.0 is   
      used for the rotational entropy correction. 
 

Note: Rotational entropy computed according to Herzberg 
Infrared and Raman Spectra, Chapter V,1, Van Nostrand Reinhold, 1945 
Point Group:  C1, Symmetry Number:   1  
Rotational constants in cm-1:     9.628687     9.628611     6.313325 

Vibrational entropy computed according to the QRRHO of S. Grimme
Chem.Eur.J. 2012 18 9955


-------
ENTROPY
-------

The entropy contributions are T*S = T*(S(el)+S(vib)+S(rot)+S(trans))
     S(el)   - electronic entropy
     S(vib)  - vibrational entropy
     S(rot)  - rotational entropy
     S(trans)- translational entropy
The entropies will be listed as mutliplied by the temperature to get
units of energy

Electronic entropy                ...      0.00000000 Eh      0.00 kcal/mol
Vibrational entropy               ...      0.00003922 Eh      0.02 kcal/mol
Rotational entropy                ...      0.00650258 Eh      4.08 kcal/mol
Translational entropy             ...      0.01636425 Eh     10.27 kcal/mol
-----------------------------------------------------------------------
Final entropy term                ...      0.02290605 Eh     14.37 kcal/mol

In case the symmetry of your molecule has not been determined correctly
or in case you have a reason to use a different symmetry number we print 
out the resulting rotational entropy values for sn=1,12 :
 --------------------------------------------------------
|  sn= 1 | S(rot)=       0.00650258 Eh      4.08 kcal/mol|
|  sn= 2 | S(rot)=       0.00584812 Eh      3.67 kcal/mol|
|  sn= 3 | S(rot)=       0.00546529 Eh      3.43 kcal/mol|
|  sn= 4 | S(rot)=       0.00519367 Eh      3.26 kcal/mol|
|  sn= 5 | S(rot)=       0.00498298 Eh      3.13 kcal/mol|
|  sn= 6 | S(rot)=       0.00481083 Eh      3.02 kcal/mol|
|  sn= 7 | S(rot)=       0.00466529 Eh      2.93 kcal/mol|
|  sn= 8 | S(rot)=       0.00453921 Eh      2.85 kcal/mol|
|  sn= 9 | S(rot)=       0.00442800 Eh      2.78 kcal/mol|
|  sn=10 | S(rot)=       0.00432852 Eh      2.72 kcal/mol|
|  sn=11 | S(rot)=       0.00423853 Eh      2.66 kcal/mol|
|  sn=12 | S(rot)=       0.00415638 Eh      2.61 kcal/mol|
 --------------------------------------------------------


-------------------
GIBBS FREE ENERGY
-------------------

The Gibbs free energy is G = H - T*S

Total enthalpy                    ...    -56.52528894 Eh 
Total entropy correction          ...     -0.02290605 Eh    -14.37 kcal/mol
-----------------------------------------------------------------------
Final Gibbs free energy         ...    -56.54819499 Eh

For completeness - the Gibbs free energy minus the electronic energy
G-E(el)                           ...      0.01424440 Eh      8.94 kcal/mol


Timings for individual modules:

Sum of individual times         ...       29.481 sec (=   0.491 min)
GTO integral calculation        ...        2.639 sec (=   0.044 min)   9.0 %
SCF iterations                  ...       15.869 sec (=   0.264 min)  53.8 %
SCF Gradient evaluation         ...        3.577 sec (=   0.060 min)  12.1 %
Geometry relaxation             ...        0.082 sec (=   0.001 min)   0.3 %
Analytical frequency calculation...        7.312 sec (=   0.122 min)  24.8 %
                             ****ORCA TERMINATED NORMALLY****
TOTAL RUN TIME: 0 days 0 hours 0 minutes 30 seconds 343 msec
