
                                 *****************
                                 * O   R   C   A *
                                 *****************

           --- An Ab Initio, DFT and Semiempirical electronic structure package ---

                  #######################################################
                  #                        -***-                        #
                  #          Department of theory and spectroscopy      #
                  #               Directorship: Frank Neese             #
                  #        Max Planck Institute fuer Kohlenforschung    #
                  #                Kaiser Wilhelm Platz 1               #
                  #                 D-45470 Muelheim/Ruhr               #
                  #                      Germany                        #
                  #                                                     #
                  #                  All rights reserved                #
                  #                        -***-                        #
                  #######################################################


                         Program Version 4.2.1 -  RELEASE  -


 With contributions from (in alphabetic order):
   Daniel Aravena         : Magnetic Suceptibility
   Michael Atanasov       : Ab Initio Ligand Field Theory (pilot matlab implementation)
   Alexander A. Auer      : GIAO ZORA, VPT2
   Ute Becker             : Parallelization
   Giovanni Bistoni       : ED, misc. LED, open-shell LED, HFLD
   Martin Brehm           : Molecular dynamics
   Dmytro Bykov           : SCF Hessian
   Vijay G. Chilkuri      : MRCI spin determinant printing, contributions to CSF-ICE
   Dipayan Datta          : RHF DLPNO-CCSD density
   Achintya Kumar Dutta   : EOM-CC, STEOM-CC
   Dmitry Ganyushin       : Spin-Orbit,Spin-Spin,Magnetic field MRCI
   Miquel Garcia          : C-PCM Hessian, Gaussian charge scheme
   Yang Guo               : DLPNO-NEVPT2, CIM, IAO-localization
   Andreas Hansen         : Spin unrestricted coupled pair/coupled cluster methods
   Benjamin Helmich-Paris : CASSCF linear response (MC-RPA)
   Lee Huntington         : MR-EOM, pCC
   Robert Izsak           : Overlap fitted RIJCOSX, COSX-SCS-MP3, EOM
   Christian Kollmar      : KDIIS, OOCD, Brueckner-CCSD(T), CCSD density
   Simone Kossmann        : Meta GGA functionals, TD-DFT gradient, OOMP2, MP2 Hessian
   Martin Krupicka        : AUTO-CI
   Lucas Lang             : DCDCAS
   Dagmar Lenk            : GEPOL surface, SMD
   Dimitrios Liakos       : Extrapolation schemes; Compound Job, initial MDCI parallelization
   Dimitrios Manganas     : Further ROCIS development; embedding schemes
   Dimitrios Pantazis     : SARC Basis sets
   Taras Petrenko         : DFT Hessian,TD-DFT gradient, ASA, ECA, R-Raman, ABS, FL, XAS/XES, NRVS
   Peter Pinski           : DLPNO-MP2, DLPNO-MP2 Gradient
   Christoph Reimann      : Effective Core Potentials
   Marius Retegan         : Local ZFS, SOC
   Christoph Riplinger    : Optimizer, TS searches, QM/MM, DLPNO-CCSD(T), (RO)-DLPNO pert. Triples
   Tobias Risthaus        : Range-separated hybrids, TD-DFT gradient, RPA, STAB
   Michael Roemelt        : Original ROCIS implementation
   Masaaki Saitow         : Open-shell DLPNO-CCSD energy and density
   Barbara Sandhoefer     : DKH picture change effects
   Avijit Sen             : IP-ROCIS
   Kantharuban Sivalingam : CASSCF convergence, NEVPT2, FIC-MRCI
   Bernardo de Souza      : ESD, SOC TD-DFT
   Georgi Stoychev        : AutoAux, RI-MP2 NMR
   Willem Van den Heuvel  : Paramagnetic NMR
   Boris Wezisla          : Elementary symmetry handling
   Frank Wennmohs         : Technical directorship


 We gratefully acknowledge several colleagues who have allowed us to
 interface, adapt or use parts of their codes:
   Stefan Grimme, W. Hujo, H. Kruse,             : VdW corrections, initial TS optimization,
                  C. Bannwarth                     DFT functionals, gCP, sTDA/sTD-DF
   Ed Valeev, F. Pavosevic, A. Kumar             : LibInt (2-el integral package), F12 methods
   Garnet Chan, S. Sharma, J. Yang, R. Olivares  : DMRG
   Ulf Ekstrom                                   : XCFun DFT Library
   Mihaly Kallay                                 : mrcc  (arbitrary order and MRCC methods)
   Andreas Klamt, Michael Diedenhofen            : otool_cosmo (COSMO solvation model)
   Jiri Pittner, Ondrej Demel                    : Mk-CCSD
   Frank Weinhold                                : gennbo (NPA and NBO analysis)
   Christopher J. Cramer and Donald G. Truhlar   : smd solvation model
   Lars Goerigk                                  : TD-DFT with DH, B97 family of functionals
   V. Asgeirsson, H. Jonsson                     : NEB implementation
   FAccTs GmbH                                   : IRC, NEB, NEB-TS, Multilevel, MM, QM/MM, CI optimization
   S Lehtola, MJT Oliveira, MAL Marques          : LibXC Library


 Your calculation uses the libint2 library for the computation of 2-el integrals
 For citations please refer to: http://libint.valeyev.net

 Your ORCA version has been built with support for libXC version: 4.2.3
 For citations please refer to: https://tddft.org/programs/libxc/

 This ORCA versions uses:
   CBLAS   interface :  Fast vector & matrix operations
   LAPACKE interface :  Fast linear algebra routines
   SCALAPACK package :  Parallel linear algebra routines




***************************************
The coordinates will be read from file: init.xyz
***************************************


Your calculation utilizes the geometrical counterpoise correction gCP
Please cite in your paper:
H.Kruse, S. Grimme J.Chem.Phys., 136, (2012), 154101 
   

Your calculation utilizes the atom-pairwise dispersion correction
based on tight binding partial charges (D4)
Cite in your paper:
E.Caldeweyher, C.Bannwarth, S.Grimme, J.Chem.Phys., (2017), 147, 034112.
E.Caldeweyher, S.Ehlert, A.Hansen, H.Neugebauer, S.Grimme, J.Chem.Phys., (2018), in progress.
   

----- Orbital basis set information -----
Your calculation utilizes the basis: 6-311G(3df,3pd)
   H, Li - Ne  : R. Krishnan, J. S. Binkley, R. Seeger and J. A. Pople, J. Chem. Phys. 72, 650 (1980).
   Na - Ar     : A. D. McLean and G. S. Chandler J. Chem. Phys. 72, 5639, (1980).
   K  - Ca     : J.-P. Blaudeau, M. P. McGrath, L. A. Curtiss and L. Radom, J. Chem. Phys. 107, 5016 (1997).
   Ga - Kr     : L. A. Curtiss, M. P. McGrath, J.-P. Blandeau, N. E. Davis, R. C. Binning and L. Radom, J. Chem. Phys. 103, 6104 (1995).
   Pol./Diff.
   H, Li - Cl  : T. Clark, J. Chandrasekhar and P. v. R. Schleyer, J. Comp. Chem. 4, 294 (1983).
   H - Ne      : M. J. Frisch, J. A. Pople and J. S. Binkley, J. Chem. Phys. 80, 3265 (1984).

----- AuxJ basis set information -----
Your calculation utilizes the auxiliary basis: def2/J
   F. Weigend, Phys. Chem. Chem. Phys. 8, 1057 (2006).

================================================================================
                                        WARNINGS
                       Please study these warnings very carefully!
================================================================================


WARNING: The environment variable RSH_COMMAND is not set!
  ===> : All Displacements for the Numerical Hessian calculation
         will be started on localhost

WARNING: Geometry Optimization
  ===> : Switching off AutoStart
         For restart on a previous wavefunction, please use MOREAD

INFO   : the flag for use of LIBINT has been found!

================================================================================
                                       INPUT FILE
================================================================================
NAME = NH3‡.inp
|  1> ! revPBE D4 gCP(DFT/TZ) 6-311G(3df,3pd) OptTS Freq IRC TightOpt TightSCF Grid4 FinalGrid5 PrintBasis PrintMOs NBO
|  2> 
|  3> %geom
|  4>  ts_mode
|  5>   {D 1 2 3 0}
|  6>  end
|  7>  ts_active_atoms
|  8>   {0 1 2 3}
|  9>  end
| 10>  calc_hess true
| 11>  numhess true
| 12> end
| 13> 
| 14> %irc
| 15>  maxiter 1000
| 16>  de_init_displ 0.25
| 17>  TolMAXG 1e-3
| 18>  TolRMSG 2e-4
| 19> end
| 20> 
| 21> %pal
| 22>  nprocs 12
| 23> end
| 24> 
| 25> *xyzfile 0 1 init.xyz
| 26> 
| 27>                          ****END OF INPUT****
================================================================================

                       *****************************
                       * Geometry Optimization Run *
                       *****************************

Geometry optimization settings:
Update method            Update   .... Bofill
Choice of coordinates    CoordSys .... Z-matrix Internals
Initial Hessian          InHess   .... Almoef's Model

Convergence Tolerances:
Energy Change            TolE     ....  1.0000e-06 Eh
Max. Gradient            TolMAXG  ....  1.0000e-04 Eh/bohr
RMS Gradient             TolRMSG  ....  3.0000e-05 Eh/bohr
Max. Displacement        TolMAXD  ....  1.0000e-03 bohr
RMS Displacement         TolRMSD  ....  6.0000e-04 bohr
Strict Convergence                ....  False
------------------------------------------------------------------------------
                        ORCA OPTIMIZATION COORDINATE SETUP
------------------------------------------------------------------------------

The optimization will be done in new redundant internal coordinates
Making redundant internal coordinates   ...  (new redundants) done
Following TS mode number                ...    internal coordinate number:  7
TS-active-atoms for coordinate setup... 0 1 2 3 
Evaluating the initial hessian          ...  (Is done on the fly) done
Evaluating the coordinates              ...  done
Calculating the B-matrix                .... done
Calculating the G-matrix                .... done
Diagonalizing the G-matrix              .... done
The first mode is                       ....    2
The number of degrees of freedom        ....    6

    -----------------------------------------------------------------
                    Redundant Internal Coordinates


    -----------------------------------------------------------------
         Definition                    Initial Value    d2E/dq (diagonal element)
    -----------------------------------------------------------------
      1. B(H   1,N   0)                  1.0052         0.000000   
      2. B(H   2,N   0)                  1.0052         0.000000   
      3. B(H   3,N   0)                  1.0052         0.000000   
      4. A(H   1,N   0,H   3)          120.0003         0.000000   
      5. A(H   2,N   0,H   3)          119.9994         0.000000   
      6. A(H   1,N   0,H   2)          120.0003         0.000000   
      7. D(N   0,H   3,H   2,H   1)     -0.0000         0.000000   
      8. I(H   1,H   3,H   2,N   0)     -0.0000         0.000000   
    -----------------------------------------------------------------

Number of atoms                         .... 4
Number of degrees of freedom            .... 8

         *************************************************************
         *                GEOMETRY OPTIMIZATION CYCLE   1            *
         *************************************************************
---------------------------------
CARTESIAN COORDINATES (ANGSTROEM)
---------------------------------
  N      0.000003   -0.000000   -0.000000
  H      1.005163    0.000000    0.000000
  H     -0.502583    0.870494    0.000000
  H     -0.502583   -0.870494    0.000000

----------------------------
CARTESIAN COORDINATES (A.U.)
----------------------------
  NO LB      ZA    FRAG     MASS         X           Y           Z
   0 N     7.0000    0    14.007    0.000005   -0.000000   -0.000000
   1 H     1.0000    0     1.008    1.899483    0.000000    0.000000
   2 H     1.0000    0     1.008   -0.949744    1.644996    0.000000
   3 H     1.0000    0     1.008   -0.949744   -1.644996    0.000000

--------------------------------
INTERNAL COORDINATES (ANGSTROEM)
--------------------------------
 N      0   0   0     0.000000000000     0.00000000     0.00000000
 H      1   0   0     1.005160191835     0.00000000     0.00000000
 H      1   2   0     1.005162915918   120.00028106     0.00000000
 H      1   2   3     1.005162915830   120.00028123   180.00000121

---------------------------
INTERNAL COORDINATES (A.U.)
---------------------------
 N      0   0   0     0.000000000000     0.00000000     0.00000000
 H      1   0   0     1.899477483288     0.00000000     0.00000000
 H      1   2   0     1.899482631058   120.00028106     0.00000000
 H      1   2   3     1.899482630892   120.00028123   180.00000121

---------------------
BASIS SET INFORMATION
---------------------
There are 2 groups of distinct atoms

 Group   1 Type N   : 11s5p3d1f contracted to 4s3p3d1f pattern {6311/311/111/1}
 Group   2 Type H   : 5s3p1d contracted to 3s3p1d pattern {311/111/1}

Atom   0N    basis set group =>   1
Atom   1H    basis set group =>   2
Atom   2H    basis set group =>   2
Atom   3H    basis set group =>   2

-------------------------
BASIS SET IN INPUT FORMAT
-------------------------

 # Basis set for element : H 
 NewGTO H 
 S 3 
   1      33.8650000000      0.0254938145
   2       5.0947900000      0.1903731086
   3       1.1587900000      0.8521614860
 S 1 
   1       0.3258400000      1.0000000000
 S 1 
   1       0.1027410000      1.0000000000
 P 1 
   1       3.0000000000      1.0000000000
 P 1 
   1       0.7500000000      1.0000000000
 P 1 
   1       0.1875000000      1.0000000000
 D 1 
   1       1.0000000000      1.0000000000
  end;

 # Basis set for element : N 
 NewGTO N 
 S 6 
   1    6293.4800000000      0.0019697881
   2     949.0440000000      0.0149612859
   3     218.7760000000      0.0735005308
   4      63.6916000000      0.2489367658
   5      18.8282000000      0.6024594331
   6       2.7202300000      0.2562017589
 S 3 
   1      30.6331000000      0.1119060795
   2       7.0261400000      0.9216666549
   3       2.1120500000     -0.0025691918
 P 3 
   1      30.6331000000      0.0383119186
   2       7.0261400000      0.2374031155
   3       2.1120500000      0.8175923978
 S 1 
   1       0.6840090000      1.0000000000
 P 1 
   1       0.6840090000      1.0000000000
 S 1 
   1       0.2008780000      1.0000000000
 P 1 
   1       0.2008780000      1.0000000000
 D 1 
   1       3.6520000000      1.0000000000
 D 1 
   1       0.9130000000      1.0000000000
 D 1 
   1       0.2282500000      1.0000000000
 F 1 
   1       1.0000000000      1.0000000000
  end;

---------------------------------
AUXILIARY/J BASIS SET INFORMATION
---------------------------------
There are 2 groups of distinct atoms

 Group   1 Type N   : 12s5p4d2f1g contracted to 6s4p3d1f1g pattern {711111/2111/211/2/1}
 Group   2 Type H   : 5s2p1d contracted to 3s1p1d pattern {311/2/1}

Atom   0N    basis set group =>   1
Atom   1H    basis set group =>   2
Atom   2H    basis set group =>   2
Atom   3H    basis set group =>   2

-------------------------------------
AUXILIARY/J BASIS SET IN INPUT FORMAT
-------------------------------------

 # Auxiliary/J basis set for element : H 
 NewAuxJGTO H 
 S 3 
   1      15.6752927000      0.1007184237
   2       3.6063578000      0.3404257499
   3       1.2080016000      0.6491996172
 S 1 
   1       0.4726794000      1.0000000000
 S 1 
   1       0.2018100000      1.0000000000
 P 2 
   1       2.0281365000      0.5596620919
   2       0.5358730000      0.5596620919
 D 1 
   1       2.2165124000      1.0000000000
  end;

 # Auxiliary/J basis set for element : N 
 NewAuxJGTO N 
 S 7 
   1    2542.9401785000      0.0128431329
   2    1029.5472946000      0.0206655120
   3     424.9053546000      0.0652200677
   4     178.4573708000      0.1617388940
   5      76.1362742000      0.3094256941
   6      32.9338653000      0.3918849307
   7      14.4155436000      0.1822470660
 S 1 
   1       6.3718891000     -1.0000000000
 S 1 
   1       2.8381742000      1.0000000000
 S 1 
   1       1.2711793000      1.0000000000
 S 1 
   1       0.5712407000      1.0000000000
 S 1 
   1       0.2569887000      1.0000000000
 P 2 
   1      17.8975990000     -1.0974070137
   2       6.5346319000      0.1380055963
 P 1 
   1       2.3523645000      1.0000000000
 P 1 
   1       0.8397377000      1.0000000000
 P 1 
   1       0.2989335000      1.0000000000
 D 2 
   1       7.6909870000      0.1770780943
   2       2.3044972000      0.8918319220
 D 1 
   1       0.8403987000      1.0000000000
 D 1 
   1       0.3303797000      1.0000000000
 F 2 
   1       2.3331076000      0.6223178877
   2       0.8446137000      0.5036714203
 G 1 
   1       1.4037700000     -1.0000000000
  end;



           ************************************************************
           *        Program running with 12 parallel MPI-processes    *
           *              working on a common directory               *
           ************************************************************
------------------------------------------------------------------------------
                           ORCA GTO INTEGRAL CALCULATION
                           -- RI-GTO INTEGRALS CHOSEN --
------------------------------------------------------------------------------

                         BASIS SET STATISTICS AND STARTUP INFO

Gaussian basis set:
 # of primitive gaussian shells          ...   47
 # of primitive gaussian functions       ...  105
 # of contracted shells                  ...   32
 # of contracted basis functions         ...   86
 Highest angular momentum                ...    3
 Maximum contraction depth               ...    6
Auxiliary gaussian basis set:
 # of primitive gaussian shells          ...   48
 # of primitive gaussian functions       ...  118
 # of contracted shells                  ...   30
 # of contracted aux-basis functions     ...   82
 Highest angular momentum                ...    4
 Maximum contraction depth               ...    7
Ratio of auxiliary to basis functions    ...  0.95
Integral package used                  ... LIBINT
 One Electron integrals                  ... done
 Ordering auxiliary basis shells         ... done
 Integral threshhold             Thresh  ...  2.500e-11
 Primitive cut-off               TCut    ...  2.500e-12
 Pre-screening matrix                    ... done
 Shell pair data                         ... 
 Ordering of the shell pairs             ... done (   0.000 sec) 528 of 528 pairs
 Determination of significant pairs      ... done (   0.000 sec)
 Creation of shell pair data             ... done (   0.000 sec)
 Storage of shell pair data              ... done (   0.027 sec)
 Shell pair data done in (   0.028 sec)
 Computing two index integrals           ... done
 Cholesky decomposition of the V-matrix  ... done


Timings:
 Total evaluation time                   ...   0.220 sec (  0.004 min)
 One electron matrix time                ...   0.014 sec (  0.000 min) =  6.2%
 Schwartz matrix evaluation time         ...   0.151 sec (  0.003 min) = 68.8%
 Two index repulsion integral time       ...   0.002 sec (  0.000 min) =  0.9%
 Cholesky decomposition of V             ...   0.003 sec (  0.000 min) =  1.4%
 Three index repulsion integral time     ...   0.000 sec (  0.000 min) =  0.0%



           ************************************************************
           *        Program running with 12 parallel MPI-processes    *
           *              working on a common directory               *
           ************************************************************
-------------------------------------------------------------------------------
                                 ORCA SCF
-------------------------------------------------------------------------------

------------
SCF SETTINGS
------------
Hamiltonian:
 Density Functional     Method          .... DFT(GTOs)
 Exchange Functional    Exchange        .... PBE
   PBE kappa parameter   XKappa         ....  1.245000
   PBE mue parameter    XMuePBE         ....  0.219520
 Correlation Functional Correlation     .... PBE
   PBE beta parameter  CBetaPBE         ....  0.066725
 LDA part of GGA corr.  LDAOpt          .... PW91-LDA
 Gradients option       PostSCFGGA      .... off
   Density functional embedding theory  .... OFF
   NL short-range parameter             ....  3.700000
 RI-approximation to the Coulomb term is turned on
   Number of auxiliary basis functions  .... 82


General Settings:
 Integral files         IntName         .... NH3‡
 Hartree-Fock type      HFTyp           .... RHF
 Total Charge           Charge          ....    0
 Multiplicity           Mult            ....    1
 Number of Electrons    NEL             ....   10
 Basis Dimension        Dim             ....   86
 Nuclear Repulsion      ENuc            ....     11.9675068210 Eh

Convergence Acceleration:
 DIIS                   CNVDIIS         .... on
   Start iteration      DIISMaxIt       ....    12
   Startup error        DIISStart       ....  0.200000
   # of expansion vecs  DIISMaxEq       ....     5
   Bias factor          DIISBfac        ....   1.050
   Max. coefficient     DIISMaxC        ....  10.000
 Newton-Raphson         CNVNR           .... off
 SOSCF                  CNVSOSCF        .... on
   Start iteration      SOSCFMaxIt      ....   150
   Startup grad/error   SOSCFStart      ....  0.003300
 Level Shifting         CNVShift        .... on
   Level shift para.    LevelShift      ....    0.2500
   Turn off err/grad.   ShiftErr        ....    0.0010
 Zerner damping         CNVZerner       .... off
 Static damping         CNVDamp         .... on
   Fraction old density DampFac         ....    0.7000
   Max. Damping (<1)    DampMax         ....    0.9800
   Min. Damping (>=0)   DampMin         ....    0.0000
   Turn off err/grad.   DampErr         ....    0.1000
 Fernandez-Rico         CNVRico         .... off

SCF Procedure:
 Maximum # iterations   MaxIter         ....   125
 SCF integral mode      SCFMode         .... Direct
   Integral package                     .... LIBINT
 Reset frequency        DirectResetFreq ....    20
 Integral Threshold     Thresh          ....  2.500e-11 Eh
 Primitive CutOff       TCut            ....  2.500e-12 Eh

Convergence Tolerance:
 Convergence Check Mode ConvCheckMode   .... Total+1el-Energy
 Convergence forced     ConvForced      .... 0
 Energy Change          TolE            ....  1.000e-08 Eh
 1-El. energy change                    ....  1.000e-05 Eh
 Orbital Gradient       TolG            ....  1.000e-05
 Orbital Rotation angle TolX            ....  1.000e-05
 DIIS Error             TolErr          ....  5.000e-07


Diagonalization of the overlap matrix:
Smallest eigenvalue                        ... 1.159e-03
Time for diagonalization                   ...    0.002 sec
Threshold for overlap eigenvalues          ... 1.000e-08
Number of eigenvalues below threshold      ... 0
Time for construction of square roots      ...    0.005 sec
Total time needed                          ...    0.007 sec

-------------------
DFT GRID GENERATION
-------------------

General Integration Accuracy     IntAcc      ...  4.670
Radial Grid Type                 RadialGrid  ... Gauss-Chebyshev
Angular Grid (max. acc.)         AngularGrid ... Lebedev-302
Angular grid pruning method      GridPruning ... 3 (G Style)
Weight generation scheme         WeightScheme... Becke
Basis function cutoff            BFCut       ...    1.0000e-11
Integration weight cutoff        WCut        ...    1.0000e-14
Grids for H and He will be reduced by one unit

# of grid points (after initial pruning)     ...  16394 (   0.0 sec)
# of grid points (after weights+screening)   ...  16135 (   0.0 sec)
nearest neighbour list constructed           ...    0.0 sec
Grid point re-assignment to atoms done       ...    0.0 sec
Grid point division into batches done        ...    0.1 sec
Reduced shell lists constructed in    0.1 sec

Total number of grid points                  ...    16135
Total number of batches                      ...      254
Average number of points per batch           ...       63
Average number of grid points per atom       ...     4034
Average number of shells per batch           ...    30.09 (94.02%)
Average number of basis functions per batch  ...    80.87 (94.03%)
Average number of large shells per batch     ...    29.13 (96.82%)
Average number of large basis fcns per batch ...    78.52 (97.10%)
Maximum spatial batch extension              ...   2.60,  2.57, 15.66 au
Average spatial batch extension              ...   0.11,  0.12,  0.22 au

Time for grid setup =    0.173 sec

------------------------------
INITIAL GUESS: MODEL POTENTIAL
------------------------------
Loading Hartree-Fock densities                     ... done
Calculating cut-offs                               ... done
Setting up the integral package                    ... done
Initializing the effective Hamiltonian             ... done
Starting the Coulomb interaction                   ... done (   0.0 sec)
Reading the grid                                   ... done
Mapping shells                                     ... done
Starting the XC term evaluation                    ... done (   0.0 sec)
  promolecular density results
     # of electrons  =      9.998560841
     EX              =     -7.459321449
     EC              =     -0.305084199
     EX+EC           =     -7.764405648
Transforming the Hamiltonian                       ... done (   0.0 sec)
Diagonalizing the Hamiltonian                      ... done (   0.0 sec)
Back transforming the eigenvectors                 ... done (   0.0 sec)
Now organizing SCF variables                       ... done
                      ------------------
                      INITIAL GUESS DONE (   0.3 sec)
                      ------------------
--------------
SCF ITERATIONS
--------------
ITER       Energy         Delta-E        Max-DP      RMS-DP      [F,P]     Damp
               ***  Starting incremental Fock matrix formation  ***
  0    -56.4344310984   0.000000000000 0.09136902  0.00209450  0.3598100 0.7000
  1    -56.4964008089  -0.061969710513 0.04344154  0.00124179  0.1328777 0.7000
                               ***Turning on DIIS***
  2    -56.5137345048  -0.017333695889 0.03784415  0.00138534  0.0160046 0.0000
  3    -56.5454035364  -0.031669031630 0.02045721  0.00071207  0.0899396 0.0000
  4    -56.5524110542  -0.007007517789 0.00609741  0.00026459  0.0224156 0.0000
  5    -56.5529057817  -0.000494727479 0.00289714  0.00009575  0.0048817 0.0000
                      *** Initiating the SOSCF procedure ***
                           *** Shutting down DIIS ***
                      *** Re-Reading the Fockian *** 
                      *** Removing any level shift *** 
ITER      Energy       Delta-E        Grad      Rot      Max-DP    RMS-DP
  6    -56.55293342  -0.0000276378  0.000385  0.000385  0.001081  0.000033
               *** Restarting incremental Fock matrix formation ***
  7    -56.55293500  -0.0000015812  0.000157  0.000305  0.000499  0.000018
  8    -56.55293497   0.0000000352  0.000152  0.000095  0.000184  0.000004
  9    -56.55293512  -0.0000001510  0.000012  0.000019  0.000076  0.000002
 10    -56.55293512  -0.0000000019  0.000003  0.000005  0.000014  0.000000
                 **** Energy Check signals convergence ****
              ***Rediagonalizing the Fockian in SOSCF/NRSCF***

               *****************************************************
               *                     SUCCESS                       *
               *           SCF CONVERGED AFTER  11 CYCLES          *
               *****************************************************

Setting up the final grid:

General Integration Accuracy     IntAcc      ...  5.010
Radial Grid Type                 RadialGrid  ... Gauss-Chebyshev
Angular Grid (max. acc.)         AngularGrid ... Lebedev-434
Angular grid pruning method      GridPruning ... 3 (G Style)
Weight generation scheme         WeightScheme... Becke
Basis function cutoff            BFCut       ...    1.0000e-11
Integration weight cutoff        WCut        ...    1.0000e-14
Grids for H and He will be reduced by one unit

# of grid points (after initial pruning)     ...  30666 (   0.0 sec)
# of grid points (after weights+screening)   ...  30107 (   0.0 sec)
nearest neighbour list constructed           ...    0.0 sec
Grid point re-assignment to atoms done       ...    0.0 sec
Grid point division into batches done        ...    0.4 sec
Reduced shell lists constructed in    0.4 sec

Total number of grid points                  ...    30107
Total number of batches                      ...      473
Average number of points per batch           ...       63
Average number of grid points per atom       ...     7527
Average number of shells per batch           ...    30.44 (95.12%)
Average number of basis functions per batch  ...    82.05 (95.41%)
Average number of large shells per batch     ...    29.41 (96.63%)
Average number of large basis fcns per batch ...    78.49 (95.66%)
Maximum spatial batch extension              ...   2.66,  2.74, 15.10 au
Average spatial batch extension              ...   0.09,  0.10,  0.15 au

Final grid set up in    0.4 sec
Final integration                            ... done (   0.1 sec)
Change in XC energy                          ...     0.000007702
Integrated number of electrons               ...     9.999999981
Previous integrated no of electrons          ...    10.000044597

----------------
TOTAL SCF ENERGY
----------------

Total Energy       :          -56.55292742 Eh           -1538.88339 eV

Components:
Nuclear Repulsion  :           11.96750682 Eh             325.65242 eV
Electronic Energy  :          -68.52043424 Eh           -1864.53581 eV
One Electron Energy:          -99.81195526 Eh           -2716.02138 eV
Two Electron Energy:           31.29152102 Eh             851.48558 eV

Virial components:
Potential Energy   :         -112.90562705 Eh           -3072.31831 eV
Kinetic Energy     :           56.35269963 Eh            1533.43492 eV
Virial Ratio       :            2.00355312


DFT components:
N(Alpha)           :        4.999999990422 electrons
N(Beta)            :        4.999999990422 electrons
N(Total)           :        9.999999980845 electrons
E(X)               :       -7.707191424851 Eh       
E(C)               :       -0.315815051348 Eh       
E(XC)              :       -8.023006476199 Eh       
DFET-embed. en.    :        0.000000000000 Eh       

---------------
SCF CONVERGENCE
---------------

  Last Energy change         ...   -5.1930e-10  Tolerance :   1.0000e-08
  Last MAX-Density change    ...    2.3069e-07  Tolerance :   1.0000e-07
  Last RMS-Density change    ...    6.0626e-09  Tolerance :   5.0000e-09
  Last Orbital Gradient      ...    9.2828e-08  Tolerance :   1.0000e-05
  Last Orbital Rotation      ...    5.4523e-08  Tolerance :   1.0000e-05

             **** THE GBW FILE WAS UPDATED (NH3‡.gbw) ****
             **** DENSITY FILE WAS UPDATED (NH3‡.scfp) ****
             **** ENERGY FILE WAS UPDATED (NH3‡.en.tmp) ****
             **** THE GBW FILE WAS UPDATED (NH3‡.gbw) ****
             **** DENSITY FILE WAS UPDATED (NH3‡.scfp) ****
----------------
ORBITAL ENERGIES
----------------

  NO   OCC          E(Eh)            E(eV) 
   0   2.0000     -13.946915      -379.5148 
   1   2.0000      -0.750134       -20.4122 
   2   2.0000      -0.421535       -11.4705 
   3   2.0000      -0.421534       -11.4705 
   4   2.0000      -0.182141        -4.9563 
   5   0.0000       0.028059         0.7635 
   6   0.0000       0.092483         2.5166 
   7   0.0000       0.092520         2.5176 
   8   0.0000       0.202765         5.5175 
   9   0.0000       0.202799         5.5184 
  10   0.0000       0.262418         7.1408 
  11   0.0000       0.327519         8.9122 
  12   0.0000       0.327530         8.9125 
  13   0.0000       0.332841         9.0571 
  14   0.0000       0.431366        11.7381 
  15   0.0000       0.431410        11.7393 
  16   0.0000       0.498394        13.5620 
  17   0.0000       0.605313        16.4714 
  18   0.0000       0.640637        17.4326 
  19   0.0000       0.665961        18.1217 
  20   0.0000       0.666019        18.1233 
  21   0.0000       0.733502        19.9596 
  22   0.0000       0.733620        19.9628 
  23   0.0000       0.833686        22.6857 
  24   0.0000       0.833822        22.6894 
  25   0.0000       0.856337        23.3021 
  26   0.0000       1.034912        28.1614 
  27   0.0000       1.040863        28.3233 
  28   0.0000       1.040911        28.3246 
  29   0.0000       1.622438        44.1488 
  30   0.0000       1.622484        44.1500 
  31   0.0000       1.713094        46.6157 
  32   0.0000       1.731681        47.1214 
  33   0.0000       1.908289        51.9272 
  34   0.0000       1.908374        51.9295 
  35   0.0000       2.054284        55.8999 
  36   0.0000       2.149726        58.4970 
  37   0.0000       2.149730        58.4971 
  38   0.0000       2.487576        67.6904 
  39   0.0000       2.487638        67.6921 
  40   0.0000       2.509290        68.2813 
  41   0.0000       2.677906        72.8695 
  42   0.0000       2.677996        72.8720 
  43   0.0000       2.885198        78.5102 
  44   0.0000       2.936843        79.9156 
  45   0.0000       2.936846        79.9156 
  46   0.0000       3.022762        82.2535 
  47   0.0000       3.049519        82.9816 
  48   0.0000       3.049534        82.9820 
  49   0.0000       3.174629        86.3861 
  50   0.0000       3.174698        86.3879 
  51   0.0000       3.455487        94.0286 
  52   0.0000       3.503399        95.3323 
  53   0.0000       3.623921        98.6119 
  54   0.0000       3.769177       102.5645 
  55   0.0000       4.047208       110.1301 
  56   0.0000       4.047209       110.1302 
  57   0.0000       4.063534       110.5744 
  58   0.0000       4.063597       110.5761 
  59   0.0000       4.312192       117.3407 
  60   0.0000       4.359993       118.6414 
  61   0.0000       4.360020       118.6422 
  62   0.0000       4.990595       135.8010 
  63   0.0000       5.000359       136.0667 
  64   0.0000       5.000363       136.0668 
  65   0.0000       5.077601       138.1685 
  66   0.0000       5.077617       138.1690 
  67   0.0000       5.301367       144.2575 
  68   0.0000       5.809516       158.0850 
  69   0.0000       6.030852       164.1078 
  70   0.0000       6.030869       164.1083 
  71   0.0000       8.139057       221.4750 
  72   0.0000       8.139063       221.4752 
  73   0.0000       8.148172       221.7230 
  74   0.0000       8.280904       225.3348 
  75   0.0000       8.499882       231.2935 
  76   0.0000       8.499904       231.2941 
  77   0.0000       8.846270       240.7192 
  78   0.0000       8.846278       240.7195 
  79   0.0000       9.645353       262.4634 
  80   0.0000      10.587291       288.0948 
  81   0.0000      10.587321       288.0957 
  82   0.0000      10.862022       295.5706 
  83   0.0000      11.458053       311.7895 
  84   0.0000      11.458072       311.7900 
  85   0.0000      36.979264      1006.2569 
------------------
MOLECULAR ORBITALS
------------------
                      0         1         2         3         4         5   
                 -13.94691  -0.75013  -0.42153  -0.42153  -0.18214   0.02806
                   2.00000   2.00000   2.00000   2.00000   2.00000   0.00000
                  --------  --------  --------  --------  --------  --------
  0N   1s        -0.559150  0.114817  0.000001 -0.000000  0.000000 -0.061249
  0N   2s        -0.462341  0.179515  0.000001 -0.000000  0.000000 -0.099101
  0N   1pz       -0.000000 -0.000000  0.000000  0.000000  0.274938  0.000000
  0N   1px        0.000000  0.000002 -0.219904  0.000041 -0.000000  0.000020
  0N   1py        0.000000  0.000000 -0.000041 -0.219902  0.000000  0.000000
  0N   3s        -0.025002 -0.492003 -0.000012  0.000000 -0.000000  0.248259
  0N   2pz       -0.000000 -0.000000  0.000000  0.000000  0.400425  0.000000
  0N   2px       -0.000000 -0.000012 -0.308809  0.000058  0.000000 -0.000125
  0N   2py       -0.000000  0.000000 -0.000058 -0.308828  0.000000  0.000000
  0N   4s        -0.031118 -0.361122  0.000099 -0.000000 -0.000000  1.489893
  0N   3pz       -0.000000 -0.000000  0.000000 -0.000000  0.377213  0.000000
  0N   3px       -0.000000  0.000030 -0.135483  0.000025  0.000000 -0.000527
  0N   3py       -0.000000  0.000000 -0.000026 -0.135673  0.000000  0.000000
  0N   1dz2      -0.000363  0.001314  0.000000 -0.000000  0.000000  0.002942
  0N   1dxz       0.000000  0.000000 -0.000000  0.000000  0.000000  0.000000
  0N   1dyz       0.000000  0.000000 -0.000000 -0.000000  0.000000 -0.000000
  0N   1dx2y2     0.000000  0.000000 -0.002737  0.000001 -0.000000  0.000004
  0N   1dxy      -0.000000 -0.000000  0.000001  0.002736  0.000000  0.000000
  0N   2dz2       0.005706  0.013803 -0.000003  0.000000  0.000000 -0.020003
  0N   2dxz      -0.000000 -0.000000 -0.000000 -0.000000  0.000001  0.000000
  0N   2dyz      -0.000000 -0.000000  0.000000 -0.000000  0.000000  0.000000
  0N   2dx2y2    -0.000000 -0.000004 -0.011484  0.000002  0.000000 -0.000064
  0N   2dxy       0.000000 -0.000000  0.000002  0.011496 -0.000000 -0.000000
  0N   3dz2       0.002881  0.006399 -0.000005  0.000000 -0.000000 -0.007160
  0N   3dxz       0.000000  0.000000 -0.000000 -0.000000 -0.000007 -0.000000
  0N   3dyz       0.000000  0.000000  0.000000 -0.000000 -0.000000 -0.000000
  0N   3dx2y2    -0.000000  0.000010  0.024318 -0.000005  0.000000 -0.000173
  0N   3dxy       0.000000 -0.000000 -0.000005 -0.024232 -0.000000 -0.000000
  0N   1f0        0.000000  0.000000 -0.000000  0.000000 -0.005055 -0.000000
  0N   1f+1       0.000000  0.000000  0.003552 -0.000001 -0.000000  0.000018
  0N   1f-1       0.000000 -0.000000  0.000001  0.003557 -0.000000 -0.000000
  0N   1f+2      -0.000000  0.000000 -0.000000 -0.000000  0.000002  0.000000
  0N   1f-2      -0.000000  0.000000 -0.000000  0.000000  0.000000  0.000000
  0N   1f+3       0.002862  0.002949 -0.000002  0.000000 -0.000000 -0.015049
  0N   1f-3       0.000000 -0.000000  0.000000  0.000001 -0.000000 -0.000000
  1H   1s         0.000472 -0.092121 -0.178738  0.000034  0.000000 -0.044964
  1H   2s         0.015753 -0.075690 -0.278900  0.000052 -0.000000 -0.155889
  1H   3s         0.000996 -0.005726 -0.147111  0.000028 -0.000000 -0.662104
  1H   1pz        0.000000  0.000000  0.000000 -0.000000  0.003785  0.000000
  1H   1px        0.000416  0.002823  0.003666 -0.000001 -0.000000 -0.004838
  1H   1py        0.000000  0.000000 -0.000000 -0.001722  0.000000  0.000000
  1H   2pz       -0.000000  0.000000  0.000000  0.000000  0.017177 -0.000000
  1H   2px       -0.007738  0.013717  0.020307 -0.000004  0.000000  0.016356
  1H   2py       -0.000000  0.000000 -0.000002 -0.013012  0.000000  0.000000
  1H   3pz       -0.000000 -0.000000  0.000000  0.000000  0.068084  0.000000
  1H   3px       -0.003053 -0.000599  0.030539 -0.000006  0.000000  0.013656
  1H   3py       -0.000000  0.000000  0.000000  0.000415  0.000000  0.000000
  1H   1dz2      -0.001519  0.000507  0.001587 -0.000000 -0.000000  0.002616
  1H   1dxz       0.000000  0.000000 -0.000000 -0.000000 -0.005722 -0.000000
  1H   1dyz      -0.000000 -0.000000 -0.000000  0.000000 -0.000000  0.000000
  1H   1dx2y2     0.002564 -0.000300 -0.002771  0.000001  0.000000 -0.004519
  1H   1dxy       0.000000  0.000000  0.000001  0.003602 -0.000000 -0.000000
  2H   1s         0.000472 -0.092123  0.089340 -0.154813  0.000000 -0.044941
  2H   2s         0.015752 -0.075676  0.139375 -0.241388  0.000000 -0.156765
  2H   3s         0.000995 -0.005688  0.073511 -0.127287  0.000000 -0.662274
  2H   1pz        0.000000  0.000000 -0.000000  0.000000  0.003785  0.000000
  2H   1px       -0.000208 -0.001411 -0.000376 -0.002333  0.000000  0.002423
  2H   1py        0.000360  0.002444 -0.002333  0.002320 -0.000000 -0.004197
  2H   2pz       -0.000000  0.000000 -0.000000  0.000000  0.017178  0.000000
  2H   2px        0.003869 -0.006863 -0.004686 -0.014419 -0.000000 -0.008261
  2H   2py       -0.006701  0.011888 -0.014421  0.011961  0.000000  0.014310
  2H   3pz       -0.000000 -0.000000 -0.000000  0.000000  0.068069  0.000000
  2H   3px        0.001526  0.000307  0.007961 -0.012999 -0.000000 -0.006947
  2H   3py       -0.002644 -0.000531 -0.013008  0.022948  0.000000  0.012034
  2H   1dz2      -0.001519  0.000510 -0.000793  0.001373 -0.000000  0.002640
  2H   1dxz      -0.000000 -0.000000 -0.000000  0.000000  0.002862  0.000000
  2H   1dyz       0.000000  0.000000  0.000000 -0.000000 -0.004955 -0.000000
  2H   1dx2y2    -0.001282  0.000153 -0.003394 -0.000362 -0.000000  0.002286
  2H   1dxy      -0.002221  0.000264  0.000360  0.002975 -0.000000  0.003957
  3H   1s         0.000472 -0.092123  0.089398  0.154779  0.000000 -0.044941
  3H   2s         0.015752 -0.075676  0.139466  0.241336  0.000000 -0.156765
  3H   3s         0.000995 -0.005688  0.073558  0.127259  0.000000 -0.662273
  3H   1pz        0.000000  0.000000 -0.000000 -0.000000  0.003785 -0.000000
  3H   1px       -0.000208 -0.001411 -0.000375  0.002333  0.000000  0.002423
  3H   1py       -0.000360 -0.002444  0.002334  0.002319  0.000000  0.004197
  3H   2pz       -0.000000  0.000000 -0.000000 -0.000000  0.017178  0.000000
  3H   2px        0.003869 -0.006863 -0.004681  0.014421  0.000000 -0.008261
  3H   2py        0.006701 -0.011888  0.014425  0.011956  0.000000 -0.014310
  3H   3pz       -0.000000 -0.000000 -0.000000 -0.000000  0.068069 -0.000000
  3H   3px        0.001526  0.000307  0.007966  0.012996 -0.000000 -0.006947
  3H   3py        0.002644  0.000531  0.013016  0.022943 -0.000000 -0.012034
  3H   1dz2      -0.001519  0.000510 -0.000793 -0.001372 -0.000000  0.002640
  3H   1dxz      -0.000000 -0.000000 -0.000000 -0.000000  0.002862  0.000000
  3H   1dyz      -0.000000 -0.000000 -0.000000 -0.000000  0.004955  0.000000
  3H   1dx2y2    -0.001282  0.000153 -0.003394  0.000363 -0.000000  0.002286
  3H   1dxy       0.002221 -0.000264 -0.000359  0.002976  0.000000 -0.003957
                      6         7         8         9        10        11   
                   0.09248   0.09252   0.20277   0.20280   0.26242   0.32752
                   0.00000   0.00000   0.00000   0.00000   0.00000   0.00000
                  --------  --------  --------  --------  --------  --------
  0N   1s         0.000004  0.000000 -0.000000 -0.000004 -0.022707 -0.000000
  0N   2s         0.000009  0.000000 -0.000000  0.000000 -0.033180 -0.000000
  0N   1pz        0.000000 -0.000000 -0.000000  0.000000 -0.000000 -0.000360
  0N   1px        0.146631 -0.000037 -0.000004 -0.052091 -0.000005 -0.000000
  0N   1py        0.000037  0.146644 -0.052049  0.000004  0.000000  0.000000
  0N   3s        -0.000005 -0.000000  0.000000  0.000105  0.315237  0.000000
  0N   2pz       -0.000000 -0.000000 -0.000000  0.000000 -0.000000 -0.000540
  0N   2px        0.268540 -0.000068 -0.000001 -0.017236  0.000207 -0.000000
  0N   2py        0.000068  0.268709 -0.017048  0.000001 -0.000000 -0.000000
  0N   4s        -0.000623  0.000001 -0.000000 -0.002643 -5.191109 -0.000000
  0N   3pz        0.000000 -0.000000 -0.000000  0.000000 -0.000000 -0.002276
  0N   3px        1.790833 -0.000451  0.000119  1.443117  0.001079  0.000000
  0N   3py        0.000451  1.790916  1.443774 -0.000119 -0.000000 -0.000000
  0N   1dz2      -0.000002  0.000000 -0.000000 -0.000005 -0.001364  0.000000
  0N   1dxz      -0.000000  0.000000 -0.000000 -0.000000 -0.000000  0.003325
  0N   1dyz      -0.000000 -0.000000 -0.000000 -0.000000  0.000000  0.000000
  0N   1dx2y2    -0.003102  0.000001  0.000000  0.001490 -0.000008  0.000000
  0N   1dxy       0.000001  0.003106 -0.001486  0.000000 -0.000000 -0.000000
  0N   2dz2       0.000026 -0.000000  0.000000  0.000084  0.128289  0.000000
  0N   2dxz       0.000000 -0.000000 -0.000000  0.000000 -0.000000  0.043772
  0N   2dyz       0.000000  0.000000  0.000000  0.000000 -0.000000  0.000000
  0N   2dx2y2     0.031462 -0.000008  0.000008  0.092887  0.000081  0.000000
  0N   2dxy      -0.000008 -0.031515 -0.092938  0.000008  0.000000  0.000000
  0N   3dz2       0.000068 -0.000000  0.000000  0.000287  0.524121  0.000000
  0N   3dxz       0.000000  0.000000  0.000000  0.000000  0.000000 -0.130128
  0N   3dyz      -0.000000  0.000000  0.000000 -0.000000  0.000000 -0.000001
  0N   3dx2y2     0.458808 -0.000115 -0.000001 -0.018668  0.000336  0.000000
  0N   3dxy      -0.000116 -0.458978  0.018473 -0.000002  0.000000  0.000000
  0N   1f0        0.000000  0.000000  0.000000  0.000000  0.000000  0.000002
  0N   1f+1      -0.019845  0.000005 -0.000001 -0.016670 -0.000029 -0.000000
  0N   1f-1      -0.000005 -0.019863 -0.016687  0.000001  0.000000  0.000000
  0N   1f+2       0.000000  0.000000  0.000000  0.000000  0.000000  0.002057
  0N   1f-2       0.000000 -0.000000 -0.000000  0.000000 -0.000000 -0.000000
  0N   1f+3       0.000017 -0.000000  0.000000  0.000053  0.068997 -0.000000
  0N   1f-3       0.000000  0.000003  0.000003 -0.000000  0.000000 -0.000000
  1H   1s         0.011345 -0.000003  0.000011  0.132200 -0.115845  0.000000
  1H   2s        -0.948768  0.000239 -0.000027 -0.324674  0.619004 -0.000000
  1H   3s        -2.675515  0.000673 -0.000118 -1.436399  0.994330 -0.000000
  1H   1pz       -0.000000  0.000000  0.000000  0.000000  0.000000  0.015349
  1H   1px       -0.008241  0.000002  0.000000  0.000801  0.002482 -0.000000
  1H   1py        0.000001  0.002027 -0.005727  0.000000  0.000000 -0.000000
  1H   2pz        0.000000 -0.000000 -0.000000  0.000000 -0.000000 -0.031038
  1H   2px        0.048846 -0.000012  0.000006  0.071139 -0.152883  0.000000
  1H   2py        0.000002  0.006853 -0.030932  0.000003  0.000000 -0.000000
  1H   3pz        0.000000 -0.000000 -0.000000  0.000000 -0.000000  1.142764
  1H   3px        0.628285 -0.000158  0.000076  0.926914 -0.978111  0.000000
  1H   3py        0.000043  0.171780 -0.743499  0.000061 -0.000000 -0.000000
  1H   1dz2       0.003324 -0.000001  0.000001  0.017736 -0.020713 -0.000000
  1H   1dxz      -0.000000  0.000000  0.000000 -0.000000  0.000000 -0.009572
  1H   1dyz       0.000000 -0.000000  0.000000  0.000000 -0.000000  0.000000
  1H   1dx2y2    -0.015853  0.000004 -0.000002 -0.022291  0.031588 -0.000000
  1H   1dxy      -0.000001 -0.003859  0.017959 -0.000001  0.000000  0.000000
  2H   1s        -0.005670  0.009813  0.114506 -0.066153 -0.115839 -0.000000
  2H   2s         0.474491 -0.822350 -0.282282  0.163327  0.620736  0.000000
  2H   3s         1.337264 -2.316852 -1.244132  0.718761  0.994805  0.000000
  2H   1pz        0.000000 -0.000000  0.000000 -0.000000  0.000000 -0.007646
  2H   1px       -0.000538  0.004453 -0.002820 -0.004093 -0.001247 -0.000000
  2H   1py        0.004450 -0.005683 -0.000840 -0.002817  0.002163  0.000000
  2H   2pz       -0.000000  0.000000 -0.000000 -0.000000 -0.000000  0.015354
  2H   2px        0.017348 -0.018267 -0.044304 -0.005358  0.076571  0.000000
  2H   2py       -0.018243  0.038466  0.045777 -0.044385 -0.132611 -0.000000
  2H   3pz       -0.000000  0.000000  0.000000 -0.000000  0.000000 -0.568957
  2H   3px        0.285949 -0.197541 -0.723347 -0.325362  0.489313  0.000000
  2H   3py       -0.197567  0.513938  0.509466 -0.723710 -0.847329 -0.000000
  2H   1dz2      -0.001670  0.002891  0.015382 -0.008898 -0.020745 -0.000000
  2H   1dxz      -0.000000  0.000000  0.000000 -0.000000 -0.000000  0.005337
  2H   1dyz       0.000000 -0.000000 -0.000000  0.000000  0.000000  0.008592
  2H   1dx2y2    -0.001074  0.008549  0.001894 -0.019059 -0.015828 -0.000000
  2H   1dxy      -0.008542  0.010954  0.021243 -0.001910 -0.027413 -0.000000
  3H   1s        -0.005675 -0.009810 -0.114517 -0.066134 -0.115839 -0.000000
  3H   2s         0.474905  0.822111  0.282309  0.163280  0.620736 -0.000000
  3H   3s         1.338432  2.316178  1.244250  0.718556  0.994805  0.000000
  3H   1pz        0.000000  0.000000 -0.000000 -0.000000  0.000000 -0.007646
  3H   1px       -0.000540 -0.004453  0.002819 -0.004094 -0.001247  0.000000
  3H   1py       -0.004453 -0.005681 -0.000840  0.002817 -0.002163  0.000000
  3H   2pz       -0.000000 -0.000000 -0.000000 -0.000000 -0.000000  0.015355
  3H   2px        0.017358  0.018258  0.044303 -0.005365  0.076571 -0.000000
  3H   2py        0.018263  0.038457  0.045784  0.044377  0.132611 -0.000000
  3H   3pz       -0.000000 -0.000000  0.000000 -0.000000  0.000000 -0.568973
  3H   3px        0.286048  0.197397  0.723294 -0.325481  0.489313  0.000000
  3H   3py        0.197826  0.513839  0.509585  0.723626  0.847329 -0.000000
  3H   1dz2      -0.001672 -0.002891 -0.015383 -0.008895 -0.020745  0.000000
  3H   1dxz      -0.000000 -0.000000 -0.000000 -0.000000 -0.000000  0.005337
  3H   1dyz      -0.000000 -0.000000 -0.000000 -0.000000 -0.000000 -0.008592
  3H   1dx2y2    -0.001078 -0.008549 -0.001897 -0.019058 -0.015828  0.000000
  3H   1dxy       0.008547  0.010950  0.021243  0.001906  0.027413 -0.000000
                     12        13        14        15        16        17   
                   0.32753   0.33284   0.43137   0.43141   0.49839   0.60531
                   0.00000   0.00000   0.00000   0.00000   0.00000   0.00000
                  --------  --------  --------  --------  --------  --------
  0N   1s        -0.000000 -0.000000 -0.000002  0.000000  0.000000  0.064386
  0N   2s        -0.000000 -0.000000 -0.000001  0.000000  0.000000  0.116749
  0N   1pz       -0.000000  0.199948 -0.000000 -0.000000  0.000000 -0.000000
  0N   1px        0.000000 -0.000000 -0.209533 -0.000093 -0.000000  0.000016
  0N   1py        0.000000  0.000000 -0.000093  0.209576 -0.000048 -0.000000
  0N   3s         0.000000  0.000000  0.000057  0.000000  0.000000 -0.392056
  0N   2pz       -0.000000  0.302230 -0.000000 -0.000000  0.000000 -0.000000
  0N   2px       -0.000000  0.000000 -0.168019 -0.000075 -0.000000  0.000248
  0N   2py       -0.000000 -0.000000 -0.000074  0.167860 -0.000046  0.000000
  0N   4s         0.000000 -0.000000 -0.001218 -0.000001 -0.000000 -6.994876
  0N   3pz       -0.000000  1.235241 -0.000000 -0.000000  0.000000 -0.000000
  0N   3px       -0.000000  0.000000  2.343736  0.001040 -0.000000  0.002072
  0N   3py       -0.000000 -0.000000  0.001042 -2.345876  0.000218  0.000001
  0N   1dz2       0.000000  0.000000 -0.000004 -0.000000 -0.000000 -0.013025
  0N   1dxz       0.000000  0.000007 -0.000000 -0.000000 -0.000000  0.000000
  0N   1dyz      -0.003326  0.000000 -0.000000  0.000000 -0.000000 -0.000000
  0N   1dx2y2     0.000000 -0.000000 -0.002290 -0.000001  0.000000 -0.000009
  0N   1dxy      -0.000000 -0.000000  0.000001 -0.002297  0.000002  0.000000
  0N   2dz2      -0.000000  0.000000  0.000040  0.000000  0.000000  0.032851
  0N   2dxz       0.000000  0.000078  0.000000 -0.000000  0.000000  0.000000
  0N   2dyz      -0.043763  0.000000 -0.000000 -0.000000 -0.000000 -0.000000
  0N   2dx2y2    -0.000000  0.000000  0.083282  0.000037 -0.000000  0.000078
  0N   2dxy       0.000000  0.000000 -0.000037  0.083432 -0.000010 -0.000000
  0N   3dz2      -0.000000  0.000000 -0.000040  0.000000  0.000000 -0.164073
  0N   3dxz      -0.000001 -0.000183  0.000000 -0.000000 -0.000000  0.000000
  0N   3dyz       0.129996 -0.000000 -0.000000 -0.000000 -0.000000  0.000000
  0N   3dx2y2    -0.000000  0.000000  1.655686  0.000735 -0.000000  0.000370
  0N   3dxy       0.000000  0.000000 -0.000735  1.656448  0.000273 -0.000000
  0N   1f0        0.000000  0.000322  0.000000 -0.000000  0.000000  0.000000
  0N   1f+1       0.000000 -0.000000 -0.034081 -0.000015  0.000000 -0.000031
  0N   1f-1       0.000000  0.000000 -0.000015  0.034135 -0.000003 -0.000000
  0N   1f+2       0.000000  0.000002  0.000000 -0.000000  0.000000  0.000000
  0N   1f-2       0.002062 -0.000000  0.000000  0.000000  0.000000 -0.000000
  0N   1f+3      -0.000000  0.000000  0.000020  0.000000  0.000000  0.025448
  0N   1f-3      -0.000000  0.000000 -0.000000  0.000011  0.026171  0.000000
  1H   1s        -0.000000 -0.000000  0.114937  0.000051  0.000000  0.067964
  1H   2s         0.000000  0.000000 -1.876185 -0.000833  0.000000  1.508936
  1H   3s         0.000000  0.000000 -3.978848 -0.001766 -0.000000  0.765307
  1H   1pz        0.000000 -0.010541 -0.000000 -0.000000 -0.000000 -0.000000
  1H   1px        0.000000  0.000000 -0.000563 -0.000000  0.000000 -0.000825
  1H   1py        0.000000 -0.000000  0.000002 -0.003968 -0.014162  0.000000
  1H   2pz       -0.000000  0.060918  0.000000 -0.000000  0.000000 -0.000000
  1H   2px       -0.000000 -0.000000  0.191366  0.000085 -0.000000 -0.031484
  1H   2py       -0.000000 -0.000000 -0.000005  0.011706  0.057037  0.000000
  1H   3pz        0.000009 -0.881871 -0.000000  0.000000 -0.000000 -0.000000
  1H   3px       -0.000000 -0.000000  2.053472  0.000911 -0.000000 -1.538339
  1H   3py       -0.000000 -0.000000  0.000675 -1.519443 -1.157405 -0.000000
  1H   1dz2      -0.000000 -0.000000  0.006428  0.000003 -0.000000 -0.022241
  1H   1dxz      -0.000000  0.004189 -0.000000 -0.000000 -0.000000  0.000000
  1H   1dyz      -0.010297  0.000000  0.000000  0.000000 -0.000000 -0.000000
  1H   1dx2y2     0.000000 -0.000000 -0.042494 -0.000019  0.000000  0.028776
  1H   1dxy       0.000000  0.000000 -0.000007  0.015131 -0.002139  0.000000
  2H   1s        -0.000000 -0.000000 -0.057425 -0.099623  0.000007  0.067995
  2H   2s         0.000000  0.000000  0.937727  1.626965  0.000119  1.511547
  2H   3s         0.000000  0.000000  1.988121  3.447522 -0.000857  0.766664
  2H   1pz       -0.013277 -0.010582  0.000000  0.000000 -0.000000 -0.000000
  2H   1px        0.000000 -0.000000  0.002832 -0.001963  0.012274  0.000406
  2H   1py        0.000000  0.000000  0.001963 -0.000552  0.007090 -0.000705
  2H   2pz        0.026790  0.060994 -0.000000 -0.000000  0.000000 -0.000000
  2H   2px        0.000000  0.000000  0.039081  0.088066 -0.049458  0.015886
  2H   2py       -0.000000 -0.000000 -0.087921 -0.140902 -0.028547 -0.027470
  2H   3pz       -0.988184 -0.884891  0.000000  0.000000 -0.000000  0.000000
  2H   3px       -0.000000  0.000000  1.652879  0.232550  1.002276  0.769632
  2H   3py       -0.000000 -0.000000 -0.230710 -1.920148  0.579343 -1.333305
  2H   1dz2       0.000000 -0.000000 -0.003221 -0.005595  0.000011 -0.022276
  2H   1dxz      -0.008600 -0.002095 -0.000000 -0.000000  0.000000 -0.000000
  2H   1dyz       0.004594  0.003655 -0.000000  0.000000  0.000000  0.000000
  2H   1dx2y2    -0.000000 -0.000000  0.000736 -0.024980 -0.001855 -0.014428
  2H   1dxy      -0.000000 -0.000000 -0.024961 -0.028144  0.001088 -0.024984
  3H   1s         0.000000 -0.000000 -0.057513  0.099572 -0.000007  0.067995
  3H   2s        -0.000000 -0.000000  0.939171 -1.626132 -0.000119  1.511548
  3H   3s        -0.000000 -0.000000  1.991182 -3.445755  0.000857  0.766665
  3H   1pz        0.013277 -0.010582  0.000000 -0.000000 -0.000000 -0.000000
  3H   1px        0.000000  0.000000  0.002831  0.001965 -0.012274  0.000406
  3H   1py        0.000000 -0.000000 -0.001962 -0.000554  0.007090  0.000705
  3H   2pz       -0.026789  0.060994 -0.000000  0.000000  0.000000  0.000000
  3H   2px       -0.000000  0.000000  0.039159 -0.088031  0.049458  0.015886
  3H   2py       -0.000000  0.000000  0.088046 -0.140824 -0.028547  0.027470
  3H   3pz        0.988174 -0.884891  0.000000 -0.000000 -0.000000  0.000000
  3H   3px       -0.000000  0.000000  1.653085 -0.231082 -1.002276  0.769632
  3H   3py       -0.000000 -0.000000  0.232415 -1.919943  0.579343  1.333305
  3H   1dz2       0.000000 -0.000000 -0.003226  0.005592 -0.000011 -0.022276
  3H   1dxz       0.008600 -0.002095 -0.000000 -0.000000 -0.000000 -0.000000
  3H   1dyz       0.004594 -0.003655 -0.000000  0.000000  0.000000 -0.000000
  3H   1dx2y2     0.000000  0.000000  0.000713  0.024981  0.001855 -0.014428
  3H   1dxy      -0.000000 -0.000000  0.024986 -0.028122  0.001088  0.024984
                     18        19        20        21        22        23   
                   0.64064   0.66596   0.66602   0.73350   0.73362   0.83369
                   0.00000   0.00000   0.00000   0.00000   0.00000   0.00000
                  --------  --------  --------  --------  --------  --------
  0N   1s        -0.056071 -0.000004 -0.000000 -0.000000  0.000000  0.000000
  0N   2s        -0.101896 -0.000010 -0.000000 -0.000000  0.000000  0.000000
  0N   1pz       -0.000000 -0.000000 -0.000000 -0.000000  0.000015 -0.000000
  0N   1px        0.000013  0.077155  0.000014 -0.000000 -0.000000 -0.000010
  0N   1py        0.000000  0.000014 -0.077137 -0.000000  0.000000  0.174818
  0N   3s         0.419228  0.000054  0.000000  0.000000 -0.000000 -0.000000
  0N   2pz       -0.000000 -0.000000 -0.000000 -0.000000  0.000052 -0.000000
  0N   2px        0.000321  0.366781  0.000068  0.000000 -0.000000 -0.000019
  0N   2py        0.000000  0.000068 -0.366856 -0.000000 -0.000000  0.327423
  0N   4s         1.211597  0.001474 -0.000000  0.000000  0.000000  0.000000
  0N   3pz        0.000000  0.000000  0.000000  0.000000 -0.000122  0.000000
  0N   3px        0.002018  2.897577  0.000534  0.000000  0.000000  0.000337
  0N   3py        0.000000  0.000534 -2.899647  0.000000 -0.000000 -5.678937
  0N   1dz2      -0.008884  0.000006 -0.000000 -0.000000  0.000000  0.000000
  0N   1dxz      -0.000000 -0.000000 -0.000000  0.000000 -0.015958  0.000000
  0N   1dyz       0.000000 -0.000000  0.000000 -0.015961 -0.000000  0.000000
  0N   1dx2y2    -0.000010 -0.017033 -0.000003 -0.000000  0.000000 -0.000001
  0N   1dxy       0.000000  0.000003 -0.017036 -0.000000 -0.000000 -0.014692
  0N   2dz2      -0.004703 -0.000024  0.000000  0.000000 -0.000000 -0.000000
  0N   2dxz       0.000000  0.000000 -0.000000  0.000000 -0.013250 -0.000000
  0N   2dyz       0.000000 -0.000000 -0.000000 -0.013187 -0.000000 -0.000000
  0N   2dx2y2     0.000110  0.027918  0.000005  0.000000  0.000000  0.000007
  0N   2dxy       0.000000 -0.000005  0.027950 -0.000000  0.000000  0.112122
  0N   3dz2      -1.373816  0.000386 -0.000000 -0.000000 -0.000000 -0.000000
  0N   3dxz      -0.000000 -0.000000 -0.000000  0.000002 -1.948688  0.000000
  0N   3dyz       0.000000 -0.000000  0.000000 -1.948774 -0.000002 -0.000000
  0N   3dx2y2     0.000213 -0.912587 -0.000168  0.000000  0.000000  0.000064
  0N   3dxy       0.000000  0.000168 -0.911263 -0.000000  0.000000  1.077410
  0N   1f0       -0.000000  0.000000 -0.000000 -0.000000  0.000001 -0.000000
  0N   1f+1      -0.000035 -0.019323 -0.000004 -0.000000 -0.000000 -0.000003
  0N   1f-1       0.000000 -0.000004  0.019345 -0.000000  0.000000  0.057893
  0N   1f+2      -0.000000 -0.000000 -0.000000  0.000000 -0.018744  0.000000
  0N   1f-2      -0.000000  0.000000 -0.000000  0.018756  0.000000  0.000000
  0N   1f+3      -0.019091 -0.000007  0.000000 -0.000000 -0.000000 -0.000000
  0N   1f-3      -0.000000  0.000000 -0.000004  0.000000  0.000000  0.000009
  1H   1s        -0.029809 -0.100691 -0.000019  0.000000  0.000000 -0.000002
  1H   2s        -1.434074 -1.504526 -0.000277 -0.000000  0.000000 -0.000218
  1H   3s         0.427571 -2.875031 -0.000530  0.000000  0.000000 -0.000064
  1H   1pz       -0.000000 -0.000000 -0.000000  0.000000 -0.006324  0.000000
  1H   1px       -0.006158  0.003749  0.000001 -0.000000 -0.000000 -0.000001
  1H   1py        0.000000  0.000001 -0.008040 -0.000000  0.000000  0.000631
  1H   2pz        0.000000  0.000000 -0.000000 -0.000000  0.016313 -0.000000
  1H   2px        0.024564  0.063360  0.000012  0.000000  0.000000  0.000023
  1H   2py       -0.000000  0.000003 -0.013635 -0.000000 -0.000000 -0.027321
  1H   3pz        0.000000  0.000000  0.000000 -0.000002  1.656952 -0.000000
  1H   3px       -0.086174  2.638508  0.000486 -0.000000 -0.000000  0.000011
  1H   3py       -0.000000 -0.000108  0.587656  0.000000 -0.000000  0.851468
  1H   1dz2       0.006797  0.039798  0.000007  0.000000 -0.000000  0.000001
  1H   1dxz      -0.000000 -0.000000 -0.000000  0.000000 -0.030719  0.000000
  1H   1dyz      -0.000000  0.000000  0.000000 -0.001374 -0.000000 -0.000000
  1H   1dx2y2    -0.000946 -0.063883 -0.000012 -0.000000  0.000000 -0.000002
  1H   1dxy       0.000000  0.000003 -0.015443 -0.000000  0.000000 -0.023463
  2H   1s        -0.029809  0.050340  0.087218 -0.000000 -0.000000  0.026776
  2H   2s        -1.431615  0.752041  1.304838  0.000000  0.000000  3.185703
  2H   3s         0.429201  1.436539  2.490967 -0.000000 -0.000000  0.932432
  2H   1pz       -0.000000 -0.000000 -0.000000 -0.005480  0.003163  0.000000
  2H   1px        0.003074  0.006975 -0.001861 -0.000000 -0.000000 -0.008561
  2H   1py       -0.005319  0.001865 -0.004816  0.000000 -0.000000  0.015461
  2H   2pz        0.000000 -0.000000 -0.000000  0.014178 -0.008160 -0.000000
  2H   2px       -0.012136  0.025966  0.021613  0.000000 -0.000000  0.152706
  2H   2py        0.021011 -0.021550 -0.051014 -0.000000 -0.000000 -0.291844
  2H   3pz       -0.000000 -0.000000 -0.000000  1.435008 -0.828436  0.000000
  2H   3px        0.043598  0.217882  1.397303  0.000000 -0.000000  0.448716
  2H   3py       -0.075904 -1.396318 -1.832261 -0.000000  0.000000  0.074115
  2H   1dz2       0.006746 -0.019885 -0.034459 -0.000000  0.000000 -0.015790
  2H   1dxz       0.000000 -0.000000 -0.000000  0.012711 -0.008715 -0.000000
  2H   1dyz       0.000000  0.000000  0.000000 -0.023388  0.012702  0.000000
  2H   1dx2y2     0.000417 -0.027552 -0.020978 -0.000000  0.000000 -0.002199
  2H   1dxy       0.000732 -0.020941 -0.051781 -0.000000  0.000000 -0.027263
  3H   1s        -0.029809  0.050372 -0.087199 -0.000000  0.000000 -0.026775
  3H   2s        -1.431615  0.752522 -1.304561  0.000000 -0.000000 -3.185485
  3H   3s         0.429201  1.437456 -2.490437  0.000000 -0.000000 -0.932368
  3H   1pz       -0.000000  0.000000  0.000000  0.005480  0.003163 -0.000000
  3H   1px        0.003074  0.006975  0.001864 -0.000000 -0.000000  0.008560
  3H   1py        0.005319 -0.001863 -0.004816 -0.000000  0.000000  0.015460
  3H   2pz       -0.000000 -0.000000  0.000000 -0.014178 -0.008160  0.000000
  3H   2px       -0.012136  0.025974 -0.021604  0.000000 -0.000000 -0.152692
  3H   2py       -0.021011  0.021569 -0.051006  0.000000 -0.000000 -0.291826
  3H   3pz        0.000000 -0.000000  0.000000 -1.435006 -0.828439 -0.000000
  3H   3px        0.043598  0.218397 -1.397222 -0.000000  0.000000 -0.448786
  3H   3py        0.075905  1.396992 -1.831746 -0.000000 -0.000000  0.074169
  3H   1dz2       0.006746 -0.019898  0.034452  0.000000  0.000000  0.015789
  3H   1dxz       0.000000 -0.000000  0.000000 -0.012711 -0.008715  0.000000
  3H   1dyz       0.000000 -0.000000  0.000000 -0.023388 -0.012702  0.000000
  3H   1dx2y2     0.000417 -0.027559  0.020968 -0.000000  0.000000  0.002196
  3H   1dxy      -0.000732  0.020960 -0.051773  0.000000 -0.000000 -0.027263
                     24        25        26        27        28        29   
                   0.83382   0.85634   1.03491   1.04086   1.04091   1.62244
                   0.00000   0.00000   0.00000   0.00000   0.00000   0.00000
                  --------  --------  --------  --------  --------  --------
  0N   1s         0.000031 -0.000000 -0.074939 -0.000000  0.000951  0.000000
  0N   2s         0.000054 -0.000000 -0.125712 -0.000000  0.001602  0.000000
  0N   1pz        0.000000  0.218756 -0.000000 -0.000000  0.000000 -0.000000
  0N   1px        0.174967 -0.000000  0.002103 -0.000009  0.159010 -0.000000
  0N   1py        0.000010  0.000000 -0.000000  0.159144  0.000009 -0.000000
  0N   3s        -0.000612  0.000000  1.619504  0.000004 -0.020638 -0.000000
  0N   2pz        0.000000  0.844886 -0.000000 -0.000000  0.000000 -0.000000
  0N   2px        0.328051 -0.000000  0.011775 -0.000052  0.929725  0.000000
  0N   2py        0.000019  0.000000 -0.000002  0.930093  0.000052 -0.000000
  0N   4s         0.003458 -0.000000-12.594767 -0.000031  0.160263 -0.000000
  0N   3pz       -0.000000 -3.059466  0.000000  0.000000 -0.000000  0.000000
  0N   3px       -5.675901  0.000000  0.066301 -0.000303  5.414217 -0.000000
  0N   3py       -0.000337 -0.000000 -0.000010  5.410392  0.000303 -0.000000
  0N   1dz2       0.000009 -0.000000 -0.027025 -0.000000  0.000341 -0.000000
  0N   1dxz       0.000000  0.000001 -0.000000 -0.000000 -0.000000  0.000000
  0N   1dyz      -0.000000 -0.000000 -0.000000 -0.000000  0.000000 -0.009261
  0N   1dx2y2     0.014689 -0.000000 -0.000069  0.000000 -0.006217 -0.000000
  0N   1dxy      -0.000001 -0.000000 -0.000000  0.006208  0.000000  0.000000
  0N   2dz2      -0.000105  0.000000  0.260936  0.000001 -0.003235  0.000000
  0N   2dxz      -0.000000 -0.000005 -0.000000  0.000000  0.000000  0.000001
  0N   2dyz      -0.000000 -0.000000 -0.000000  0.000000  0.000000 -0.243549
  0N   2dx2y2    -0.111997  0.000000  0.002394 -0.000011  0.199172  0.000000
  0N   2dxy       0.000007 -0.000000  0.000000 -0.199192 -0.000011  0.000000
  0N   3dz2      -0.000568 -0.000000  1.174243  0.000003 -0.014809 -0.000000
  0N   3dxz      -0.000000  0.000098 -0.000000 -0.000000  0.000000 -0.000002
  0N   3dyz      -0.000000 -0.000000  0.000000  0.000000  0.000000  0.667215
  0N   3dx2y2    -1.074242  0.000000  0.056105 -0.000249  4.442109 -0.000000
  0N   3dxy       0.000064 -0.000000  0.000008 -4.441800 -0.000249  0.000000
  0N   1f0        0.000000  0.023388  0.000000 -0.000000  0.000000  0.000000
  0N   1f+1       0.057823 -0.000000 -0.000674  0.000003 -0.055125 -0.000000
  0N   1f-1       0.000003  0.000000  0.000000 -0.055125 -0.000003  0.000000
  0N   1f+2      -0.000000 -0.000015  0.000000 -0.000000  0.000000 -0.000000
  0N   1f-2       0.000000 -0.000000 -0.000000 -0.000000  0.000000 -0.021158
  0N   1f+3      -0.000084  0.000000  0.211443  0.000001 -0.002657  0.000000
  0N   1f-3       0.000000 -0.000000  0.000000 -0.000009 -0.000000  0.000000
  1H   1s         0.030868 -0.000000  0.110149  0.000003 -0.048991 -0.000000
  1H   2s         3.672682  0.000000  3.176640  0.000390 -6.858140  0.000000
  1H   3s         1.075586  0.000000  1.113500  0.000190 -3.349947  0.000000
  1H   1pz       -0.000000 -0.004421  0.000000 -0.000000 -0.000000 -0.000000
  1H   1px        0.020379  0.000000  0.021535  0.000001 -0.024212  0.000000
  1H   1py        0.000000 -0.000000  0.000000 -0.012458 -0.000001 -0.000000
  1H   2pz       -0.000000  0.067670 -0.000000  0.000000 -0.000000  0.000003
  1H   2px       -0.379549 -0.000000 -0.572781 -0.000022  0.382247 -0.000000
  1H   2py       -0.000002 -0.000000 -0.000000  0.060989  0.000003  0.000000
  1H   3pz        0.000000  0.950910 -0.000000  0.000000  0.000000 -0.000000
  1H   3px       -0.184104 -0.000000 -1.117235 -0.000128  2.254830 -0.000000
  1H   3py        0.000051  0.000000 -0.000003  1.740661  0.000097 -0.000000
  1H   1dz2      -0.018202 -0.000000 -0.067551 -0.000003  0.052168 -0.000000
  1H   1dxz      -0.000000 -0.026877  0.000000  0.000000 -0.000000 -0.000000
  1H   1dyz      -0.000000 -0.000000 -0.000000  0.000000  0.000000  0.047374
  1H   1dx2y2     0.028461  0.000000  0.114454  0.000005 -0.092845  0.000000
  1H   1dxy      -0.000001 -0.000000  0.000000 -0.038118 -0.000002 -0.000000
  2H   1s        -0.015489  0.000000  0.111047 -0.041104  0.022338 -0.000000
  2H   2s        -1.837886  0.000000  3.304129 -5.902104  3.366810  0.000000
  2H   3s        -0.537986  0.000000  1.175748 -2.887472  1.652610  0.000000
  2H   1pz       -0.000000 -0.004422  0.000000  0.000000  0.000000  0.048201
  2H   1px        0.005561 -0.000000 -0.011109  0.004964 -0.015197 -0.000000
  2H   1py       -0.008568  0.000000  0.018958 -0.021065  0.004728 -0.000000
  2H   2pz        0.000000  0.067670 -0.000000 -0.000000  0.000000 -0.858753
  2H   2px       -0.115457  0.000000  0.290405 -0.135828  0.135945  0.000000
  2H   2py        0.152815 -0.000000 -0.501550  0.296397 -0.129573  0.000000
  2H   3pz        0.000000  0.951042 -0.000000  0.000000 -0.000000  0.152138
  2H   3px        0.593284 -0.000000  0.596516 -0.216198  1.857640  0.000000
  2H   3py        0.449031 -0.000000 -0.994297  2.115066 -0.203772 -0.000000
  2H   1dz2       0.009135 -0.000000 -0.068466  0.044428 -0.024792 -0.000000
  2H   1dxz       0.000000  0.013434 -0.000000  0.000000  0.000000  0.004886
  2H   1dyz      -0.000000 -0.023273  0.000000 -0.000000  0.000000  0.038924
  2H   1dx2y2     0.024760 -0.000000 -0.057680  0.056082  0.006468  0.000000
  2H   1dxy       0.002189 -0.000000 -0.100761  0.059016 -0.054821 -0.000000
  3H   1s        -0.015492  0.000000  0.111047  0.041102  0.022343 -0.000000
  3H   2s        -1.838263  0.000000  3.304107  5.901738  3.367471 -0.000000
  3H   3s        -0.538096  0.000000  1.175737  2.887291  1.652933 -0.000000
  3H   1pz       -0.000000 -0.004422  0.000000  0.000000 -0.000000 -0.048201
  3H   1px        0.005562 -0.000000 -0.011109 -0.004962 -0.015198  0.000000
  3H   1py        0.008570 -0.000000 -0.018958 -0.021065 -0.004730 -0.000000
  3H   2pz        0.000000  0.067670 -0.000000  0.000000  0.000000  0.858750
  3H   2px       -0.115475  0.000000  0.290404  0.135814  0.135960 -0.000000
  3H   2py       -0.152850  0.000000  0.501549  0.296385  0.129606  0.000000
  3H   3pz        0.000000  0.951042 -0.000000 -0.000000 -0.000000 -0.152138
  3H   3px        0.593230 -0.000000  0.596515  0.215992  1.857664 -0.000000
  3H   3py       -0.449022  0.000000  0.994289  2.115046  0.204008 -0.000000
  3H   1dz2       0.009137 -0.000000 -0.068466 -0.044425 -0.024797  0.000000
  3H   1dxz       0.000000  0.013434 -0.000000 -0.000000 -0.000000 -0.004886
  3H   1dyz       0.000000  0.023273 -0.000000 -0.000000 -0.000000  0.038924
  3H   1dx2y2     0.024760 -0.000000 -0.057680 -0.056082  0.006461 -0.000000
  3H   1dxy      -0.002192  0.000000  0.100760  0.059010  0.054828  0.000000
                     30        31        32        33        34        35   
                   1.62248   1.71309   1.73168   1.90829   1.90837   2.05428
                   0.00000   0.00000   0.00000   0.00000   0.00000   0.00000
                  --------  --------  --------  --------  --------  --------
  0N   1s        -0.000000  0.000000  0.000000 -0.000000 -0.000000 -0.049010
  0N   2s         0.000000  0.000000  0.000000  0.000017 -0.000000 -0.070950
  0N   1pz       -0.000007  0.000000  0.193253 -0.000000 -0.000000  0.000000
  0N   1px       -0.000000  0.000000  0.000000  0.045386  0.000001 -0.000045
  0N   1py        0.000000 -0.000006 -0.000000  0.000001 -0.045413 -0.000000
  0N   3s         0.000000 -0.000000 -0.000000 -0.000116  0.000000  0.555565
  0N   2pz       -0.000017  0.000000  0.199802 -0.000000 -0.000000 -0.000000
  0N   2px       -0.000000 -0.000000 -0.000000  0.053787  0.000001 -0.000066
  0N   2py       -0.000000  0.000143  0.000000  0.000001 -0.053963  0.000000
  0N   4s        -0.000000 -0.000000  0.000000 -0.002422 -0.000000 -6.130059
  0N   3pz        0.000029 -0.000000 -0.293861  0.000000  0.000000 -0.000000
  0N   3px       -0.000000 -0.000000 -0.000000 -1.388464 -0.000029  0.000139
  0N   3py        0.000000  0.000797 -0.000000 -0.000029  1.388274  0.000000
  0N   1dz2      -0.000000 -0.000000 -0.000000 -0.000007  0.000000 -0.001842
  0N   1dxz      -0.009263 -0.000000 -0.000000  0.000000 -0.000000 -0.000000
  0N   1dyz      -0.000000  0.000000 -0.000000 -0.000000 -0.000000  0.000000
  0N   1dx2y2    -0.000000  0.000000  0.000000 -0.009906 -0.000000  0.000005
  0N   1dxy      -0.000000  0.000001  0.000000  0.000000 -0.009908  0.000000
  0N   2dz2       0.000000  0.000000 -0.000000  0.000266  0.000000  0.738165
  0N   2dxz      -0.243495 -0.000000 -0.000004  0.000000  0.000000 -0.000000
  0N   2dyz      -0.000001  0.000000 -0.000000 -0.000000 -0.000000  0.000000
  0N   2dx2y2    -0.000000 -0.000000 -0.000000 -0.436183 -0.000009  0.000096
  0N   2dxy       0.000000 -0.000152 -0.000000  0.000009 -0.436118 -0.000000
  0N   3dz2       0.000000 -0.000000  0.000000  0.000052 -0.000000 -0.113207
  0N   3dxz       0.667322  0.000000  0.000029 -0.000000 -0.000000 -0.000000
  0N   3dyz       0.000002 -0.000000  0.000000  0.000000  0.000000 -0.000000
  0N   3dx2y2    -0.000000  0.000000  0.000000  1.834276  0.000038 -0.000522
  0N   3dxy      -0.000000  0.000067  0.000000 -0.000038  1.834569 -0.000000
  0N   1f0        0.000002  0.000000  0.028591 -0.000000 -0.000000  0.000000
  0N   1f+1       0.000000  0.000000  0.000000  0.004338  0.000000 -0.000006
  0N   1f-1       0.000000 -0.000012 -0.000000  0.000000 -0.004330 -0.000000
  0N   1f+2       0.021147  0.000000  0.000003 -0.000000  0.000000  0.000000
  0N   1f-2      -0.000000  0.000000 -0.000000 -0.000000 -0.000000 -0.000000
  0N   1f+3       0.000000  0.000000 -0.000000  0.000102  0.000000  0.110492
  0N   1f-3      -0.000000  0.047128  0.000000  0.000000 -0.000012  0.000000
  1H   1s        -0.000000 -0.000000  0.000000 -0.184331 -0.000004 -0.417112
  1H   2s         0.000000  0.000000 -0.000000  0.075496  0.000002  1.794027
  1H   3s         0.000000 -0.000000 -0.000000  1.211655  0.000025  0.502421
  1H   1pz        0.055656  0.000000  0.039784 -0.000000 -0.000000  0.000000
  1H   1px       -0.000000  0.000000 -0.000000 -0.008130 -0.000000 -0.008379
  1H   1py        0.000000 -0.039220  0.000000 -0.000001  0.045835 -0.000000
  1H   2pz       -0.991589 -0.000000 -0.724566  0.000000  0.000000 -0.000000
  1H   2px        0.000000 -0.000000  0.000000  0.304546  0.000006  0.167622
  1H   2py       -0.000000  0.775295 -0.000000  0.000019 -0.929747  0.000000
  1H   3pz        0.175568  0.000000  0.373936  0.000000 -0.000000  0.000000
  1H   3px       -0.000000 -0.000000  0.000000 -1.244808 -0.000026 -1.024441
  1H   3py        0.000000 -0.708450 -0.000000  0.000011 -0.547383  0.000000
  1H   1dz2      -0.000000 -0.000000  0.000000 -0.042706 -0.000001 -0.065449
  1H   1dxz       0.036092  0.000000 -0.039510  0.000000  0.000000  0.000000
  1H   1dyz       0.000000 -0.000000 -0.000000 -0.000000  0.000000 -0.000000
  1H   1dx2y2     0.000000  0.000000 -0.000000  0.135770  0.000003  0.180257
  1H   1dxy      -0.000000 -0.019448  0.000000 -0.000000  0.019964  0.000000
  2H   1s        -0.000000  0.000036  0.000000  0.091907  0.159479 -0.417243
  2H   2s        -0.000000 -0.000563 -0.000000 -0.036424 -0.064189  1.793818
  2H   3s        -0.000000 -0.000429 -0.000000 -0.605572 -1.049222  0.502681
  2H   1pz       -0.027831 -0.000000  0.039781  0.000000  0.000000  0.000000
  2H   1px       -0.000000  0.033985  0.000000 -0.036412  0.016312  0.004198
  2H   1py       -0.000000  0.019618 -0.000000 -0.016321  0.017560 -0.007262
  2H   2pz        0.495843  0.000000 -0.724500 -0.000000 -0.000000 -0.000000
  2H   2px        0.000000 -0.671744 -0.000000  0.773444 -0.270348 -0.084043
  2H   2py        0.000000 -0.387795  0.000000  0.270497 -0.460915  0.145311
  2H   3pz       -0.087817 -0.000000  0.373929 -0.000000 -0.000000 -0.000000
  2H   3px       -0.000000  0.613365 -0.000000  0.099623 -0.776153  0.512301
  2H   3py        0.000000  0.354546  0.000000  0.775612  0.796397 -0.887620
  2H   1dz2       0.000000  0.000038  0.000000  0.021297  0.036931 -0.065447
  2H   1dxz       0.044562  0.000000  0.019764 -0.000000  0.000000 -0.000000
  2H   1dyz       0.004887  0.000000 -0.034211 -0.000000 -0.000000 -0.000000
  2H   1dx2y2     0.000000 -0.016836  0.000000  0.048878  0.050121 -0.090173
  2H   1dxy      -0.000000  0.009771  0.000000  0.050045  0.106764 -0.156168
  3H   1s         0.000000 -0.000036  0.000000  0.091914 -0.159475 -0.417243
  3H   2s        -0.000000  0.000563 -0.000000 -0.036427  0.064188  1.793819
  3H   3s        -0.000000  0.000429 -0.000000 -0.605615  1.049197  0.502681
  3H   1pz       -0.027832  0.000000  0.039781  0.000000 -0.000000  0.000000
  3H   1px       -0.000000 -0.033985  0.000000 -0.036412 -0.016314  0.004198
  3H   1py        0.000000  0.019618  0.000000  0.016320  0.017561  0.007262
  3H   2pz        0.495847 -0.000000 -0.724500 -0.000000  0.000000 -0.000000
  3H   2px        0.000000  0.671744 -0.000000  0.773433  0.270380 -0.084043
  3H   2py       -0.000000 -0.387795 -0.000000 -0.270478 -0.460926 -0.145311
  3H   3pz       -0.087818  0.000000  0.373929 -0.000000  0.000000 -0.000000
  3H   3px       -0.000000 -0.613365 -0.000000  0.099591  0.776157  0.512301
  3H   3py       -0.000000  0.354546 -0.000000 -0.775645  0.796365  0.887620
  3H   1dz2       0.000000 -0.000038  0.000000  0.021298 -0.036930 -0.065447
  3H   1dxz       0.044562 -0.000000  0.019764 -0.000000 -0.000000 -0.000000
  3H   1dyz      -0.004887  0.000000  0.034211  0.000000 -0.000000  0.000000
  3H   1dx2y2     0.000000  0.016836  0.000000  0.048880 -0.050119 -0.090173
  3H   1dxy      -0.000000  0.009771 -0.000000 -0.050050  0.106762  0.156168
                     36        37        38        39        40        41   
                   2.14973   2.14973   2.48758   2.48764   2.50929   2.67791
                   0.00000   0.00000   0.00000   0.00000   0.00000   0.00000
                  --------  --------  --------  --------  --------  --------
  0N   1s        -0.000005 -0.000000 -0.000000 -0.000000 -0.006517 -0.000019
  0N   2s        -0.000007 -0.000000 -0.000000 -0.000000 -0.052793 -0.000038
  0N   1pz       -0.000000  0.000000 -0.000000 -0.000008  0.000000  0.000000
  0N   1px        0.275344  0.000129  0.000000  0.000000 -0.000002  0.120305
  0N   1py       -0.000129  0.275327 -0.000000  0.000000 -0.000000 -0.000019
  0N   3s         0.000077  0.000000  0.000000  0.000000  0.237462  0.000212
  0N   2pz       -0.000000  0.000000  0.000000  0.000003  0.000000 -0.000000
  0N   2px       -0.531478 -0.000249 -0.000000 -0.000000  0.000945  1.924650
  0N   2py        0.000249 -0.531238  0.000000 -0.000000 -0.000000 -0.000309
  0N   4s        -0.000930 -0.000001  0.000000  0.000000  7.202047  0.000777
  0N   3pz        0.000000 -0.000000  0.000000  0.000008  0.000000 -0.000000
  0N   3px       -2.540175 -0.001189 -0.000000 -0.000000  0.002296  6.004167
  0N   3py        0.001189 -2.539445  0.000000 -0.000000 -0.000000 -0.000964
  0N   1dz2      -0.000001  0.000000  0.000000  0.000000  0.025814  0.000003
  0N   1dxz       0.000000  0.000000  0.000000  0.017057 -0.000000 -0.000000
  0N   1dyz      -0.000000  0.000000 -0.017052  0.000000  0.000000 -0.000000
  0N   1dx2y2     0.001321  0.000001  0.000000 -0.000000 -0.000024 -0.045225
  0N   1dxy       0.000001 -0.001315 -0.000000 -0.000000 -0.000000 -0.000007
  0N   2dz2       0.000067  0.000000  0.000000  0.000000  0.258645 -0.000343
  0N   2dxz      -0.000000  0.000000  0.000002  0.867906 -0.000000  0.000000
  0N   2dyz      -0.000000 -0.000000 -0.867915  0.000002  0.000000 -0.000000
  0N   2dx2y2    -0.587099 -0.000275 -0.000000 -0.000000  0.000411  1.112878
  0N   2dxy      -0.000275  0.586984 -0.000000  0.000000  0.000000  0.000179
  0N   3dz2       0.000018 -0.000000 -0.000000 -0.000000 -1.122774  0.000161
  0N   3dxz       0.000000 -0.000000 -0.000002 -0.968088  0.000000  0.000000
  0N   3dyz       0.000000  0.000000  0.967975 -0.000002 -0.000000  0.000000
  0N   3dx2y2    -1.099090 -0.000514 -0.000000  0.000000  0.000809  1.215883
  0N   3dxy      -0.000514  1.098934  0.000000  0.000000  0.000000  0.000195
  0N   1f0       -0.000000  0.000000 -0.000000  0.000006 -0.000000 -0.000000
  0N   1f+1       0.091428  0.000043  0.000000 -0.000000 -0.000108 -0.227962
  0N   1f-1      -0.000043  0.091405  0.000000  0.000000  0.000000  0.000037
  0N   1f+2       0.000000 -0.000000 -0.000000 -0.192202  0.000000  0.000000
  0N   1f-2      -0.000000 -0.000000 -0.192199  0.000000  0.000000 -0.000000
  0N   1f+3       0.000017  0.000000 -0.000000 -0.000000 -0.512584  0.000056
  0N   1f-3       0.000000 -0.000007 -0.000000  0.000000 -0.000000 -0.000000
  1H   1s        -0.500787 -0.000234 -0.000000  0.000000  0.619153  0.798208
  1H   2s         3.320646  0.001554  0.000000 -0.000000 -3.203062 -7.058279
[...]
or in case you have a reason to use a different symmetry number we print 
out the resulting rotational entropy values for sn=1,12 :
 --------------------------------------------------------
|  sn= 1 | S(rot)=       0.00643587 Eh      4.04 kcal/mol|
|  sn= 2 | S(rot)=       0.00578142 Eh      3.63 kcal/mol|
|  sn= 3 | S(rot)=       0.00539858 Eh      3.39 kcal/mol|
|  sn= 4 | S(rot)=       0.00512696 Eh      3.22 kcal/mol|
|  sn= 5 | S(rot)=       0.00491627 Eh      3.09 kcal/mol|
|  sn= 6 | S(rot)=       0.00474413 Eh      2.98 kcal/mol|
|  sn= 7 | S(rot)=       0.00459858 Eh      2.89 kcal/mol|
|  sn= 8 | S(rot)=       0.00447250 Eh      2.81 kcal/mol|
|  sn= 9 | S(rot)=       0.00436129 Eh      2.74 kcal/mol|
|  sn=10 | S(rot)=       0.00426182 Eh      2.67 kcal/mol|
|  sn=11 | S(rot)=       0.00417182 Eh      2.62 kcal/mol|
|  sn=12 | S(rot)=       0.00408967 Eh      2.57 kcal/mol|
 --------------------------------------------------------


-------------------
GIBBS FREE ENERGY
-------------------

The Gibbs free energy is G = H - T*S

Total enthalpy                    ...    -56.51660605 Eh 
Total entropy correction          ...     -0.02215564 Eh    -13.90 kcal/mol
-----------------------------------------------------------------------
Final Gibbs free energy         ...    -56.53876169 Eh

For completeness - the Gibbs free energy minus the electronic energy
G-E(el)                           ...      0.01373294 Eh      8.62 kcal/mol




------------------------------------------------------------------------------- 
                    Intrinsic Reaction Coordinate Calculation                  
------------------------------------------------------------------------------- 

System:
Nr. of atoms                        .... 4
Algorithm: SD (steepest descent step) plus correction
Settings:
Max. no of cycles        MaxIter    .... 1000
Direction                           .... Forward and backward
Initial displacement Hessian type   .... Read
Hessian Filename                    .... NH3‡.hess
Following Hessian mode              .... 0
Initial displacement type           .... Energy
  Initial displacement energy change.... 0.250 mEh
Coordinate system following type    .... Cartesian
Length of steepest descent step     .... 0.150 bohr
Do parabolic fit 
  if SD step is uphill              .... YES
Do Correction to SD step            .... YES
Scaling for length of correction
  compared to SD step               .... 0.333
Do parabolic fit to SD correction   .... YES
Only interpolate for parabolic fit  .... YES
Do update to length of
  SD step and correction            .... YES
Convergence Tolerances:
  Max. Gradient            TolMAXG  ....  1.0000e-03 Eh/bohr
  RMS Gradient             TolRMSG  ....  2.0000e-04 Eh/bohr
Storing full IRC trajectory in      .... NH3‡_IRC_Full_trj.xyz
Storing forward trajectory in       .... NH3‡_IRC_F_trj.xyz
Storing backward trajectory in      .... NH3‡_IRC_B_trj.xyz


 ...good, the file NH3‡.hess exists
Reading the hessian file           ...... done
Determining length of initial displacement:
  Requested energy change (quadratic behavior): 0.250 mEh
  Resulting scaling factor for initial displacement along normalized TS mode: 0.1220

         *************************************************************
         *                          FORWARD IRC                      *
         *************************************************************

NOTIFICATION: Different basis set in ORCA and otool_gcp:
ORCA: 86  gCP: 49 
If you are NOT using ECPs, check your basis set inputs!
Iteration    E(Eh)      dE(kcal/mol)  max(|G|)   RMS(G) 
Convergence thresholds                0.001000  0.000200            
    0       -56.552741   -0.154675    0.005723  0.001945
NOTIFICATION: Different basis set in ORCA and otool_gcp:
ORCA: 86  gCP: 49 
If you are NOT using ECPs, check your basis set inputs!
NOTIFICATION: Different basis set in ORCA and otool_gcp:
ORCA: 86  gCP: 49 
If you are NOT using ECPs, check your basis set inputs!
NOTIFICATION: Different basis set in ORCA and otool_gcp:
ORCA: 86  gCP: 49 
If you are NOT using ECPs, check your basis set inputs!
NOTIFICATION: Different basis set in ORCA and otool_gcp:
ORCA: 86  gCP: 49 
If you are NOT using ECPs, check your basis set inputs!
    1       -56.556033   -2.220121    0.013566  0.007642
NOTIFICATION: Different basis set in ORCA and otool_gcp:
ORCA: 86  gCP: 49 
If you are NOT using ECPs, check your basis set inputs!
NOTIFICATION: Different basis set in ORCA and otool_gcp:
ORCA: 86  gCP: 49 
If you are NOT using ECPs, check your basis set inputs!
NOTIFICATION: Different basis set in ORCA and otool_gcp:
ORCA: 86  gCP: 49 
If you are NOT using ECPs, check your basis set inputs!
NOTIFICATION: Different basis set in ORCA and otool_gcp:
ORCA: 86  gCP: 49 
If you are NOT using ECPs, check your basis set inputs!
    2       -56.558931   -4.039132    0.016759  0.005990
NOTIFICATION: Different basis set in ORCA and otool_gcp:
ORCA: 86  gCP: 49 
If you are NOT using ECPs, check your basis set inputs!
NOTIFICATION: Different basis set in ORCA and otool_gcp:
ORCA: 86  gCP: 49 
If you are NOT using ECPs, check your basis set inputs!
NOTIFICATION: Different basis set in ORCA and otool_gcp:
ORCA: 86  gCP: 49 
If you are NOT using ECPs, check your basis set inputs!
NOTIFICATION: Different basis set in ORCA and otool_gcp:
ORCA: 86  gCP: 49 
If you are NOT using ECPs, check your basis set inputs!
    3       -56.561491   -5.645186    0.007288  0.004035
NOTIFICATION: Different basis set in ORCA and otool_gcp:
ORCA: 86  gCP: 49 
If you are NOT using ECPs, check your basis set inputs!
NOTIFICATION: Different basis set in ORCA and otool_gcp:
ORCA: 86  gCP: 49 
If you are NOT using ECPs, check your basis set inputs!
NOTIFICATION: Different basis set in ORCA and otool_gcp:
ORCA: 86  gCP: 49 
If you are NOT using ECPs, check your basis set inputs!
NOTIFICATION: Different basis set in ORCA and otool_gcp:
ORCA: 86  gCP: 49 
If you are NOT using ECPs, check your basis set inputs!
    4       -56.562403   -6.217450    0.004793  0.002096
NOTIFICATION: Different basis set in ORCA and otool_gcp:
ORCA: 86  gCP: 49 
If you are NOT using ECPs, check your basis set inputs!
NOTIFICATION: Different basis set in ORCA and otool_gcp:
ORCA: 86  gCP: 49 
If you are NOT using ECPs, check your basis set inputs!
NOTIFICATION: Different basis set in ORCA and otool_gcp:
ORCA: 86  gCP: 49 
If you are NOT using ECPs, check your basis set inputs!
NOTIFICATION: Different basis set in ORCA and otool_gcp:
ORCA: 86  gCP: 49 
If you are NOT using ECPs, check your basis set inputs!
NOTIFICATION: Different basis set in ORCA and otool_gcp:
ORCA: 86  gCP: 49 
If you are NOT using ECPs, check your basis set inputs!
NOTIFICATION: Different basis set in ORCA and otool_gcp:
ORCA: 86  gCP: 49 
If you are NOT using ECPs, check your basis set inputs!
    5       -56.562423   -6.230136    0.002833  0.001281
NOTIFICATION: Different basis set in ORCA and otool_gcp:
ORCA: 86  gCP: 49 
If you are NOT using ECPs, check your basis set inputs!
NOTIFICATION: Different basis set in ORCA and otool_gcp:
ORCA: 86  gCP: 49 
If you are NOT using ECPs, check your basis set inputs!
NOTIFICATION: Different basis set in ORCA and otool_gcp:
ORCA: 86  gCP: 49 
If you are NOT using ECPs, check your basis set inputs!
NOTIFICATION: Different basis set in ORCA and otool_gcp:
ORCA: 86  gCP: 49 
If you are NOT using ECPs, check your basis set inputs!
NOTIFICATION: Different basis set in ORCA and otool_gcp:
ORCA: 86  gCP: 49 
If you are NOT using ECPs, check your basis set inputs!
NOTIFICATION: Different basis set in ORCA and otool_gcp:
ORCA: 86  gCP: 49 
If you are NOT using ECPs, check your basis set inputs!
    6       -56.562432   -6.235740    0.001493  0.000721
NOTIFICATION: Different basis set in ORCA and otool_gcp:
ORCA: 86  gCP: 49 
If you are NOT using ECPs, check your basis set inputs!
NOTIFICATION: Different basis set in ORCA and otool_gcp:
ORCA: 86  gCP: 49 
If you are NOT using ECPs, check your basis set inputs!
NOTIFICATION: Different basis set in ORCA and otool_gcp:
ORCA: 86  gCP: 49 
If you are NOT using ECPs, check your basis set inputs!
NOTIFICATION: Different basis set in ORCA and otool_gcp:
ORCA: 86  gCP: 49 
If you are NOT using ECPs, check your basis set inputs!
NOTIFICATION: Different basis set in ORCA and otool_gcp:
ORCA: 86  gCP: 49 
If you are NOT using ECPs, check your basis set inputs!
NOTIFICATION: Different basis set in ORCA and otool_gcp:
ORCA: 86  gCP: 49 
If you are NOT using ECPs, check your basis set inputs!
    7       -56.562435   -6.237867    0.000883  0.000406
NOTIFICATION: Different basis set in ORCA and otool_gcp:
ORCA: 86  gCP: 49 
If you are NOT using ECPs, check your basis set inputs!
NOTIFICATION: Different basis set in ORCA and otool_gcp:
ORCA: 86  gCP: 49 
If you are NOT using ECPs, check your basis set inputs!
NOTIFICATION: Different basis set in ORCA and otool_gcp:
ORCA: 86  gCP: 49 
If you are NOT using ECPs, check your basis set inputs!
NOTIFICATION: Different basis set in ORCA and otool_gcp:
ORCA: 86  gCP: 49 
If you are NOT using ECPs, check your basis set inputs!
NOTIFICATION: Different basis set in ORCA and otool_gcp:
ORCA: 86  gCP: 49 
If you are NOT using ECPs, check your basis set inputs!
NOTIFICATION: Different basis set in ORCA and otool_gcp:
ORCA: 86  gCP: 49 
If you are NOT using ECPs, check your basis set inputs!
    8       -56.562437   -6.238801    0.000597  0.000246
NOTIFICATION: Different basis set in ORCA and otool_gcp:
ORCA: 86  gCP: 49 
If you are NOT using ECPs, check your basis set inputs!
NOTIFICATION: Different basis set in ORCA and otool_gcp:
ORCA: 86  gCP: 49 
If you are NOT using ECPs, check your basis set inputs!
NOTIFICATION: Different basis set in ORCA and otool_gcp:
ORCA: 86  gCP: 49 
If you are NOT using ECPs, check your basis set inputs!
NOTIFICATION: Different basis set in ORCA and otool_gcp:
ORCA: 86  gCP: 49 
If you are NOT using ECPs, check your basis set inputs!
NOTIFICATION: Different basis set in ORCA and otool_gcp:
ORCA: 86  gCP: 49 
If you are NOT using ECPs, check your basis set inputs!
NOTIFICATION: Different basis set in ORCA and otool_gcp:
ORCA: 86  gCP: 49 
If you are NOT using ECPs, check your basis set inputs!
    9       -56.562438   -6.239383    0.000383  0.000168

                      ***********************HURRAY********************
                      ***            THE IRC HAS CONVERGED          ***
                      *************************************************


         *************************************************************
         *                          BACKWARD IRC                     *
         *************************************************************

NOTIFICATION: Different basis set in ORCA and otool_gcp:
ORCA: 86  gCP: 49 
If you are NOT using ECPs, check your basis set inputs!
Iteration    E(Eh)      dE(kcal/mol)  max(|G|)   RMS(G) 
Convergence thresholds                0.001000  0.000200            
    0       -56.552741   -0.154675    0.005723  0.001945
NOTIFICATION: Different basis set in ORCA and otool_gcp:
ORCA: 86  gCP: 49 
If you are NOT using ECPs, check your basis set inputs!
NOTIFICATION: Different basis set in ORCA and otool_gcp:
ORCA: 86  gCP: 49 
If you are NOT using ECPs, check your basis set inputs!
NOTIFICATION: Different basis set in ORCA and otool_gcp:
ORCA: 86  gCP: 49 
If you are NOT using ECPs, check your basis set inputs!
NOTIFICATION: Different basis set in ORCA and otool_gcp:
ORCA: 86  gCP: 49 
If you are NOT using ECPs, check your basis set inputs!
    1       -56.556033   -2.220124    0.013566  0.007642
NOTIFICATION: Different basis set in ORCA and otool_gcp:
ORCA: 86  gCP: 49 
If you are NOT using ECPs, check your basis set inputs!
NOTIFICATION: Different basis set in ORCA and otool_gcp:
ORCA: 86  gCP: 49 
If you are NOT using ECPs, check your basis set inputs!
NOTIFICATION: Different basis set in ORCA and otool_gcp:
ORCA: 86  gCP: 49 
If you are NOT using ECPs, check your basis set inputs!
NOTIFICATION: Different basis set in ORCA and otool_gcp:
ORCA: 86  gCP: 49 
If you are NOT using ECPs, check your basis set inputs!
    2       -56.558931   -4.039136    0.016759  0.005990
NOTIFICATION: Different basis set in ORCA and otool_gcp:
ORCA: 86  gCP: 49 
If you are NOT using ECPs, check your basis set inputs!
NOTIFICATION: Different basis set in ORCA and otool_gcp:
ORCA: 86  gCP: 49 
If you are NOT using ECPs, check your basis set inputs!
NOTIFICATION: Different basis set in ORCA and otool_gcp:
ORCA: 86  gCP: 49 
If you are NOT using ECPs, check your basis set inputs!
NOTIFICATION: Different basis set in ORCA and otool_gcp:
ORCA: 86  gCP: 49 
If you are NOT using ECPs, check your basis set inputs!
    3       -56.561491   -5.645175    0.007294  0.004036
NOTIFICATION: Different basis set in ORCA and otool_gcp:
ORCA: 86  gCP: 49 
If you are NOT using ECPs, check your basis set inputs!
NOTIFICATION: Different basis set in ORCA and otool_gcp:
ORCA: 86  gCP: 49 
If you are NOT using ECPs, check your basis set inputs!
NOTIFICATION: Different basis set in ORCA and otool_gcp:
ORCA: 86  gCP: 49 
If you are NOT using ECPs, check your basis set inputs!
NOTIFICATION: Different basis set in ORCA and otool_gcp:
ORCA: 86  gCP: 49 
If you are NOT using ECPs, check your basis set inputs!
    4       -56.562403   -6.217291    0.004804  0.002104
NOTIFICATION: Different basis set in ORCA and otool_gcp:
ORCA: 86  gCP: 49 
If you are NOT using ECPs, check your basis set inputs!
NOTIFICATION: Different basis set in ORCA and otool_gcp:
ORCA: 86  gCP: 49 
If you are NOT using ECPs, check your basis set inputs!
NOTIFICATION: Different basis set in ORCA and otool_gcp:
ORCA: 86  gCP: 49 
If you are NOT using ECPs, check your basis set inputs!
NOTIFICATION: Different basis set in ORCA and otool_gcp:
ORCA: 86  gCP: 49 
If you are NOT using ECPs, check your basis set inputs!
NOTIFICATION: Different basis set in ORCA and otool_gcp:
ORCA: 86  gCP: 49 
If you are NOT using ECPs, check your basis set inputs!
NOTIFICATION: Different basis set in ORCA and otool_gcp:
ORCA: 86  gCP: 49 
If you are NOT using ECPs, check your basis set inputs!
    5       -56.562423   -6.230063    0.002843  0.001287
NOTIFICATION: Different basis set in ORCA and otool_gcp:
ORCA: 86  gCP: 49 
If you are NOT using ECPs, check your basis set inputs!
NOTIFICATION: Different basis set in ORCA and otool_gcp:
ORCA: 86  gCP: 49 
If you are NOT using ECPs, check your basis set inputs!
NOTIFICATION: Different basis set in ORCA and otool_gcp:
ORCA: 86  gCP: 49 
If you are NOT using ECPs, check your basis set inputs!
NOTIFICATION: Different basis set in ORCA and otool_gcp:
ORCA: 86  gCP: 49 
If you are NOT using ECPs, check your basis set inputs!
NOTIFICATION: Different basis set in ORCA and otool_gcp:
ORCA: 86  gCP: 49 
If you are NOT using ECPs, check your basis set inputs!
NOTIFICATION: Different basis set in ORCA and otool_gcp:
ORCA: 86  gCP: 49 
If you are NOT using ECPs, check your basis set inputs!
    6       -56.562432   -6.235722    0.001499  0.000724
NOTIFICATION: Different basis set in ORCA and otool_gcp:
ORCA: 86  gCP: 49 
If you are NOT using ECPs, check your basis set inputs!
NOTIFICATION: Different basis set in ORCA and otool_gcp:
ORCA: 86  gCP: 49 
If you are NOT using ECPs, check your basis set inputs!
NOTIFICATION: Different basis set in ORCA and otool_gcp:
ORCA: 86  gCP: 49 
If you are NOT using ECPs, check your basis set inputs!
NOTIFICATION: Different basis set in ORCA and otool_gcp:
ORCA: 86  gCP: 49 
If you are NOT using ECPs, check your basis set inputs!
NOTIFICATION: Different basis set in ORCA and otool_gcp:
ORCA: 86  gCP: 49 
If you are NOT using ECPs, check your basis set inputs!
NOTIFICATION: Different basis set in ORCA and otool_gcp:
ORCA: 86  gCP: 49 
If you are NOT using ECPs, check your basis set inputs!
    7       -56.562435   -6.237865    0.000886  0.000408
NOTIFICATION: Different basis set in ORCA and otool_gcp:
ORCA: 86  gCP: 49 
If you are NOT using ECPs, check your basis set inputs!
NOTIFICATION: Different basis set in ORCA and otool_gcp:
ORCA: 86  gCP: 49 
If you are NOT using ECPs, check your basis set inputs!
NOTIFICATION: Different basis set in ORCA and otool_gcp:
ORCA: 86  gCP: 49 
If you are NOT using ECPs, check your basis set inputs!
NOTIFICATION: Different basis set in ORCA and otool_gcp:
ORCA: 86  gCP: 49 
If you are NOT using ECPs, check your basis set inputs!
NOTIFICATION: Different basis set in ORCA and otool_gcp:
ORCA: 86  gCP: 49 
If you are NOT using ECPs, check your basis set inputs!
NOTIFICATION: Different basis set in ORCA and otool_gcp:
ORCA: 86  gCP: 49 
If you are NOT using ECPs, check your basis set inputs!
    8       -56.562437   -6.238802    0.000598  0.000247
NOTIFICATION: Different basis set in ORCA and otool_gcp:
ORCA: 86  gCP: 49 
If you are NOT using ECPs, check your basis set inputs!
NOTIFICATION: Different basis set in ORCA and otool_gcp:
ORCA: 86  gCP: 49 
If you are NOT using ECPs, check your basis set inputs!
NOTIFICATION: Different basis set in ORCA and otool_gcp:
ORCA: 86  gCP: 49 
If you are NOT using ECPs, check your basis set inputs!
NOTIFICATION: Different basis set in ORCA and otool_gcp:
ORCA: 86  gCP: 49 
If you are NOT using ECPs, check your basis set inputs!
NOTIFICATION: Different basis set in ORCA and otool_gcp:
ORCA: 86  gCP: 49 
If you are NOT using ECPs, check your basis set inputs!
NOTIFICATION: Different basis set in ORCA and otool_gcp:
ORCA: 86  gCP: 49 
If you are NOT using ECPs, check your basis set inputs!
    9       -56.562438   -6.239383    0.000385  0.000168

                      ***********************HURRAY********************
                      ***            THE IRC HAS CONVERGED          ***
                      *************************************************


---------------------------------------------------------------
                       IRC PATH SUMMARY              
---------------------------------------------------------------
All gradients are in Eh/Bohr.

Step        E(Eh)      dE(kcal/mol)  max(|G|)   RMS(G) 
   1       -56.562438   -6.239383    0.000385  0.000168
   2       -56.562437   -6.238802    0.000598  0.000247
   3       -56.562435   -6.237865    0.000886  0.000408
   4       -56.562432   -6.235722    0.001499  0.000724
   5       -56.562423   -6.230063    0.002843  0.001287
   6       -56.562403   -6.217291    0.004804  0.002104
   7       -56.561491   -5.645175    0.007294  0.004036
   8       -56.558931   -4.039136    0.016759  0.005990
   9       -56.556033   -2.220124    0.013566  0.007642
  10       -56.552741   -0.154675    0.005723  0.001945
  11       -56.552495    0.000000    0.000001  0.000000 <= TS
  12       -56.552741   -0.154675    0.005723  0.001945
  13       -56.556033   -2.220121    0.013566  0.007642
  14       -56.558931   -4.039132    0.016759  0.005990
  15       -56.561491   -5.645186    0.007288  0.004035
  16       -56.562403   -6.217450    0.004793  0.002096
  17       -56.562423   -6.230136    0.002833  0.001281
  18       -56.562432   -6.235740    0.001493  0.000721
  19       -56.562435   -6.237867    0.000883  0.000406
  20       -56.562437   -6.238801    0.000597  0.000246
  21       -56.562438   -6.239383    0.000383  0.000168

Timings for individual modules:

Sum of individual times         ...      412.253 sec (=   6.871 min)
GTO integral calculation        ...       54.460 sec (=   0.908 min)  13.2 %
SCF iterations                  ...      311.657 sec (=   5.194 min)  75.6 %
SCF Gradient evaluation         ...       38.176 sec (=   0.636 min)   9.3 %
Geometry relaxation             ...        0.077 sec (=   0.001 min)   0.0 %
Analytical frequency calculation...        7.883 sec (=   0.131 min)   1.9 %
                             ****ORCA TERMINATED NORMALLY****
TOTAL RUN TIME: 0 days 0 hours 7 minutes 15 seconds 29 msec
