
                                 *****************
                                 * O   R   C   A *
                                 *****************

           --- An Ab Initio, DFT and Semiempirical electronic structure package ---

                  #######################################################
                  #                        -***-                        #
                  #          Department of theory and spectroscopy      #
                  #               Directorship: Frank Neese             #
                  #        Max Planck Institute fuer Kohlenforschung    #
                  #                Kaiser Wilhelm Platz 1               #
                  #                 D-45470 Muelheim/Ruhr               #
                  #                      Germany                        #
                  #                                                     #
                  #                  All rights reserved                #
                  #                        -***-                        #
                  #######################################################


                         Program Version 4.2.1 -  RELEASE  -


 With contributions from (in alphabetic order):
   Daniel Aravena         : Magnetic Suceptibility
   Michael Atanasov       : Ab Initio Ligand Field Theory (pilot matlab implementation)
   Alexander A. Auer      : GIAO ZORA, VPT2
   Ute Becker             : Parallelization
   Giovanni Bistoni       : ED, misc. LED, open-shell LED, HFLD
   Martin Brehm           : Molecular dynamics
   Dmytro Bykov           : SCF Hessian
   Vijay G. Chilkuri      : MRCI spin determinant printing, contributions to CSF-ICE
   Dipayan Datta          : RHF DLPNO-CCSD density
   Achintya Kumar Dutta   : EOM-CC, STEOM-CC
   Dmitry Ganyushin       : Spin-Orbit,Spin-Spin,Magnetic field MRCI
   Miquel Garcia          : C-PCM Hessian, Gaussian charge scheme
   Yang Guo               : DLPNO-NEVPT2, CIM, IAO-localization
   Andreas Hansen         : Spin unrestricted coupled pair/coupled cluster methods
   Benjamin Helmich-Paris : CASSCF linear response (MC-RPA)
   Lee Huntington         : MR-EOM, pCC
   Robert Izsak           : Overlap fitted RIJCOSX, COSX-SCS-MP3, EOM
   Christian Kollmar      : KDIIS, OOCD, Brueckner-CCSD(T), CCSD density
   Simone Kossmann        : Meta GGA functionals, TD-DFT gradient, OOMP2, MP2 Hessian
   Martin Krupicka        : AUTO-CI
   Lucas Lang             : DCDCAS
   Dagmar Lenk            : GEPOL surface, SMD
   Dimitrios Liakos       : Extrapolation schemes; Compound Job, initial MDCI parallelization
   Dimitrios Manganas     : Further ROCIS development; embedding schemes
   Dimitrios Pantazis     : SARC Basis sets
   Taras Petrenko         : DFT Hessian,TD-DFT gradient, ASA, ECA, R-Raman, ABS, FL, XAS/XES, NRVS
   Peter Pinski           : DLPNO-MP2, DLPNO-MP2 Gradient
   Christoph Reimann      : Effective Core Potentials
   Marius Retegan         : Local ZFS, SOC
   Christoph Riplinger    : Optimizer, TS searches, QM/MM, DLPNO-CCSD(T), (RO)-DLPNO pert. Triples
   Tobias Risthaus        : Range-separated hybrids, TD-DFT gradient, RPA, STAB
   Michael Roemelt        : Original ROCIS implementation
   Masaaki Saitow         : Open-shell DLPNO-CCSD energy and density
   Barbara Sandhoefer     : DKH picture change effects
   Avijit Sen             : IP-ROCIS
   Kantharuban Sivalingam : CASSCF convergence, NEVPT2, FIC-MRCI
   Bernardo de Souza      : ESD, SOC TD-DFT
   Georgi Stoychev        : AutoAux, RI-MP2 NMR
   Willem Van den Heuvel  : Paramagnetic NMR
   Boris Wezisla          : Elementary symmetry handling
   Frank Wennmohs         : Technical directorship


 We gratefully acknowledge several colleagues who have allowed us to
 interface, adapt or use parts of their codes:
   Stefan Grimme, W. Hujo, H. Kruse,             : VdW corrections, initial TS optimization,
                  C. Bannwarth                     DFT functionals, gCP, sTDA/sTD-DF
   Ed Valeev, F. Pavosevic, A. Kumar             : LibInt (2-el integral package), F12 methods
   Garnet Chan, S. Sharma, J. Yang, R. Olivares  : DMRG
   Ulf Ekstrom                                   : XCFun DFT Library
   Mihaly Kallay                                 : mrcc  (arbitrary order and MRCC methods)
   Andreas Klamt, Michael Diedenhofen            : otool_cosmo (COSMO solvation model)
   Jiri Pittner, Ondrej Demel                    : Mk-CCSD
   Frank Weinhold                                : gennbo (NPA and NBO analysis)
   Christopher J. Cramer and Donald G. Truhlar   : smd solvation model
   Lars Goerigk                                  : TD-DFT with DH, B97 family of functionals
   V. Asgeirsson, H. Jonsson                     : NEB implementation
   FAccTs GmbH                                   : IRC, NEB, NEB-TS, Multilevel, MM, QM/MM, CI optimization
   S Lehtola, MJT Oliveira, MAL Marques          : LibXC Library


 Your calculation uses the libint2 library for the computation of 2-el integrals
 For citations please refer to: http://libint.valeyev.net

 Your ORCA version has been built with support for libXC version: 4.2.3
 For citations please refer to: https://tddft.org/programs/libxc/

 This ORCA versions uses:
   CBLAS   interface :  Fast vector & matrix operations
   LAPACKE interface :  Fast linear algebra routines
   SCALAPACK package :  Parallel linear algebra routines




***************************************
The coordinates will be read from file: init.xyz
***************************************


Your calculation utilizes the SMD solvation module
Please cite in your paper:
A.V. Marenich, C.J. Cramer, D.G. Truhlar J. Phys. Chem. B, 113, (2009), 6378 

Your calculation utilizes the semiempirical GFN2-xTB method
Please cite in your paper:
C. Bannwarth, Ehlert S., S. Grimme,  J. Chem. Theory Comput., 15, (2019), 1652.
   

----- Orbital basis set information -----
Your calculation utilizes the basis: def2-SVP
   F. Weigend and R. Ahlrichs, Phys. Chem. Chem. Phys. 7, 3297 (2005).

================================================================================
                                        WARNINGS
                       Please study these warnings very carefully!
================================================================================


WARNING: The environment variable RSH_COMMAND is not set!
  ===> : All Displacements for the Numerical Hessian calculation
         will be started on localhost

WARNING: Geometry Optimization
  ===> : Switching off AutoStart
         For restart on a previous wavefunction, please use MOREAD

WARNING: Found dipole moment calculation with XTB calculation
  ===> : Switching off dipole moment calculation


INFO   : the flag for use of LIBINT has been found!

================================================================================
                                       INPUT FILE
================================================================================
NAME = opt+numfreq.inp
|  1> ! xTB2 Opt NumFreq
|  2> 
|  3> *xyzfile 0 1 init.xyz
|  4> 
|  5> %cpcm
|  6>  smd true
|  7>  SMDsolvent "METHANOL"
|  8> end
|  9> 
| 10> %pal
| 11>  nprocs 2
| 12> end
| 13> 
| 14>                          ****END OF INPUT****
================================================================================

                       *****************************
                       * Geometry Optimization Run *
                       *****************************

Geometry optimization settings:
Update method            Update   .... BFGS
Choice of coordinates    CoordSys .... Z-matrix Internals
Initial Hessian          InHess   .... Almoef's Model

Convergence Tolerances:
Energy Change            TolE     ....  5.0000e-06 Eh
Max. Gradient            TolMAXG  ....  3.0000e-04 Eh/bohr
RMS Gradient             TolRMSG  ....  1.0000e-04 Eh/bohr
Max. Displacement        TolMAXD  ....  4.0000e-03 bohr
RMS Displacement         TolRMSD  ....  2.0000e-03 bohr
Strict Convergence                ....  False
------------------------------------------------------------------------------
                        ORCA OPTIMIZATION COORDINATE SETUP
------------------------------------------------------------------------------

The optimization will be done in new redundant internal coordinates
Making redundant internal coordinates   ...  (new redundants) done
Evaluating the initial hessian          ...  (Almloef) done
Evaluating the coordinates              ...  done
Calculating the B-matrix                .... done
Calculating the G-matrix                .... done
Diagonalizing the G-matrix              .... done
The first mode is                       ....   60
The number of degrees of freedom        ....   48

    -----------------------------------------------------------------
                    Redundant Internal Coordinates


    -----------------------------------------------------------------
         Definition                    Initial Value    Approx d2E/dq
    -----------------------------------------------------------------
      1. B(C   1,C   0)                  1.5262         0.378783   
      2. B(C   4,C   2)                  1.5262         0.378760   
      3. B(C   4,C   1)                  1.5262         0.378818   
      4. B(H   5,C   2)                  1.0940         0.354826   
      5. B(H   6,C   2)                  1.0927         0.356533   
      6. B(C   7,C   0)                  1.5262         0.378851   
      7. B(H   8,C   1)                  1.0916         0.358022   
      8. B(H   9,C   1)                  1.0930         0.356215   
      9. B(C  10,C   7)                  1.5196         0.388176   
     10. B(C  10,H   3)                  1.0928         0.356462   
     11. B(C  10,C   2)                  1.5195         0.388196   
     12. B(H  11,C   7)                  1.0927         0.356484   
     13. B(H  12,C   7)                  1.0940         0.354888   
     14. B(H  13,C   4)                  1.0917         0.357853   
     15. B(H  14,C   4)                  1.0929         0.356278   
     16. B(H  15,C   0)                  1.0917         0.357849   
     17. B(H  16,C   0)                  1.0929         0.356333   
     18. B(Br 17,C  10)                  1.9916         0.230345   
     19. A(H  15,C   0,H  16)          107.7091         0.290074   
     20. A(C   1,C   0,H  16)          109.4064         0.324496   
     21. A(C   1,C   0,C   7)          110.6217         0.365088   
     22. A(C   7,C   0,H  16)          109.4214         0.324506   
     23. A(C   7,C   0,H  15)          109.3954         0.324732   
     24. A(C   1,C   0,H  15)          110.2324         0.324723   
     25. A(C   0,C   1,H   8)          109.7731         0.324748   
     26. A(H   8,C   1,H   9)          107.9183         0.290081   
     27. A(C   4,C   1,H   9)          109.5570         0.324483   
     28. A(C   0,C   1,H   9)          109.5565         0.324479   
     29. A(C   4,C   1,H   8)          109.7746         0.324753   
     30. A(C   0,C   1,C   4)          110.2243         0.365082   
     31. A(C   4,C   2,H   5)          109.4878         0.324267   
     32. A(C   4,C   2,C  10)          111.7679         0.366611   
     33. A(H   6,C   2,C  10)          110.0823         0.325838   
     34. A(H   5,C   2,H   6)          107.8162         0.289714   
     35. A(C   4,C   2,H   6)          110.1723         0.324523   
     36. A(H   5,C   2,C  10)          107.3937         0.325581   
     37. A(H  13,C   4,H  14)          107.7124         0.290067   
     38. A(C   1,C   4,H  14)          109.4021         0.324493   
     39. A(C   2,C   4,H  13)          109.3888         0.324720   
     40. A(C   1,C   4,H  13)          110.2327         0.324728   
     41. A(C   2,C   4,H  14)          109.4241         0.324485   
     42. A(C   1,C   4,C   2)          110.6262         0.365078   
     43. A(H  11,C   7,H  12)          107.8140         0.289715   
     44. A(C  10,C   7,H  12)          107.3851         0.325588   
     45. A(C   0,C   7,H  12)          109.4936         0.324289   
     46. A(C  10,C   7,H  11)          110.0828         0.325828   
     47. A(C   0,C   7,H  11)          110.1770         0.324528   
     48. A(C   0,C   7,C  10)          111.7674         0.366622   
     49. A(C   2,C  10,H   3)          110.7315         0.325828   
     50. A(C   7,C  10,Br 17)          109.7797         0.358129   
     51. A(H   3,C  10,C   7)          110.7325         0.325825   
     52. A(H   3,C  10,Br 17)          103.2540         0.317319   
     53. A(C   2,C  10,Br 17)          109.8066         0.358132   
     54. A(C   2,C  10,C   7)          112.1715         0.368158   
     55. D(H   9,C   1,C   0,H  15)     58.5888         0.011439   
     56. D(H   8,C   1,C   0,H  15)    -59.7479         0.011439   
     57. D(H   8,C   1,C   0,C   7)    179.1309         0.011439   
     58. D(C   4,C   1,C   0,H  16)    -62.5188         0.011439   
     59. D(H   9,C   1,C   0,H  16)    176.8541         0.011439   
     60. D(C   4,C   1,C   0,C   7)     58.0947         0.011439   
     61. D(C   4,C   1,C   0,H  15)    179.2159         0.011439   
     62. D(H   9,C   1,C   0,C   7)    -62.5323         0.011439   
     63. D(H   8,C   1,C   0,H  16)     58.5174         0.011439   
     64. D(H  13,C   4,C   1,H   8)     59.7606         0.011441   
     65. D(C   1,C   4,C   2,C  10)     55.4052         0.011438   
     66. D(H  13,C   4,C   2,H   5)     58.1541         0.011438   
     67. D(H  13,C   4,C   2,C  10)    177.0199         0.011438   
     68. D(H  13,C   4,C   1,H   9)    -58.5774         0.011441   
     69. D(H  13,C   4,C   1,C   0)   -179.2041         0.011441   
     70. D(C   2,C   4,C   1,H   9)     62.5387         0.011441   
     71. D(C   2,C   4,C   1,C   0)    -58.0881         0.011441   
     72. D(C   1,C   4,C   2,H   6)    178.1296         0.011438   
     73. D(C   1,C   4,C   2,H   5)    -63.4606         0.011438   
     74. D(H  14,C   4,C   2,H   6)     57.5257         0.011438   
     75. D(H  14,C   4,C   2,H   5)    175.9355         0.011438   
     76. D(H  13,C   4,C   2,H   6)    -60.2557         0.011438   
     77. D(H  14,C   4,C   1,H   9)   -176.8443         0.011441   
     78. D(C   2,C   4,C   1,H   8)   -179.1234         0.011441   
     79. D(H  14,C   4,C   1,H   8)    -58.5064         0.011441   
     80. D(H  14,C   4,C   1,C   0)     62.5289         0.011441   
     81. D(H  14,C   4,C   2,C  10)    -65.1987         0.011438   
     82. D(H  11,C   7,C   0,C   1)   -178.1473         0.011443   
     83. D(C  10,C   7,C   0,H  16)     65.1853         0.011443   
     84. D(C  10,C   7,C   0,H  15)   -177.0351         0.011443   
     85. D(C  10,C   7,C   0,C   1)    -55.4193         0.011443   
     86. D(H  12,C   7,C   0,H  16)   -175.9561         0.011443   
     87. D(H  12,C   7,C   0,H  15)    -58.1765         0.011443   
     88. D(H  12,C   7,C   0,C   1)     63.4394         0.011443   
     89. D(H  11,C   7,C   0,H  16)    -57.5427         0.011443   
     90. D(H  11,C   7,C   0,H  15)     60.2369         0.011443   
     91. D(Br 17,C  10,C   7,H  12)    170.2695         0.011984   
     92. D(Br 17,C  10,C   7,H  11)     53.1533         0.011984   
     93. D(Br 17,C  10,C   7,C   0)    -69.6283         0.011984   
     94. D(H   3,C  10,C   7,H  12)     56.9015         0.011984   
     95. D(H   3,C  10,C   7,H  11)    -60.2147         0.011984   
     96. D(H   3,C  10,C   7,C   0)    177.0037         0.011984   
     97. D(C   2,C  10,C   7,H  12)    -67.3600         0.011984   
     98. D(C   2,C  10,C   7,H  11)    175.5238         0.011984   
     99. D(C   2,C  10,C   7,C   0)     52.7422         0.011984   
    100. D(Br 17,C  10,C   2,H   6)    -53.1538         0.011986   
    101. D(Br 17,C  10,C   2,H   5)   -170.2772         0.011986   
    102. D(Br 17,C  10,C   2,C   4)     69.6218         0.011986   
    103. D(C   7,C  10,C   2,H   6)   -175.5091         0.011986   
    104. D(C   7,C  10,C   2,H   5)     67.3676         0.011986   
    105. D(C   7,C  10,C   2,C   4)    -52.7334         0.011986   
    106. D(H   3,C  10,C   2,H   6)     60.2288         0.011986   
    107. D(H   3,C  10,C   2,H   5)    -56.8945         0.011986   
    108. D(H   3,C  10,C   2,C   4)   -176.9955         0.011986   
    -----------------------------------------------------------------

Number of atoms                         .... 18
Number of degrees of freedom            .... 108

         *************************************************************
         *                GEOMETRY OPTIMIZATION CYCLE   1            *
         *************************************************************
      -----------------------------------------------------------      
     |                   =====================                   |     
     |                           x T B                           |     
     |                   =====================                   |     
     |                         S. Grimme                         |     
     |          Mulliken Center for Theoretical Chemistry        |     
     |                    University of Bonn                     |     
      -----------------------------------------------------------      

   * xtb version 6.4.0 (d4b70c2) compiled by 'ehlert@majestix' on 2021-02-01

   xtb is free software: you can redistribute it and/or modify it under
   the terms of the GNU Lesser General Public License as published by
   the Free Software Foundation, either version 3 of the License, or
   (at your option) any later version.
   
   xtb is distributed in the hope that it will be useful,
   but WITHOUT ANY WARRANTY; without even the implied warranty of
   MERCHANTABILITY or FITNESS FOR A PARTICULAR PURPOSE.  See the
   GNU Lesser General Public License for more details.
   
   Cite this work as:
   * C. Bannwarth, E. Caldeweyher, S. Ehlert, A. Hansen, P. Pracht,
     J. Seibert, S. Spicher, S. Grimme, WIREs Comput. Mol. Sci., 2020,
     e01493. DOI: 10.1002/wcms.1493
   
   for GFN2-xTB:
   * C. Bannwarth, S. Ehlert and S. Grimme., J. Chem. Theory Comput., 2019,
     15, 1652-1671. DOI: 10.1021/acs.jctc.8b01176
   for GFN1-xTB:
   * S. Grimme, C. Bannwarth, P. Shushkov, J. Chem. Theory Comput., 2017,
     13, 1989-2009. DOI: 10.1021/acs.jctc.7b00118
   for GFN0-xTB:
   * P. Pracht, E. Caldeweyher, S. Ehlert, S. Grimme, ChemRxiv, 2019, preprint.
     DOI: 10.26434/chemrxiv.8326202.v1
   for GFN-FF:
   * S. Spicher and S. Grimme, Angew. Chem. Int. Ed., 2020, 59, 15665-15673.
     DOI: 10.1002/anie.202004239
   
   for DFT-D4:
   * E. Caldeweyher, C. Bannwarth and S. Grimme, J. Chem. Phys., 2017,
     147, 034112. DOI: 10.1063/1.4993215
   * E. Caldeweyher, S. Ehlert, A. Hansen, H. Neugebauer, S. Spicher,
     C. Bannwarth and S. Grimme, J. Chem. Phys., 2019, 150, 154122.
     DOI: 10.1063/1.5090222
   * E. Caldeweyher, J.-M. Mewes, S. Ehlert and S. Grimme, Phys. Chem. Chem. Phys.
     2020, 22, 8499-8512. DOI: 10.1039/D0CP00502A
   
   for sTDA-xTB:
   * S. Grimme and C. Bannwarth, J. Chem. Phys., 2016, 145, 054103.
     DOI: 10.1063/1.4959605
   
   in the mass-spec context:
   * V. Asgeirsson, C. Bauer and S. Grimme, Chem. Sci., 2017, 8, 4879.
     DOI: 10.1039/c7sc00601b
   * J. Koopman and S. Grimme, ACS Omega 2019, 4, 12, 15120-15133.
     DOI: 10.1021/acsomega.9b02011
   
   for metadynamics refer to:
   * S. Grimme, J. Chem. Theory Comput., 2019, 155, 2847-2862
     DOI: 10.1021/acs.jctc.9b00143
   
   with help from (in alphabetical order)
   P. Atkinson, C. Bannwarth, F. Bohle, G. Brandenburg, E. Caldeweyher
   M. Checinski, S. Dohm, S. Ehlert, S. Ehrlich, I. Gerasimov, J. Koopman
   C. Lavinge, S. Lehtola, F. März, M. Müller, F. Musil, H. Neugebauer
   J. Pisarek, P. Pracht, J. Seibert, P. Shushkov, S. Spicher, M. Stahn
   T. Strunk, J. Stückrath, T. Rose, and J. Unsleber
   
 * started run on 2021/11/09 at 16:33:29.529     

           -------------------------------------------------
          |                Calculation Setup                |
           -------------------------------------------------

          program call               : /opt/orca/otool_xtb opt+numfreq_XTB.xyz --grad -c 0 -u 0 -P 2 --namespace opt+numfreq --gbsa methanol
          calculation namespace      : opt+numfreq
          coordinate file            : opt+numfreq_XTB.xyz
          omp threads                :                     2
          number of atoms            :                    18
          number of electrons        :                    42
          charge                     :                     0
          spin                       :                   0.0
          first test random number   :      0.15027088195692

   ID    Z sym.   atoms
    1    6 C      1-3, 5, 8, 11
    2    1 H      4, 6, 7, 9, 10, 12-17
    3   35 Br     18
########################################################################
[WARNING] Please study the warnings concerning your input carefully
-1- prog_main_parseArguments: Process number higher than OMP_NUM_THREADS, I hope you know what you are doing.
########################################################################

           -------------------------------------------------
          |                 G F N 2 - x T B                 |
           -------------------------------------------------

        Reference                      10.1021/acs.jctc.8b01176
      * Hamiltonian:
        H0-scaling (s, p, d)           1.850000    2.230000    2.230000
        zeta-weighting                 0.500000
      * Dispersion:
        s8                             2.700000
        a1                             0.520000
        a2                             5.000000
        s9                             5.000000
      * Repulsion:
        kExp                           1.500000    1.000000
        rExp                           1.000000
      * Coulomb:
        alpha                          2.000000
        third order                    shell-resolved
        anisotropic                    true
        a3                             3.000000
        a5                             4.000000
        cn-shift                       1.200000
        cn-exp                         4.000000
        max-rad                        5.000000

      * Solvation model:               GBSA
        Solvent                        methanol
        Parameter file                 internal GFN2-xTB/GBSA
        Dielectric constant                3.2700E+01
        Reference state                gsolv [1 M gas/solution]
        Free energy shift                  3.3569E-03 Eh       2.1065E+00 kcal/mol
        Temperature                        2.9815E+02 K
        Density                            7.9200E-01 kg/L
        Solvent mass                       3.2040E+01 g/mol
        Interaction kernel             Still
        Born radius scaling (c1)           1.6087E+00
        Born radii integrator          GBOBC
        Born offset                        5.6550E-04 a0       1.0686E-03 AA
        H-bond correction              true
        Ion screening                  false
        Surface tension                    1.0000E-05 Eh       1.5569E+01 dyn/cm
        Grid points                               230 per atom

          ...................................................
          :                      SETUP                      :
          :.................................................:
          :  # basis functions                  45          :
          :  # atomic orbitals                  44          :
          :  # shells                           26          :
          :  # electrons                        42          :
          :  max. iterations                   250          :
          :  Hamiltonian                  GFN2-xTB          :
          :  restarted?                      false          :
          :  GBSA solvation                   true          :
          :  PC potential                    false          :
          :  electronic temp.          300.0000000     K    :
          :  accuracy                    1.0000000          :
          :  -> integral cutoff          0.2500000E+02      :
          :  -> integral neglect         0.1000000E-07      :
          :  -> SCF convergence          0.1000000E-05 Eh   :
          :  -> wf. convergence          0.1000000E-03 e    :
          :  Broyden damping             0.4000000          :
          ...................................................

 iter      E             dE          RMSdq      gap      omega  full diag
   1    -22.7933973 -0.227934E+02  0.332E+00    5.74       0.0  T
   2    -22.8384591 -0.450618E-01  0.234E+00    5.08       1.0  T
   3    -22.8414842 -0.302510E-02  0.949E-01    5.22       1.0  T
   4    -22.8430736 -0.158938E-02  0.458E-01    5.03       1.0  T
   5    -22.8433889 -0.315299E-03  0.304E-01    5.06       1.0  T
   6    -22.8436094 -0.220534E-03  0.177E-01    5.01       1.0  T
   7    -22.8437073 -0.978615E-04  0.723E-02    5.00       1.0  T
   8    -22.8437233 -0.160753E-04  0.168E-02    4.99       1.4  T
   9    -22.8437236 -0.230866E-06  0.282E-03    4.99       8.3  T
  10    -22.8437236 -0.229969E-07  0.145E-03    4.99      16.3  T
  11    -22.8437236 -0.343030E-08  0.932E-04    4.99      25.3  T
  12    -22.8437236 -0.163702E-08  0.498E-04    4.99      47.3  T

   *** convergence criteria satisfied after 12 iterations ***

         #    Occupation            Energy/Eh            Energy/eV
      -------------------------------------------------------------
         1        2.0000           -0.8308128             -22.6076
       ...           ...                  ...                  ...
        15        2.0000           -0.4532072             -12.3324
        16        2.0000           -0.4470362             -12.1645
        17        2.0000           -0.4299408             -11.6993
        18        2.0000           -0.4266894             -11.6108
        19        2.0000           -0.4264857             -11.6053
        20        2.0000           -0.4014298             -10.9235
        21        2.0000           -0.3989012             -10.8547 (HOMO)
        22                         -0.2155351              -5.8650 (LUMO)
        23                          0.0318590               0.8669
        24                          0.0383007               1.0422
        25                          0.0456796               1.2430
        26                          0.0515043               1.4015
       ...                                ...                  ...
        44                          0.3676304              10.0037
      -------------------------------------------------------------
                  HL-Gap            0.1833661 Eh            4.9896 eV
             Fermi-level           -0.3072181 Eh           -8.3598 eV

 SCC (total)                   0 d,  0 h,  0 min,  0.026 sec
 SCC setup                      ...        0 min,  0.003 sec (  9.588%)
 Dispersion                     ...        0 min,  0.000 sec (  0.502%)
 classical contributions        ...        0 min,  0.000 sec (  0.361%)
 integral evaluation            ...        0 min,  0.002 sec (  8.682%)
 iterations                     ...        0 min,  0.012 sec ( 45.959%)
 molecular gradient             ...        0 min,  0.007 sec ( 25.670%)
 printout                       ...        0 min,  0.002 sec (  9.052%)

         :::::::::::::::::::::::::::::::::::::::::::::::::::::
         ::                     SUMMARY                     ::
         :::::::::::::::::::::::::::::::::::::::::::::::::::::
         :: total energy             -22.575213717748 Eh    ::
         :: total w/o Gsasa/hb       -22.568036027951 Eh    ::
         :: gradient norm              0.001535455571 Eh/a0 ::
         :: HOMO-LUMO gap              4.989645791554 eV    ::
         ::.................................................::
         :: SCC energy               -22.843723598844 Eh    ::
         :: -> isotropic ES            0.010644823950 Eh    ::
         :: -> anisotropic ES          0.002808549307 Eh    ::
         :: -> anisotropic XC          0.008182761702 Eh    ::
         :: -> dispersion             -0.014051760879 Eh    ::
         :: -> Gsolv                  -0.009132307452 Eh    ::
         ::    -> Gborn               -0.001954617654 Eh    ::
         ::    -> Gsasa               -0.009866491874 Eh    ::
         ::    -> Ghb                 -0.000668127446 Eh    ::
         ::    -> Gshift               0.003356929523 Eh    ::
         :: repulsion energy           0.268463249784 Eh    ::
         :: add. restraining           0.000000000000 Eh    ::
         :: total charge              -0.000000000000 e     ::
         :::::::::::::::::::::::::::::::::::::::::::::::::::::

           -------------------------------------------------
          |                Property Printout                |
           -------------------------------------------------

    * Orbital Energies and Occupations

         #    Occupation            Energy/Eh            Energy/eV
      -------------------------------------------------------------
         1        2.0000           -0.8308128             -22.6076
       ...           ...                  ...                  ...
         9        2.0000           -0.5116455             -13.9226
        10        2.0000           -0.5113543             -13.9147
        11        2.0000           -0.5039837             -13.7141
        12        2.0000           -0.4887837             -13.3005
        13        2.0000           -0.4823697             -13.1259
        14        2.0000           -0.4763879             -12.9632
        15        2.0000           -0.4532072             -12.3324
        16        2.0000           -0.4470362             -12.1645
        17        2.0000           -0.4299408             -11.6993
        18        2.0000           -0.4266894             -11.6108
        19        2.0000           -0.4264857             -11.6053
        20        2.0000           -0.4014298             -10.9235
        21        2.0000           -0.3989012             -10.8547 (HOMO)
        22                         -0.2155351              -5.8650 (LUMO)
        23                          0.0318590               0.8669
        24                          0.0383007               1.0422
        25                          0.0456796               1.2430
        26                          0.0515043               1.4015
        27                          0.0746877               2.0324
        28                          0.0890428               2.4230
        29                          0.0962868               2.6201
        30                          0.1041707               2.8346
        31                          0.1053382               2.8664
        32                          0.1140200               3.1026
       ...                                ...                  ...
        44                          0.3676304              10.0037
      -------------------------------------------------------------
                  HL-Gap            0.1833661 Eh            4.9896 eV
             Fermi-level           -0.3072181 Eh           -8.3598 eV

     #   Z          covCN         q      C6AA      α(0)
     1   6 C        3.805    -0.057    21.586     6.614
     2   6 C        3.805    -0.060    21.643     6.623
     3   6 C        3.862    -0.056    21.533     6.599
     4   1 H        0.926     0.048     2.345     2.395
     5   6 C        3.805    -0.057    21.586     6.614
     6   1 H        0.924     0.050     2.324     2.384
     7   1 H        0.924     0.044     2.399     2.422
     8   6 C        3.862    -0.056    21.532     6.599
     9   1 H        0.924     0.036     2.503     2.474
    10   1 H        0.924     0.036     2.500     2.473
    11   6 C        3.791     0.069    19.430     6.278
    12   1 H        0.924     0.044     2.399     2.422
    13   1 H        0.924     0.050     2.324     2.384
    14   1 H        0.924     0.036     2.501     2.473
    15   1 H        0.924     0.044     2.394     2.420
    16   1 H        0.924     0.036     2.501     2.473
    17   1 H        0.924     0.044     2.394     2.420
    18  35 Br       1.026    -0.253   192.121    22.349

 Mol. C6AA /au·bohr⁶  :       3421.109093
 Mol. C8AA /au·bohr⁸  :     100934.479281
 Mol. α(0) /au        :         88.414426


Wiberg/Mayer (AO) data.
largest (>0.10) Wiberg bond orders for each atom

 ---------------------------------------------------------------------------
     #   Z sym  total        # sym  WBO       # sym  WBO       # sym  WBO
 ---------------------------------------------------------------------------
     1   6 C    3.997 --     2 C    1.009     8 C    1.009    16 H    0.976
                            17 H    0.974
     2   6 C    3.998 --     5 C    1.009     1 C    1.009    10 H    0.977
                             9 H    0.977
     3   6 C    3.995 --    11 C    1.010     5 C    1.009     7 H    0.975
                             6 H    0.964
     4   1 H    0.998 --    11 C    0.970
     5   6 C    3.997 --     2 C    1.009     3 C    1.009    14 H    0.976
                            15 H    0.974
     6   1 H    0.998 --     3 C    0.964
     7   1 H    0.998 --     3 C    0.975
     8   6 C    3.995 --    11 C    1.010     1 C    1.009    12 H    0.975
                            13 H    0.964
     9   1 H    0.999 --     2 C    0.977
    10   1 H    0.999 --     2 C    0.977
    11   6 C    3.938 --     3 C    1.010     8 C    1.010     4 H    0.970
                            18 Br   0.912
    12   1 H    0.998 --     8 C    0.975
    13   1 H    0.998 --     8 C    0.964
    14   1 H    0.999 --     5 C    0.976
    15   1 H    0.998 --     5 C    0.974
    16   1 H    0.999 --     1 C    0.976
    17   1 H    0.998 --     1 C    0.974
    18  35 Br   0.995 --    11 C    0.912
 ---------------------------------------------------------------------------

Topologies differ in total number of bonds
Writing topology from bond orders to xtbtopo.mol

molecular dipole:
                 x           y           z       tot (Debye)
 q only:        0.967       0.000      -0.706
   full:        1.236       0.000      -1.223       4.418
molecular quadrupole (traceless):
                xx          xy          yy          xz          yz          zz
 q only:       -1.672       0.000       0.815       0.887      -0.001       0.857
  q+dip:       -3.538       0.000       1.867       2.966      -0.001       1.672
   full:       -3.330       0.000       1.574       2.483      -0.001       1.757


           -------------------------------------------------
          | TOTAL ENERGY              -22.575213717748 Eh   |
          | GRADIENT NORM               0.001535455571 Eh/α |
          | HOMO-LUMO GAP               4.989645791554 eV   |
           -------------------------------------------------

------------------------------------------------------------------------
 * finished run on 2021/11/09 at 16:33:29.586     
------------------------------------------------------------------------
 total:
 * wall-time:     0 d,  0 h,  0 min,  0.056 sec
 *  cpu-time:     0 d,  0 h,  0 min,  0.085 sec
 * ratio c/w:     1.511 speedup
 SCF:
 * wall-time:     0 d,  0 h,  0 min,  0.026 sec
 *  cpu-time:     0 d,  0 h,  0 min,  0.043 sec
 * ratio c/w:     1.627 speedup


-------------------------   --------------------
FINAL SINGLE POINT ENERGY       -22.575213717750
-------------------------   --------------------

------------------------------------------------------------------------------
                         ORCA GEOMETRY RELAXATION STEP
------------------------------------------------------------------------------

Reading the OPT-File                    .... done
Getting information on internals        .... done
Copying old internal coords+grads       .... done
Making the new internal coordinates     .... (new redundants).... done
Validating the new internal coordinates .... (new redundants).... done
Calculating the B-matrix                .... done
Calculating the G,G- and P matrices     .... done
Transforming gradient to internals      .... done
Projecting the internal gradient        .... done
Number of atoms                         ....  18
Number of internal coordinates          .... 108
Current Energy                          ....   -22.575213718 Eh
Current gradient norm                   ....     0.001535456 Eh/bohr
Maximum allowed component of the step   ....  0.300
Current trust radius                    ....  0.300
Evaluating the initial hessian          ....  (Almloef) done
Projecting the Hessian                  .... done
Forming the augmented Hessian           .... done
Diagonalizing the augmented Hessian     .... done
Last element of RFO vector              ....  0.999985390
Lowest eigenvalues of augmented Hessian:
 -0.000004543  0.014383396  0.014582862  0.016248726  0.041411765
Length of the computed step             ....  0.005405537
The final length of the internal step   ....  0.005405537
Converting the step to cartesian space:
 Initial RMS(Int)=    0.0005201481
Transforming coordinates:
 Iter   0:  RMS(Cart)=    0.0008356166 RMS(Int)=    0.0005201817
 Iter   1:  RMS(Cart)=    0.0000004894 RMS(Int)=    0.0000003096
 Iter   2:  RMS(Cart)=    0.0000000004 RMS(Int)=    0.0000000003
done
Storing new coordinates                 .... done

                                .--------------------.
          ----------------------|Geometry convergence|-------------------------
          Item                value                   Tolerance       Converged
          ---------------------------------------------------------------------
          RMS gradient        0.0000999412            0.0001000000      YES
          MAX gradient        0.0008809123            0.0003000000      NO
          RMS step            0.0005201481            0.0020000000      YES
          MAX step            0.0038242430            0.0040000000      YES
          ........................................................
          Max(Bonds)      0.0020      Max(Angles)    0.03
          Max(Dihed)        0.06      Max(Improp)    0.00
          ---------------------------------------------------------------------

The optimization has not yet converged - more geometry cycles are needed


    ---------------------------------------------------------------------------
                         Redundant Internal Coordinates
                            (Angstroem and degrees)

        Definition                    Value    dE/dq     Step     New-Value
    ----------------------------------------------------------------------------
     1. B(C   1,C   0)                1.5262  0.000026 -0.0001    1.5262   
     2. B(C   4,C   2)                1.5262  0.000028 -0.0000    1.5262   
     3. B(C   4,C   1)                1.5262  0.000009 -0.0000    1.5262   
     4. B(H   5,C   2)                1.0940  0.000225 -0.0003    1.0937   
     5. B(H   6,C   2)                1.0927  0.000141 -0.0002    1.0925   
     6. B(C   7,C   0)                1.5262  0.000003 -0.0000    1.5262   
     7. B(H   8,C   1)                1.0916  0.000159 -0.0002    1.0913   
     8. B(H   9,C   1)                1.0930  0.000128 -0.0002    1.0928   
     9. B(C  10,C   7)                1.5196  0.000023 -0.0000    1.5196   
    10. B(C  10,H   3)                1.0928  0.000130 -0.0002    1.0926   
    11. B(C  10,C   2)                1.5195  0.000037 -0.0000    1.5195   
    12. B(H  11,C   7)                1.0927  0.000163 -0.0002    1.0925   
    13. B(H  12,C   7)                1.0940  0.000190 -0.0003    1.0937   
    14. B(H  13,C   4)                1.0917  0.000159 -0.0002    1.0915   
    15. B(H  14,C   4)                1.0929  0.000074 -0.0001    1.0928   
    16. B(H  15,C   0)                1.0917  0.000160 -0.0002    1.0915   
    17. B(H  16,C   0)                1.0929  0.000049 -0.0001    1.0928   
    18. B(Br 17,C  10)                1.9916 -0.000881  0.0020    1.9936   
    19. A(H  15,C   0,H  16)          107.71 -0.000004    0.01    107.71   
    20. A(C   1,C   0,H  16)          109.41 -0.000019    0.00    109.41   
    21. A(C   1,C   0,C   7)          110.62  0.000025   -0.01    110.62   
    22. A(C   7,C   0,H  16)          109.42 -0.000000    0.00    109.42   
    23. A(C   7,C   0,H  15)          109.40  0.000004   -0.00    109.39   
    24. A(C   1,C   0,H  15)          110.23 -0.000005    0.00    110.23   
    25. A(C   0,C   1,H   8)          109.77 -0.000001    0.00    109.78   
    26. A(H   8,C   1,H   9)          107.92 -0.000009    0.01    107.92   
    27. A(C   4,C   1,H   9)          109.56  0.000013   -0.00    109.56   
    28. A(C   0,C   1,H   9)          109.56  0.000015   -0.00    109.55   
    29. A(C   4,C   1,H   8)          109.77  0.000001    0.00    109.78   
    30. A(C   0,C   1,C   4)          110.22 -0.000018   -0.01    110.22   
    31. A(C   4,C   2,H   5)          109.49  0.000005   -0.00    109.48   
    32. A(C   4,C   2,C  10)          111.77 -0.000054    0.01    111.78   
    33. A(H   6,C   2,C  10)          110.08  0.000011    0.00    110.09   
    34. A(H   5,C   2,H   6)          107.82 -0.000037    0.01    107.83   
    35. A(C   4,C   2,H   6)          110.17  0.000018   -0.00    110.17   
    36. A(H   5,C   2,C  10)          107.39  0.000059   -0.02    107.37   
    37. A(H  13,C   4,H  14)          107.71 -0.000000    0.00    107.72   
    38. A(C   1,C   4,H  14)          109.40 -0.000033    0.01    109.41   
    39. A(C   2,C   4,H  13)          109.39 -0.000005   -0.00    109.39   
    40. A(C   1,C   4,H  13)          110.23 -0.000001    0.00    110.23   
    41. A(C   2,C   4,H  14)          109.42  0.000006   -0.00    109.42   
    42. A(C   1,C   4,C   2)          110.63  0.000033   -0.01    110.62   
    43. A(H  11,C   7,H  12)          107.81 -0.000036    0.01    107.83   
    44. A(C  10,C   7,H  12)          107.39  0.000043   -0.02    107.37   
    45. A(C   0,C   7,H  12)          109.49  0.000009   -0.01    109.49   
    46. A(C  10,C   7,H  11)          110.08  0.000006    0.00    110.09   
    47. A(C   0,C   7,H  11)          110.18  0.000017   -0.00    110.18   
    48. A(C   0,C   7,C  10)          111.77 -0.000039    0.01    111.78   
    49. A(C   2,C  10,H   3)          110.73 -0.000028   -0.00    110.73   
    50. A(C   7,C  10,Br 17)          109.78 -0.000061    0.02    109.80   
    51. A(H   3,C  10,C   7)          110.73 -0.000019   -0.00    110.73   
    52. A(H   3,C  10,Br 17)          103.25  0.000062   -0.03    103.23   
    53. A(C   2,C  10,Br 17)          109.81  0.000002    0.00    109.81   
    54. A(C   2,C  10,C   7)          112.17  0.000044    0.00    112.17   
    55. D(H   9,C   1,C   0,H  15)     58.59  0.000005    0.02     58.61   
    56. D(H   8,C   1,C   0,H  15)    -59.75  0.000008    0.02    -59.73   
    57. D(H   8,C   1,C   0,C   7)    179.13 -0.000009    0.02    179.16   
    58. D(C   4,C   1,C   0,H  16)    -62.52 -0.000001    0.03    -62.49   
    59. D(H   9,C   1,C   0,H  16)    176.85 -0.000015    0.03    176.89   
    60. D(C   4,C   1,C   0,C   7)     58.09  0.000001    0.02     58.12   
    61. D(C   4,C   1,C   0,H  15)    179.22  0.000019    0.02    179.23   
    62. D(H   9,C   1,C   0,C   7)    -62.53 -0.000013    0.03    -62.50   
    63. D(H   8,C   1,C   0,H  16)     58.52 -0.000012    0.03     58.54   
    64. D(H  13,C   4,C   1,H   8)     59.76 -0.000006   -0.02     59.74   
    65. D(C   1,C   4,C   2,C  10)     55.41 -0.000005    0.00     55.41   
    66. D(H  13,C   4,C   2,H   5)     58.15 -0.000031    0.03     58.18   
    67. D(H  13,C   4,C   2,C  10)    177.02  0.000011   -0.00    177.02   
    68. D(H  13,C   4,C   1,H   9)    -58.58 -0.000003   -0.03    -58.60   
    69. D(H  13,C   4,C   1,C   0)   -179.20 -0.000018   -0.02   -179.22   
    70. D(C   2,C   4,C   1,H   9)     62.54  0.000011   -0.03     62.50   
    71. D(C   2,C   4,C   1,C   0)    -58.09 -0.000004   -0.03    -58.11   
    72. D(C   1,C   4,C   2,H   6)    178.13 -0.000016    0.01    178.14   
    73. D(C   1,C   4,C   2,H   5)    -63.46 -0.000048    0.03    -63.43   
    74. D(H  14,C   4,C   2,H   6)     57.53  0.000001    0.01     57.54   
    75. D(H  14,C   4,C   2,H   5)    175.94 -0.000031    0.03    175.96   
    76. D(H  13,C   4,C   2,H   6)    -60.26  0.000001    0.01    -60.25   
    77. D(H  14,C   4,C   1,H   9)   -176.84  0.000018   -0.04   -176.88   
    78. D(C   2,C   4,C   1,H   8)   -179.12  0.000008   -0.03   -179.15   
    79. D(H  14,C   4,C   1,H   8)    -58.51  0.000015   -0.03    -58.54   
    80. D(H  14,C   4,C   1,C   0)     62.53  0.000003   -0.03     62.50   
    81. D(H  14,C   4,C   2,C  10)    -65.20  0.000011    0.00    -65.20   
    82. D(H  11,C   7,C   0,C   1)   -178.15  0.000008   -0.01   -178.15   
    83. D(C  10,C   7,C   0,H  16)     65.19 -0.000007    0.00     65.19   
    84. D(C  10,C   7,C   0,H  15)   -177.04 -0.000011    0.01   -177.03   
    85. D(C  10,C   7,C   0,C   1)    -55.42  0.000001    0.00    -55.42   
    86. D(H  12,C   7,C   0,H  16)   -175.96  0.000028   -0.02   -175.98   
    87. D(H  12,C   7,C   0,H  15)    -58.18  0.000024   -0.02    -58.19   
    88. D(H  12,C   7,C   0,C   1)     63.44  0.000036   -0.02     63.42   
    89. D(H  11,C   7,C   0,H  16)    -57.54 -0.000000   -0.01    -57.55   
    90. D(H  11,C   7,C   0,H  15)     60.24 -0.000004   -0.00     60.23   
    91. D(Br 17,C  10,C   7,H  12)    170.27  0.000014   -0.04    170.23   
    92. D(Br 17,C  10,C   7,H  11)     53.15  0.000028   -0.05     53.11   
    93. D(Br 17,C  10,C   7,C   0)    -69.63  0.000029   -0.05    -69.68   
    94. D(H   3,C  10,C   7,H  12)     56.90 -0.000015   -0.02     56.88   
    95. D(H   3,C  10,C   7,H  11)    -60.21 -0.000000   -0.02    -60.24   
    96. D(H   3,C  10,C   7,C   0)    177.00  0.000000   -0.03    176.97   
    97. D(C   2,C  10,C   7,H  12)    -67.36  0.000003   -0.02    -67.38   
    98. D(C   2,C  10,C   7,H  11)    175.52  0.000018   -0.03    175.50   
    99. D(C   2,C  10,C   7,C   0)     52.74  0.000018   -0.03     52.71   
   100. D(Br 17,C  10,C   2,H   6)    -53.15 -0.000048    0.05    -53.10   
   101. D(Br 17,C  10,C   2,H   5)   -170.28 -0.000043    0.05   -170.23   
   102. D(Br 17,C  10,C   2,C   4)     69.62 -0.000055    0.06     69.68   
   103. D(C   7,C  10,C   2,H   6)   -175.51 -0.000002    0.02   -175.49   
   104. D(C   7,C  10,C   2,H   5)     67.37  0.000004    0.01     67.38   
   105. D(C   7,C  10,C   2,C   4)    -52.73 -0.000008    0.03    -52.71   
   106. D(H   3,C  10,C   2,H   6)     60.23  0.000011    0.02     60.25   
   107. D(H   3,C  10,C   2,H   5)    -56.89  0.000017    0.01    -56.88   
   108. D(H   3,C  10,C   2,C   4)   -177.00  0.000005    0.03   -176.97   
    ----------------------------------------------------------------------------

         *************************************************************
         *                GEOMETRY OPTIMIZATION CYCLE   2            *
         *************************************************************
      -----------------------------------------------------------      
     |                   =====================                   |     
     |                           x T B                           |     
     |                   =====================                   |     
     |                         S. Grimme                         |     
     |          Mulliken Center for Theoretical Chemistry        |     
     |                    University of Bonn                     |     
      -----------------------------------------------------------      

   * xtb version 6.4.0 (d4b70c2) compiled by 'ehlert@majestix' on 2021-02-01

   xtb is free software: you can redistribute it and/or modify it under
   the terms of the GNU Lesser General Public License as published by
   the Free Software Foundation, either version 3 of the License, or
   (at your option) any later version.
   
   xtb is distributed in the hope that it will be useful,
   but WITHOUT ANY WARRANTY; without even the implied warranty of
   MERCHANTABILITY or FITNESS FOR A PARTICULAR PURPOSE.  See the
   GNU Lesser General Public License for more details.
   
   Cite this work as:
   * C. Bannwarth, E. Caldeweyher, S. Ehlert, A. Hansen, P. Pracht,
     J. Seibert, S. Spicher, S. Grimme, WIREs Comput. Mol. Sci., 2020,
     e01493. DOI: 10.1002/wcms.1493
   
   for GFN2-xTB:
   * C. Bannwarth, S. Ehlert and S. Grimme., J. Chem. Theory Comput., 2019,
     15, 1652-1671. DOI: 10.1021/acs.jctc.8b01176
   for GFN1-xTB:
   * S. Grimme, C. Bannwarth, P. Shushkov, J. Chem. Theory Comput., 2017,
     13, 1989-2009. DOI: 10.1021/acs.jctc.7b00118
   for GFN0-xTB:
   * P. Pracht, E. Caldeweyher, S. Ehlert, S. Grimme, ChemRxiv, 2019, preprint.
     DOI: 10.26434/chemrxiv.8326202.v1
   for GFN-FF:
   * S. Spicher and S. Grimme, Angew. Chem. Int. Ed., 2020, 59, 15665-15673.
     DOI: 10.1002/anie.202004239
   
   for DFT-D4:
   * E. Caldeweyher, C. Bannwarth and S. Grimme, J. Chem. Phys., 2017,
     147, 034112. DOI: 10.1063/1.4993215
   * E. Caldeweyher, S. Ehlert, A. Hansen, H. Neugebauer, S. Spicher,
     C. Bannwarth and S. Grimme, J. Chem. Phys., 2019, 150, 154122.
     DOI: 10.1063/1.5090222
   * E. Caldeweyher, J.-M. Mewes, S. Ehlert and S. Grimme, Phys. Chem. Chem. Phys.
     2020, 22, 8499-8512. DOI: 10.1039/D0CP00502A
   
   for sTDA-xTB:
   * S. Grimme and C. Bannwarth, J. Chem. Phys., 2016, 145, 054103.
     DOI: 10.1063/1.4959605
   
   in the mass-spec context:
   * V. Asgeirsson, C. Bauer and S. Grimme, Chem. Sci., 2017, 8, 4879.
     DOI: 10.1039/c7sc00601b
   * J. Koopman and S. Grimme, ACS Omega 2019, 4, 12, 15120-15133.
     DOI: 10.1021/acsomega.9b02011
   
   for metadynamics refer to:
   * S. Grimme, J. Chem. Theory Comput., 2019, 155, 2847-2862
     DOI: 10.1021/acs.jctc.9b00143
   
   with help from (in alphabetical order)
   P. Atkinson, C. Bannwarth, F. Bohle, G. Brandenburg, E. Caldeweyher
   M. Checinski, S. Dohm, S. Ehlert, S. Ehrlich, I. Gerasimov, J. Koopman
   C. Lavinge, S. Lehtola, F. März, M. Müller, F. Musil, H. Neugebauer
   J. Pisarek, P. Pracht, J. Seibert, P. Shushkov, S. Spicher, M. Stahn
   T. Strunk, J. Stückrath, T. Rose, and J. Unsleber
   
 * started run on 2021/11/09 at 16:33:29.802     

           -------------------------------------------------
          |                Calculation Setup                |
           -------------------------------------------------

          program call               : /opt/orca/otool_xtb opt+numfreq_XTB.xyz --grad -c 0 -u 0 -P 2 --namespace opt+numfreq --gbsa methanol
          calculation namespace      : opt+numfreq
          coordinate file            : opt+numfreq_XTB.xyz
          omp threads                :                     2
          number of atoms            :                    18
          number of electrons        :                    42
          charge                     :                     0
          spin                       :                   0.0
          first test random number   :      0.96876819121898

   ID    Z sym.   atoms
    1    6 C      1-3, 5, 8, 11
    2    1 H      4, 6, 7, 9, 10, 12-17
    3   35 Br     18
########################################################################
[WARNING] Please study the warnings concerning your input carefully
-1- prog_main_parseArguments: Process number higher than OMP_NUM_THREADS, I hope you know what you are doing.
########################################################################

           -------------------------------------------------
          |                 G F N 2 - x T B                 |
           -------------------------------------------------

        Reference                      10.1021/acs.jctc.8b01176
      * Hamiltonian:
        H0-scaling (s, p, d)           1.850000    2.230000    2.230000
        zeta-weighting                 0.500000
      * Dispersion:
        s8                             2.700000
        a1                             0.520000
        a2                             5.000000
        s9                             5.000000
      * Repulsion:
        kExp                           1.500000    1.000000
        rExp                           1.000000
      * Coulomb:
        alpha                          2.000000
        third order                    shell-resolved
        anisotropic                    true
        a3                             3.000000
        a5                             4.000000
        cn-shift                       1.200000
        cn-exp                         4.000000
        max-rad                        5.000000

      * Solvation model:               GBSA
        Solvent                        methanol
        Parameter file                 internal GFN2-xTB/GBSA
        Dielectric constant                3.2700E+01
        Reference state                gsolv [1 M gas/solution]
        Free energy shift                  3.3569E-03 Eh       2.1065E+00 kcal/mol
        Temperature                        2.9815E+02 K
        Density                            7.9200E-01 kg/L
        Solvent mass                       3.2040E+01 g/mol
        Interaction kernel             Still
        Born radius scaling (c1)           1.6087E+00
        Born radii integrator          GBOBC
        Born offset                        5.6550E-04 a0       1.0686E-03 AA
        H-bond correction              true
        Ion screening                  false
        Surface tension                    1.0000E-05 Eh       1.5569E+01 dyn/cm
        Grid points                               230 per atom

          ...................................................
          :                      SETUP                      :
          :.................................................:
          :  # basis functions                  45          :
          :  # atomic orbitals                  44          :
          :  # shells                           26          :
          :  # electrons                        42          :
          :  max. iterations                   250          :
          :  Hamiltonian                  GFN2-xTB          :
          :  restarted?                      false          :
          :  GBSA solvation                   true          :
          :  PC potential                    false          :
          :  electronic temp.          300.0000000     K    :
          :  accuracy                    1.0000000          :
          :  -> integral cutoff          0.2500000E+02      :
          :  -> integral neglect         0.1000000E-07      :
          :  -> SCF convergence          0.1000000E-05 Eh   :
          :  -> wf. convergence          0.1000000E-03 e    :
          :  Broyden damping             0.4000000          :
          ...................................................

 iter      E             dE          RMSdq      gap      omega  full diag
   1    -22.7936719 -0.227937E+02  0.332E+00    5.73       0.0  T
   2    -22.8387201 -0.450482E-01  0.234E+00    5.07       1.0  T
   3    -22.8417621 -0.304198E-02  0.949E-01    5.21       1.0  T
   4    -22.8433465 -0.158446E-02  0.455E-01    5.02       1.0  T
   5    -22.8436579 -0.311421E-03  0.302E-01    5.04       1.0  T
   6    -22.8438749 -0.216980E-03  0.175E-01    5.00       1.0  T
   7    -22.8439714 -0.964745E-04  0.725E-02    4.99       1.0  T
   8    -22.8439876 -0.162076E-04  0.168E-02    4.98       1.4  T
   9    -22.8439878 -0.231504E-06  0.282E-03    4.98       8.4  T
  10    -22.8439879 -0.230298E-07  0.143E-03    4.98      16.5  T
  11    -22.8439879 -0.333577E-08  0.919E-04    4.98      25.6  T
  12    -22.8439879 -0.158053E-08  0.494E-04    4.98      47.7  T

   *** convergence criteria satisfied after 12 iterations ***

         #    Occupation            Energy/Eh            Energy/eV
      -------------------------------------------------------------
         1        2.0000           -0.8307058             -22.6047
       ...           ...                  ...                  ...
        15        2.0000           -0.4531021             -12.3295
        16        2.0000           -0.4469948             -12.1633
        17        2.0000           -0.4298901             -11.6979
        18        2.0000           -0.4266510             -11.6098
        19        2.0000           -0.4264305             -11.6038
        20        2.0000           -0.4013682             -10.9218
        21        2.0000           -0.3988471             -10.8532 (HOMO)
        22                         -0.2159263              -5.8757 (LUMO)
        23                          0.0320009               0.8708
        24                          0.0384337               1.0458
        25                          0.0458179               1.2468
        26                          0.0515782               1.4035
       ...                                ...                  ...
        44                          0.3659830               9.9589
      -------------------------------------------------------------
                  HL-Gap            0.1829208 Eh            4.9775 eV
             Fermi-level           -0.3073867 Eh           -8.3644 eV

 SCC (total)                   0 d,  0 h,  0 min,  0.019 sec
 SCC setup                      ...        0 min,  0.001 sec (  3.868%)
 Dispersion                     ...        0 min,  0.000 sec (  0.708%)
 classical contributions        ...        0 min,  0.000 sec (  0.155%)
 integral evaluation            ...        0 min,  0.003 sec ( 17.340%)
 iterations                     ...        0 min,  0.007 sec ( 37.762%)
 molecular gradient             ...        0 min,  0.008 sec ( 39.190%)
 printout                       ...        0 min,  0.000 sec (  0.740%)

         :::::::::::::::::::::::::::::::::::::::::::::::::::::
         ::                     SUMMARY                     ::
         :::::::::::::::::::::::::::::::::::::::::::::::::::::
         :: total energy             -22.575217039620 Eh    ::
         :: total w/o Gsasa/hb       -22.568033546730 Eh    ::
         :: gradient norm              0.000938441490 Eh/a0 ::
         :: HOMO-LUMO gap              4.977527923950 eV    ::
         ::.................................................::
         :: SCC energy               -22.843987860393 Eh    ::
         :: -> isotropic ES            0.010701116620 Eh    ::
         :: -> anisotropic ES          0.002800905639 Eh    ::
         :: -> anisotropic XC          0.008264704115 Eh    ::
         :: -> dispersion             -0.014047624918 Eh    ::
         :: -> Gsolv                  -0.009156239016 Eh    ::
         ::    -> Gborn               -0.001972746126 Eh    ::
         ::    -> Gsasa               -0.009868355521 Eh    ::
         ::    -> Ghb                 -0.000672066892 Eh    ::
         ::    -> Gshift               0.003356929523 Eh    ::
         :: repulsion energy           0.268724165787 Eh    ::
         :: add. restraining           0.000000000000 Eh    ::
         :: total charge              -0.000000000000 e     ::
         :::::::::::::::::::::::::::::::::::::::::::::::::::::

           -------------------------------------------------
          |                Property Printout                |
           -------------------------------------------------

    * Orbital Energies and Occupations

         #    Occupation            Energy/Eh            Energy/eV
      -------------------------------------------------------------
         1        2.0000           -0.8307058             -22.6047
       ...           ...                  ...                  ...
         9        2.0000           -0.5115924             -13.9211
        10        2.0000           -0.5112976             -13.9131
        11        2.0000           -0.5039180             -13.7123
        12        2.0000           -0.4887486             -13.2995
        13        2.0000           -0.4823272             -13.1248
        14        2.0000           -0.4763435             -12.9620
        15        2.0000           -0.4531021             -12.3295
        16        2.0000           -0.4469948             -12.1633
        17        2.0000           -0.4298901             -11.6979
        18        2.0000           -0.4266510             -11.6098
        19        2.0000           -0.4264305             -11.6038
        20        2.0000           -0.4013682             -10.9218
        21        2.0000           -0.3988471             -10.8532 (HOMO)
        22                         -0.2159263              -5.8757 (LUMO)
        23                          0.0320009               0.8708
        24                          0.0384337               1.0458
        25                          0.0458179               1.2468
        26                          0.0515782               1.4035
        27                          0.0749136               2.0385
        28                          0.0891820               2.4268
        29                          0.0964421               2.6243
        30                          0.1042010               2.8355
        31                          0.1054622               2.8698
        32                          0.1143055               3.1104
       ...                                ...                  ...
        44                          0.3659830               9.9589
      -------------------------------------------------------------
                  HL-Gap            0.1829208 Eh            4.9775 eV
             Fermi-level           -0.3073867 Eh           -8.3644 eV

     #   Z          covCN         q      C6AA      α(0)
     1   6 C        3.805    -0.057    21.587     6.614
     2   6 C        3.805    -0.060    21.644     6.623
     3   6 C        3.861    -0.056    21.535     6.599
     4   1 H        0.926     0.048     2.342     2.393
     5   6 C        3.805    -0.057    21.587     6.614
     6   1 H        0.924     0.050     2.320     2.382
     7   1 H        0.924     0.044     2.397     2.421
     8   6 C        3.861    -0.056    21.535     6.599
     9   1 H        0.924     0.036     2.502     2.474
    10   1 H        0.924     0.036     2.499     2.472
    11   6 C        3.790     0.069    19.432     6.278
    12   1 H        0.924     0.044     2.398     2.421
    13   1 H        0.924     0.050     2.321     2.382
    14   1 H        0.924     0.036     2.500     2.472
    15   1 H        0.924     0.044     2.395     2.420
    16   1 H        0.924     0.036     2.500     2.472
    17   1 H        0.924     0.044     2.395     2.420
    18  35 Br       1.024    -0.254   192.141    22.350

 Mol. C6AA /au·bohr⁶  :       3420.720493
 Mol. C8AA /au·bohr⁸  :     100930.500391
 Mol. α(0) /au        :         88.409252


Wiberg/Mayer (AO) data.
largest (>0.10) Wiberg bond orders for each atom

 ---------------------------------------------------------------------------
     #   Z sym  total        # sym  WBO       # sym  WBO       # sym  WBO
 ---------------------------------------------------------------------------
     1   6 C    3.997 --     2 C    1.009     8 C    1.009    16 H    0.976
                            17 H    0.974
     2   6 C    3.998 --     5 C    1.009     1 C    1.009     9 H    0.977
                            10 H    0.977
     3   6 C    3.995 --    11 C    1.010     5 C    1.009     7 H    0.975
                             6 H    0.963
     4   1 H    0.998 --    11 C    0.970
     5   6 C    3.997 --     2 C    1.009     3 C    1.009    14 H    0.976
                            15 H    0.974
     6   1 H    0.998 --     3 C    0.963
     7   1 H    0.998 --     3 C    0.975
     8   6 C    3.995 --    11 C    1.010     1 C    1.009    12 H    0.975
                            13 H    0.963
     9   1 H    0.999 --     2 C    0.977
    10   1 H    0.999 --     2 C    0.977
    11   6 C    3.938 --     3 C    1.010     8 C    1.010     4 H    0.970
                            18 Br   0.911
    12   1 H    0.998 --     8 C    0.975
    13   1 H    0.998 --     8 C    0.963
    14   1 H    0.999 --     5 C    0.976
    15   1 H    0.998 --     5 C    0.974
    16   1 H    0.999 --     1 C    0.976
    17   1 H    0.998 --     1 C    0.974
    18  35 Br   0.995 --    11 C    0.911
 ---------------------------------------------------------------------------

Topologies differ in total number of bonds
Writing topology from bond orders to xtbtopo.mol

molecular dipole:
                 x           y           z       tot (Debye)
 q only:        0.972       0.000      -0.710
   full:        1.236       0.000      -1.221       4.417
molecular quadrupole (traceless):
                xx          xy          yy          xz          yz          zz
 q only:       -1.684       0.000       0.820       0.885      -0.001       0.864
  q+dip:       -3.540       0.001       1.857       2.943      -0.001       1.683
   full:       -3.332       0.001       1.565       2.461      -0.001       1.766


           -------------------------------------------------
          | TOTAL ENERGY              -22.575217039620 Eh   |
          | GRADIENT NORM               0.000938441490 Eh/α |
          | HOMO-LUMO GAP               4.977527923950 eV   |
           -------------------------------------------------

------------------------------------------------------------------------
 * finished run on 2021/11/09 at 16:33:29.852     
------------------------------------------------------------------------
 total:
 * wall-time:     0 d,  0 h,  0 min,  0.050 sec
 *  cpu-time:     0 d,  0 h,  0 min,  0.068 sec
 * ratio c/w:     1.357 speedup
 SCF:
 * wall-time:     0 d,  0 h,  0 min,  0.020 sec
 *  cpu-time:     0 d,  0 h,  0 min,  0.034 sec
 * ratio c/w:     1.722 speedup


-------------------------   --------------------
FINAL SINGLE POINT ENERGY       -22.575217039620
-------------------------   --------------------

------------------------------------------------------------------------------
                         ORCA GEOMETRY RELAXATION STEP
------------------------------------------------------------------------------

Reading the OPT-File                    .... done
Getting information on internals        .... done
Copying old internal coords+grads       .... done
Making the new internal coordinates     .... (new redundants).... done
Validating the new internal coordinates .... (new redundants).... done
Calculating the B-matrix                .... done
Calculating the G,G- and P matrices     .... done
Transforming gradient to internals      .... done
Projecting the internal gradient        .... done
Number of atoms                         ....  18
Number of internal coordinates          .... 108
Current Energy                          ....   -22.575217040 Eh
Current gradient norm                   ....     0.000938441 Eh/bohr
Maximum allowed component of the step   ....  0.300
Current trust radius                    ....  0.300
Updating the Hessian (BFGS)             .... done
Forming the augmented Hessian           .... done
Diagonalizing the augmented Hessian     .... done
Last element of RFO vector              ....  0.999976990
Lowest eigenvalues of augmented Hessian:
 -0.000002708  0.013947305  0.014385999  0.016184676  0.041410523
Length of the computed step             ....  0.006783866
The final length of the internal step   ....  0.006783866
Converting the step to cartesian space:
 Initial RMS(Int)=    0.0006527778
Transforming coordinates:
 Iter   0:  RMS(Cart)=    0.0008287598 RMS(Int)=    0.0006528086
 Iter   1:  RMS(Cart)=    0.0000004880 RMS(Int)=    0.0000003189
 Iter   2:  RMS(Cart)=    0.0000000005 RMS(Int)=    0.0000000004
done
Storing new coordinates                 .... done

                                .--------------------.
          ----------------------|Geometry convergence|-------------------------
          Item                value                   Tolerance       Converged
          ---------------------------------------------------------------------
          Energy change      -0.0000033219            0.0000050000      YES
          RMS gradient        0.0000481701            0.0001000000      YES
          MAX gradient        0.0004507105            0.0003000000      NO
          RMS step            0.0006527778            0.0020000000      YES
          MAX step            0.0043956304            0.0040000000      NO
          ........................................................
          Max(Bonds)      0.0023      Max(Angles)    0.06
          Max(Dihed)        0.07      Max(Improp)    0.00
          ---------------------------------------------------------------------

The optimization has not yet converged - more geometry cycles are needed


    ---------------------------------------------------------------------------
                         Redundant Internal Coordinates
                            (Angstroem and degrees)

        Definition                    Value    dE/dq     Step     New-Value
    ----------------------------------------------------------------------------
     1. B(C   1,C   0)                1.5262 -0.000014  0.0000    1.5262   
     2. B(C   4,C   2)                1.5262 -0.000016  0.0000    1.5262   
     3. B(C   4,C   1)                1.5262 -0.000018  0.0000    1.5262   
     4. B(H   5,C   2)                1.0937  0.000028 -0.0001    1.0935   
     5. B(H   6,C   2)                1.0925  0.000024 -0.0001    1.0924   
     6. B(C   7,C   0)                1.5262 -0.000023  0.0001    1.5262   
     7. B(H   8,C   1)                1.0913  0.000016 -0.0001    1.0913   
     8. B(H   9,C   1)                1.0928  0.000015 -0.0001    1.0927   
     9. B(C  10,C   7)                1.5196  0.000074 -0.0002    1.5194   
    10. B(C  10,H   3)                1.0926  0.000048 -0.0002    1.0924   
    11. B(C  10,C   2)                1.5195  0.000062 -0.0001    1.5194   
    12. B(H  11,C   7)                1.0925  0.000027 -0.0001    1.0924   
    13. B(H  12,C   7)                1.0937  0.000028 -0.0001    1.0936   
    14. B(H  13,C   4)                1.0915  0.000016 -0.0001    1.0914   
    15. B(H  14,C   4)                1.0928  0.000008 -0.0000    1.0927   
    16. B(H  15,C   0)                1.0915  0.000017 -0.0001    1.0914   
    17. B(H  16,C   0)                1.0928  0.000005 -0.0000    1.0928   
    18. B(Br 17,C  10)                1.9936 -0.000451  0.0023    1.9960   
    19. A(H  15,C   0,H  16)          107.71 -0.000007    0.01    107.73   
    20. A(C   1,C   0,H  16)          109.41 -0.000006    0.00    109.41   
    21. A(C   1,C   0,C   7)          110.62  0.000009   -0.01    110.61   
    22. A(C   7,C   0,H  16)          109.42  0.000005   -0.01    109.42   
    23. A(C   7,C   0,H  15)          109.39  0.000006   -0.01    109.38   
    24. A(C   1,C   0,H  15)          110.23 -0.000008    0.01    110.24   
    25. A(C   0,C   1,H   8)          109.78 -0.000007    0.01    109.78   
    26. A(H   8,C   1,H   9)          107.92 -0.000004    0.01    107.93   
    27. A(C   4,C   1,H   9)          109.56  0.000002   -0.00    109.55   
    28. A(C   0,C   1,H   9)          109.55  0.000001   -0.00    109.55   
    29. A(C   4,C   1,H   8)          109.78 -0.000005    0.00    109.78   
    30. A(C   0,C   1,C   4)          110.22  0.000013   -0.02    110.20   
    31. A(C   4,C   2,H   5)          109.48 -0.000012    0.00    109.48   
    32. A(C   4,C   2,C  10)          111.78 -0.000026    0.01    111.79   
    33. A(H   6,C   2,C  10)          110.09 -0.000002    0.01    110.09   
    34. A(H   5,C   2,H   6)          107.83 -0.000026    0.02    107.85   
    35. A(C   4,C   2,H   6)          110.17  0.000016   -0.00    110.17   
    36. A(H   5,C   2,C  10)          107.37  0.000050   -0.04    107.33   
    37. A(H  13,C   4,H  14)          107.72 -0.000004    0.01    107.73   
    38. A(C   1,C   4,H  14)          109.41 -0.000012    0.00    109.41   
    39. A(C   2,C   4,H  13)          109.39 -0.000000   -0.00    109.38   
    40. A(C   1,C   4,H  13)          110.23 -0.000007    0.01    110.24   
    41. A(C   2,C   4,H  14)          109.42  0.000006   -0.01    109.42   
    42. A(C   1,C   4,C   2)          110.62  0.000016   -0.01    110.61   
    43. A(H  11,C   7,H  12)          107.83 -0.000026    0.02    107.85   
    44. A(C  10,C   7,H  12)          107.37  0.000044   -0.03    107.33   
    45. A(C   0,C   7,H  12)          109.49 -0.000009   -0.00    109.48   
    46. A(C  10,C   7,H  11)          110.09 -0.000003    0.00    110.09   
    47. A(C   0,C   7,H  11)          110.18  0.000016   -0.00    110.17   
    48. A(C   0,C   7,C  10)          111.78 -0.000022    0.01    111.79   
    49. A(C   2,C  10,H   3)          110.73 -0.000024    0.02    110.76   
    50. A(C   7,C  10,Br 17)          109.80 -0.000002   -0.00    109.80   
    51. A(H   3,C  10,C   7)          110.73 -0.000018    0.02    110.75   
    52. A(H   3,C  10,Br 17)          103.23  0.000046   -0.06    103.17   
    53. A(C   2,C  10,Br 17)          109.81  0.000021   -0.02    109.79   
    54. A(C   2,C  10,C   7)          112.17 -0.000016    0.03    112.20   
    55. D(H   9,C   1,C   0,H  15)     58.61 -0.000001    0.04     58.66   
    56. D(H   8,C   1,C   0,H  15)    -59.73  0.000007    0.03    -59.70   
    57. D(H   8,C   1,C   0,C   7)    179.16 -0.000001    0.04    179.19   
    58. D(C   4,C   1,C   0,H  16)    -62.49 -0.000007    0.05    -62.45   
    59. D(H   9,C   1,C   0,H  16)    176.89 -0.000018    0.06    176.95   
    60. D(C   4,C   1,C   0,C   7)     58.12  0.000002    0.04     58.16   
    61. D(C   4,C   1,C   0,H  15)    179.23  0.000010    0.03    179.26   
    62. D(H   9,C   1,C   0,C   7)    -62.50 -0.000009    0.05    -62.45   
    63. D(H   8,C   1,C   0,H  16)     58.54 -0.000010    0.05     58.59   
    64. D(H  13,C   4,C   1,H   8)     59.74 -0.000005   -0.04     59.71   
    65. D(C   1,C   4,C   2,C  10)     55.41  0.000011   -0.01     55.40   
    66. D(H  13,C   4,C   2,H   5)     58.18 -0.000025    0.03     58.21   
    67. D(H  13,C   4,C   2,C  10)    177.02  0.000013   -0.01    177.01   
    68. D(H  13,C   4,C   1,H   9)    -58.60  0.000002   -0.05    -58.65   
    69. D(H  13,C   4,C   1,C   0)   -179.22 -0.000009   -0.04   -179.26   
    70. D(C   2,C   4,C   1,H   9)     62.50  0.000008   -0.05     62.45   
    71. D(C   2,C   4,C   1,C   0)    -58.11 -0.000003   -0.04    -58.15   
    72. D(C   1,C   4,C   2,H   6)    178.14  0.000002    0.00    178.15   
    73. D(C   1,C   4,C   2,H   5)    -63.43 -0.000027    0.03    -63.40   
    74. D(H  14,C   4,C   2,H   6)     57.54  0.000002    0.01     57.55   
    75. D(H  14,C   4,C   2,H   5)    175.96 -0.000027    0.04    176.00   
    76. D(H  13,C   4,C   2,H   6)    -60.25  0.000004    0.01    -60.24   
    77. D(H  14,C   4,C   1,H   9)   -176.88  0.000018   -0.07   -176.95   
    78. D(C   2,C   4,C   1,H   8)   -179.15  0.000001   -0.04   -179.19   
    79. D(H  14,C   4,C   1,H   8)    -58.54  0.000011   -0.05    -58.59   
    80. D(H  14,C   4,C   1,C   0)     62.50  0.000008   -0.05     62.45   
    81. D(H  14,C   4,C   2,C  10)    -65.20  0.000011   -0.00    -65.20   
    82. D(H  11,C   7,C   0,C   1)   -178.15 -0.000005    0.00   -178.15   
    83. D(C  10,C   7,C   0,H  16)     65.19 -0.000010    0.01     65.20   
    84. D(C  10,C   7,C   0,H  15)   -177.03 -0.000012    0.01   -177.01   
    85. D(C  10,C   7,C   0,C   1)    -55.42 -0.000013    0.01    -55.40   
    86. D(H  12,C   7,C   0,H  16)   -175.98  0.000025   -0.03   -176.01   
    87. D(H  12,C   7,C   0,H  15)    -58.19  0.000023   -0.02    -58.22   
    88. D(H  12,C   7,C   0,C   1)     63.42  0.000023   -0.02     63.40   
    89. D(H  11,C   7,C   0,H  16)    -57.55 -0.000002   -0.00    -57.55   
    90. D(H  11,C   7,C   0,H  15)     60.23 -0.000004    0.00     60.24   
    91. D(Br 17,C  10,C   7,H  12)    170.23  0.000010   -0.03    170.20   
    92. D(Br 17,C  10,C   7,H  11)     53.11  0.000019   -0.05     53.06   
    93. D(Br 17,C  10,C   7,C   0)    -69.68  0.000015   -0.05    -69.74   
    94. D(H   3,C  10,C   7,H  12)     56.88 -0.000034    0.03     56.91   
    95. D(H   3,C  10,C   7,H  11)    -60.24 -0.000026    0.01    -60.23   
    96. D(H   3,C  10,C   7,C   0)    176.97 -0.000029    0.01    176.98   
    97. D(C   2,C  10,C   7,H  12)    -67.38  0.000024   -0.04    -67.42   
    98. D(C   2,C  10,C   7,H  11)    175.50  0.000032   -0.05    175.44   
    99. D(C   2,C  10,C   7,C   0)     52.71  0.000029   -0.06     52.65   
   100. D(Br 17,C  10,C   2,H   6)    -53.10 -0.000024    0.05    -53.05   
   101. D(Br 17,C  10,C   2,H   5)   -170.23 -0.000021    0.04   -170.19   
   102. D(Br 17,C  10,C   2,C   4)     69.68 -0.000023    0.06     69.74   
   103. D(C   7,C  10,C   2,H   6)   -175.49 -0.000025    0.05   -175.44   
   104. D(C   7,C  10,C   2,H   5)     67.38 -0.000021    0.04     67.42   
   105. D(C   7,C  10,C   2,C   4)    -52.71 -0.000024    0.06    -52.65   
   106. D(H   3,C  10,C   2,H   6)     60.25  0.000030   -0.02     60.23   
   107. D(H   3,C  10,C   2,H   5)    -56.88  0.000033   -0.03    -56.91   
   108. D(H   3,C  10,C   2,C   4)   -176.97  0.000031   -0.01   -176.98   
    ----------------------------------------------------------------------------

         *************************************************************
         *                GEOMETRY OPTIMIZATION CYCLE   3            *
         *************************************************************
      -----------------------------------------------------------      
     |                   =====================                   |     
     |                           x T B                           |     
     |                   =====================                   |     
     |                         S. Grimme                         |     
     |          Mulliken Center for Theoretical Chemistry        |     
     |                    University of Bonn                     |     
      -----------------------------------------------------------      

   * xtb version 6.4.0 (d4b70c2) compiled by 'ehlert@majestix' on 2021-02-01

   xtb is free software: you can redistribute it and/or modify it under
   the terms of the GNU Lesser General Public License as published by
   the Free Software Foundation, either version 3 of the License, or
   (at your option) any later version.
   
   xtb is distributed in the hope that it will be useful,
   but WITHOUT ANY WARRANTY; without even the implied warranty of
   MERCHANTABILITY or FITNESS FOR A PARTICULAR PURPOSE.  See the
   GNU Lesser General Public License for more details.
   
   Cite this work as:
   * C. Bannwarth, E. Caldeweyher, S. Ehlert, A. Hansen, P. Pracht,
     J. Seibert, S. Spicher, S. Grimme, WIREs Comput. Mol. Sci., 2020,
     e01493. DOI: 10.1002/wcms.1493
   
   for GFN2-xTB:
   * C. Bannwarth, S. Ehlert and S. Grimme., J. Chem. Theory Comput., 2019,
     15, 1652-1671. DOI: 10.1021/acs.jctc.8b01176
   for GFN1-xTB:
   * S. Grimme, C. Bannwarth, P. Shushkov, J. Chem. Theory Comput., 2017,
     13, 1989-2009. DOI: 10.1021/acs.jctc.7b00118
   for GFN0-xTB:
   * P. Pracht, E. Caldeweyher, S. Ehlert, S. Grimme, ChemRxiv, 2019, preprint.
     DOI: 10.26434/chemrxiv.8326202.v1
   for GFN-FF:
[...]
                 42         43         44         45         46         47    
      0       0.003369   0.000381  -0.009506   0.012477  -0.016482   0.039207
      1      -0.041080   0.000345   0.005674  -0.007222   0.008572  -0.022823
      2       0.033991   0.000429   0.010202  -0.013790   0.017358  -0.040005
      3       0.046545   0.000474   0.000008  -0.002212   0.017560   0.000052
      4       0.000000  -0.000000   0.000073  -0.000000  -0.000002  -0.001259
      5       0.002090  -0.000788  -0.000022   0.005980  -0.070297  -0.000175
      6      -0.003756  -0.003919  -0.035213  -0.033370  -0.010580  -0.013986
      7       0.011316  -0.003683   0.012818   0.012509   0.005263   0.009872
      8      -0.010758   0.006764   0.043530   0.041782   0.011534   0.010773
      9       0.003367   0.605230   0.000888  -0.087772  -0.023643   0.000183
     10      -0.000002   0.000012  -0.000761  -0.000005   0.000001  -0.001069
     11      -0.004447   0.765071   0.001134  -0.112722  -0.028913   0.000231
     12       0.003367   0.000375   0.009366   0.012562  -0.016402  -0.039117
     13       0.041068  -0.000349   0.005597   0.007280  -0.008542  -0.022820
     14       0.033976   0.000436  -0.010045  -0.013878   0.017251   0.039840
     15       0.065299   0.068347   0.319935   0.308264   0.077119   0.062807
     16      -0.104038   0.002483   0.028315   0.028935   0.007591   0.008923
     17       0.031363  -0.114225  -0.553522  -0.533221  -0.129778  -0.110265
     18      -0.036894  -0.035170   0.120758   0.118139   0.050924   0.100572
     19      -0.029688   0.043383  -0.182982  -0.179623  -0.074641  -0.140208
     20       0.116204   0.008811   0.005040   0.004009  -0.001867  -0.008547
     21      -0.003757  -0.003958   0.035567  -0.032923  -0.010579   0.013996
     22      -0.011317   0.003669   0.012907  -0.012287  -0.005239   0.009793
     23      -0.010756   0.006811  -0.044019   0.041289   0.011558  -0.010875
     24      -0.250912   0.000482   0.000046  -0.011765   0.199085   0.000449
     25       0.000007  -0.000000   0.000548   0.000005   0.000001   0.001210
     26       0.225098  -0.000085   0.000034  -0.008803   0.197479   0.000439
     27      -0.293608  -0.005357  -0.000219   0.053202  -0.434426  -0.001065
     28      -0.000005   0.000001  -0.002170  -0.000015   0.000027   0.001640
     29      -0.189418   0.009114   0.000327  -0.080937   0.688284   0.001700
     30      -0.000374  -0.049674  -0.000058   0.004459   0.001118  -0.000013
     31       0.000001  -0.000001   0.000167   0.000004   0.000001   0.000923
     32      -0.000056  -0.059776  -0.000103   0.011245   0.002978  -0.000021
     33      -0.036888  -0.035026  -0.121651   0.116092   0.050717  -0.099869
     34       0.029690  -0.043163  -0.184397   0.176615   0.074359  -0.139269
     35       0.116197   0.008817  -0.005142   0.004032  -0.001833   0.008415
     36       0.065308   0.068693  -0.323583   0.304722   0.077308  -0.063632
     37       0.104033  -0.002525   0.028677  -0.028630  -0.007603   0.008958
     38       0.031362  -0.114824   0.559792  -0.527046  -0.130078   0.111634
     39       0.150571  -0.001245  -0.044401  -0.057671   0.074163   0.203963
     40      -0.113170  -0.000374  -0.068191  -0.089336   0.111942   0.302911
     41      -0.360766  -0.001261  -0.000784  -0.000964   0.001375  -0.003214
     42      -0.186624  -0.001682  -0.078884  -0.108861   0.136867   0.275730
     43      -0.370226   0.000262   0.004313   0.006176  -0.009768  -0.015595
     44      -0.091976   0.004768   0.142793   0.193532  -0.238370  -0.488853
     45       0.150623  -0.001274   0.045004  -0.057216   0.074388  -0.203907
     46       0.113175   0.000418  -0.069141   0.088652  -0.112311   0.302924
     47      -0.360908  -0.001262   0.000801  -0.000967   0.001409   0.003118
     48      -0.186682  -0.001741   0.080116  -0.108161   0.137648  -0.276891
     49       0.370370  -0.000265   0.004366  -0.006116   0.009770  -0.015561
     50      -0.092039   0.004876  -0.144982   0.192256  -0.239733   0.490852
     51       0.000196   0.000124   0.000000  -0.000053   0.000016   0.000000
     52      -0.000000  -0.000000  -0.000029  -0.000000   0.000000  -0.000017
     53       0.000020  -0.000255  -0.000001   0.000068  -0.000042  -0.000000
                 48         49         50         51         52         53    
      0       0.029718   0.000759  -0.015834  -0.001524   0.013158  -0.012398
      1      -0.022666   0.007401   0.003655   0.020453  -0.036778   0.029611
      2      -0.025027  -0.012318   0.025128  -0.016922   0.019243  -0.013850
      3       0.000920  -0.000009  -0.005040   0.045984   0.000044  -0.037292
      4       0.000049   0.001122  -0.000010   0.000000  -0.001851  -0.000001
      5      -0.040638   0.001769   0.022422   0.016687  -0.000007  -0.023789
      6       0.019987   0.017663   0.011138   0.006007   0.006175   0.003925
      7      -0.025296  -0.037421  -0.031417  -0.010797  -0.012943  -0.007893
      8      -0.003416   0.013664   0.016332  -0.000005   0.002113   0.001143
      9      -0.027144   0.000634  -0.076560  -0.018693   0.000055  -0.012545
     10      -0.000034  -0.000825  -0.000002   0.000002  -0.001834  -0.000000
     11      -0.036448   0.000885  -0.097319  -0.024515   0.000069  -0.016499
     12       0.029648  -0.003388  -0.016023  -0.001446  -0.013082  -0.012378
     13       0.023289   0.005390  -0.003911  -0.020392  -0.036752  -0.029625
     14      -0.023970   0.014542   0.025125  -0.016990  -0.019343  -0.013901
     15       0.005765   0.141515   0.152836   0.016314   0.032846   0.016990
     16      -0.013383  -0.008706  -0.004468  -0.003882  -0.003294  -0.002659
     17       0.005217  -0.219601  -0.242592  -0.023178  -0.051674  -0.026405
     18      -0.246864  -0.355912  -0.292187  -0.095767  -0.116202  -0.071148
     19       0.337699   0.478200   0.393137   0.130726   0.155084   0.094508
     20       0.030750   0.052210   0.045366   0.013138   0.015657   0.008577
     21       0.018411  -0.019177   0.011412   0.006058  -0.006204   0.003935
     22       0.022023  -0.039050   0.031830   0.010903  -0.013004   0.007909
     23      -0.004564  -0.013099   0.016365   0.000028  -0.002135   0.001147
     24       0.190417  -0.008506  -0.070270  -0.408330  -0.000280   0.373647
     25      -0.000049  -0.001195   0.000006  -0.000005  -0.002027   0.000005
     26       0.216814  -0.009736  -0.074797  -0.527813  -0.000375   0.474107
     27      -0.182115   0.007733   0.118454  -0.164267  -0.000240   0.089566
     28       0.000037   0.000633  -0.000010   0.000011  -0.001548  -0.000009
     29       0.277437  -0.011739  -0.188520   0.316116   0.000429  -0.185185
     30       0.003424  -0.000102   0.006478   0.001918  -0.000005   0.001408
     31      -0.000118  -0.002744   0.000016   0.000003  -0.000271   0.000001
     32       0.002472  -0.000049   0.008253   0.001593  -0.000006   0.000894
     33      -0.215715   0.372036  -0.296180  -0.096764   0.116780  -0.071303
     34      -0.295797   0.500332  -0.398509  -0.132052   0.155850  -0.094709
     35       0.026214  -0.054092   0.045920   0.013287  -0.015748   0.008603
     36      -0.006288  -0.139414   0.153553   0.016667  -0.033056   0.017029
     37       0.012596  -0.009749   0.004601   0.003907  -0.003305   0.002662
     38       0.023874   0.215037  -0.243575  -0.023718   0.051995  -0.026458
     39      -0.215149  -0.059732   0.026679   0.186217   0.340886   0.273013
     40      -0.314147  -0.078934   0.046963   0.254060   0.470447   0.381407
     41       0.013368   0.013488   0.008904  -0.027954  -0.045377  -0.035722
     42      -0.149427   0.111984   0.180140  -0.149865  -0.180174  -0.128395
     43       0.015037   0.001874  -0.004752  -0.008542  -0.015130  -0.011675
     44       0.271959  -0.187847  -0.310457   0.247467   0.290015   0.203623
     45      -0.208527   0.078190   0.024208   0.186744  -0.341083   0.272849
     46       0.305217  -0.105946  -0.043490  -0.254852   0.470817  -0.381237
     47       0.012115  -0.014543   0.009177  -0.027961   0.045322  -0.035656
     48      -0.157804  -0.097947   0.180407  -0.149405   0.179430  -0.127977
     49      -0.014745   0.003202   0.004590   0.008600  -0.015182   0.011693
     50       0.285858   0.162451  -0.310754   0.246644  -0.288725   0.202914
     51      -0.000048   0.000001  -0.000092  -0.000025   0.000000  -0.000033
     52      -0.000000  -0.000010   0.000000   0.000000   0.000009   0.000000
     53       0.000083  -0.000003   0.000060   0.000056  -0.000000   0.000054


-----------
IR SPECTRUM  
-----------

 Mode    freq (cm**-1)   T**2         TX         TY         TZ
-------------------------------------------------------------------
   6:       111.92    0.000000  (  0.000000   0.000000   0.000000)
   7:       174.15    0.000000  (  0.000000   0.000000   0.000000)
   8:       238.22    0.000000  (  0.000000   0.000000   0.000000)
   9:       309.68    0.000000  (  0.000000   0.000000   0.000000)
  10:       356.08    0.000000  (  0.000000   0.000000   0.000000)
  11:       434.20    0.000000  (  0.000000   0.000000   0.000000)
  12:       446.01    0.000000  (  0.000000   0.000000   0.000000)
  13:       495.63    0.000000  (  0.000000   0.000000   0.000000)
  14:       661.13    0.000000  (  0.000000   0.000000   0.000000)
  15:       815.23    0.000000  (  0.000000   0.000000   0.000000)
  16:       859.31    0.000000  (  0.000000   0.000000   0.000000)
  17:       881.38    0.000000  (  0.000000   0.000000   0.000000)
  18:       926.28    0.000000  (  0.000000   0.000000   0.000000)
  19:       930.04    0.000000  (  0.000000   0.000000   0.000000)
  20:       949.34    0.000000  (  0.000000   0.000000   0.000000)
  21:       996.56    0.000000  (  0.000000   0.000000   0.000000)
  22:      1076.56    0.000000  (  0.000000   0.000000   0.000000)
  23:      1090.02    0.000000  (  0.000000   0.000000   0.000000)
  24:      1106.10    0.000000  (  0.000000   0.000000   0.000000)
  25:      1108.04    0.000000  (  0.000000   0.000000   0.000000)
  26:      1137.69    0.000000  (  0.000000   0.000000   0.000000)
  27:      1169.56    0.000000  (  0.000000   0.000000   0.000000)
  28:      1206.73    0.000000  (  0.000000   0.000000   0.000000)
  29:      1233.87    0.000000  (  0.000000   0.000000   0.000000)
  30:      1242.40    0.000000  (  0.000000   0.000000   0.000000)
  31:      1249.87    0.000000  (  0.000000   0.000000   0.000000)
  32:      1287.46    0.000000  (  0.000000   0.000000   0.000000)
  33:      1327.17    0.000000  (  0.000000   0.000000   0.000000)
  34:      1340.37    0.000000  (  0.000000   0.000000   0.000000)
  35:      1343.25    0.000000  (  0.000000   0.000000   0.000000)
  36:      1352.35    0.000000  (  0.000000   0.000000   0.000000)
  37:      1355.32    0.000000  (  0.000000   0.000000   0.000000)
  38:      1462.59    0.000000  (  0.000000   0.000000   0.000000)
  39:      1471.13    0.000000  (  0.000000   0.000000   0.000000)
  40:      1482.45    0.000000  (  0.000000   0.000000   0.000000)
  41:      1484.53    0.000000  (  0.000000   0.000000   0.000000)
  42:      1497.34    0.000000  (  0.000000   0.000000   0.000000)
  43:      2944.40    0.000000  (  0.000000   0.000000   0.000000)
  44:      2953.59    0.000000  (  0.000000   0.000000   0.000000)
  45:      2956.94    0.000000  (  0.000000   0.000000   0.000000)
  46:      2960.31    0.000000  (  0.000000   0.000000   0.000000)
  47:      2969.29    0.000000  (  0.000000   0.000000   0.000000)
  48:      2974.88    0.000000  (  0.000000   0.000000   0.000000)
  49:      2975.30    0.000000  (  0.000000   0.000000   0.000000)
  50:      2977.10    0.000000  (  0.000000   0.000000   0.000000)
  51:      2982.06    0.000000  (  0.000000   0.000000   0.000000)
  52:      2986.92    0.000000  (  0.000000   0.000000   0.000000)
  53:      2992.04    0.000000  (  0.000000   0.000000   0.000000)

The first frequency considered to be a vibration is 6
The total number of vibrations considered is 48


--------------------------
THERMOCHEMISTRY AT 298.15K
--------------------------

Temperature         ... 298.15 K
Pressure            ... 1.00 atm
Total Mass          ... 163.05 AMU

Throughout the following assumptions are being made:
  (1) The electronic state is orbitally nondegenerate
  (2) There are no thermally accessible electronically excited states
  (3) Hindered rotations indicated by low frequency modes are not
      treated as such but are treated as vibrations and this may
      cause some error
  (4) All equations used are the standard statistical mechanics
      equations for an ideal gas
  (5) All vibrations are strictly harmonic

freq.     111.92  E(vib)   ...       0.45 
freq.     174.15  E(vib)   ...       0.38 
freq.     238.22  E(vib)   ...       0.32 
freq.     309.68  E(vib)   ...       0.26 
freq.     356.08  E(vib)   ...       0.22 
freq.     434.20  E(vib)   ...       0.17 
freq.     446.01  E(vib)   ...       0.17 
freq.     495.63  E(vib)   ...       0.14 
freq.     661.13  E(vib)   ...       0.08 
freq.     815.23  E(vib)   ...       0.05 
freq.     859.31  E(vib)   ...       0.04 
freq.     881.38  E(vib)   ...       0.04 
freq.     926.28  E(vib)   ...       0.03 
freq.     930.04  E(vib)   ...       0.03 
freq.     949.34  E(vib)   ...       0.03 
freq.     996.56  E(vib)   ...       0.02 
freq.    1076.56  E(vib)   ...       0.02 
freq.    1090.02  E(vib)   ...       0.02 
freq.    1106.10  E(vib)   ...       0.02 
freq.    1108.04  E(vib)   ...       0.02 
freq.    1137.69  E(vib)   ...       0.01 
freq.    1169.56  E(vib)   ...       0.01 
freq.    1206.73  E(vib)   ...       0.01 
freq.    1233.87  E(vib)   ...       0.01 
freq.    1242.40  E(vib)   ...       0.01 
freq.    1249.87  E(vib)   ...       0.01 
freq.    1287.46  E(vib)   ...       0.01 
freq.    1327.17  E(vib)   ...       0.01 
freq.    1340.37  E(vib)   ...       0.01 
freq.    1343.25  E(vib)   ...       0.01 
freq.    1352.35  E(vib)   ...       0.01 
freq.    1355.32  E(vib)   ...       0.01 
freq.    1462.59  E(vib)   ...       0.00 
freq.    1471.13  E(vib)   ...       0.00 
freq.    1482.45  E(vib)   ...       0.00 
freq.    1484.53  E(vib)   ...       0.00 
freq.    1497.34  E(vib)   ...       0.00 
freq.    2944.40  E(vib)   ...       0.00 
freq.    2953.59  E(vib)   ...       0.00 
freq.    2956.94  E(vib)   ...       0.00 
freq.    2960.31  E(vib)   ...       0.00 
freq.    2969.29  E(vib)   ...       0.00 
freq.    2974.88  E(vib)   ...       0.00 
freq.    2975.30  E(vib)   ...       0.00 
freq.    2977.10  E(vib)   ...       0.00 
freq.    2982.06  E(vib)   ...       0.00 
freq.    2986.92  E(vib)   ...       0.00 
freq.    2992.04  E(vib)   ...       0.00 

------------
INNER ENERGY
------------

The inner energy is: U= E(el) + E(ZPE) + E(vib) + E(rot) + E(trans)
    E(el)   - is the total energy from the electronic structure calculation
              = E(kin-el) + E(nuc-el) + E(el-el) + E(nuc-nuc)
    E(ZPE)  - the the zero temperature vibrational energy from the frequency calculation
    E(vib)  - the the finite temperature correction to E(ZPE) due to population
              of excited vibrational states
    E(rot)  - is the rotational thermal energy
    E(trans)- is the translational thermal energy

Summary of contributions to the inner energy U:
Electronic energy                ...    -22.57521888 Eh
Zero point energy                ...      0.15783776 Eh      99.04 kcal/mol
Thermal vibrational correction   ...      0.00414272 Eh       2.60 kcal/mol
Thermal rotational correction    ...      0.00141627 Eh       0.89 kcal/mol
Thermal translational correction ...      0.00141627 Eh       0.89 kcal/mol
-----------------------------------------------------------------------
Total thermal energy                    -22.41040585 Eh


Summary of corrections to the electronic energy:
(perhaps to be used in another calculation)
Total thermal correction                  0.00697527 Eh       4.38 kcal/mol
Non-thermal (ZPE) correction              0.15783776 Eh      99.04 kcal/mol
-----------------------------------------------------------------------
Total correction                          0.16481303 Eh     103.42 kcal/mol


--------
ENTHALPY
--------

The enthalpy is H = U + kB*T
                kB is Boltzmann's constant
Total free energy                 ...    -22.41040585 Eh 
Thermal Enthalpy correction       ...      0.00094421 Eh       0.59 kcal/mol
-----------------------------------------------------------------------
Total Enthalpy                    ...    -22.40946165 Eh


Note: Only C1 symmetry has been detected, increase convergence thresholds 
      if your molecule has a higher symmetry. Symmetry factor of 1.0 is   
      used for the rotational entropy correction. 
 

Note: Rotational entropy computed according to Herzberg 
Infrared and Raman Spectra, Chapter V,1, Van Nostrand Reinhold, 1945 
Point Group:  C1, Symmetry Number:   1  
Rotational constants in cm-1:     0.103122     0.039044     0.035826 

Vibrational entropy computed according to the QRRHO of S. Grimme
Chem.Eur.J. 2012 18 9955


-------
ENTROPY
-------

The entropy contributions are T*S = T*(S(el)+S(vib)+S(rot)+S(trans))
     S(el)   - electronic entropy
     S(vib)  - vibrational entropy
     S(rot)  - rotational entropy
     S(trans)- translational entropy
The entropies will be listed as mutliplied by the temperature to get
units of energy

Electronic entropy                ...      0.00000000 Eh      0.00 kcal/mol
Vibrational entropy               ...      0.00670682 Eh      4.21 kcal/mol
Rotational entropy                ...      0.01368598 Eh      8.59 kcal/mol
Translational entropy             ...      0.01956367 Eh     12.28 kcal/mol
-----------------------------------------------------------------------
Final entropy term                ...      0.03995647 Eh     25.07 kcal/mol

In case the symmetry of your molecule has not been determined correctly
or in case you have a reason to use a different symmetry number we print 
out the resulting rotational entropy values for sn=1,12 :
 --------------------------------------------------------
|  sn= 1 | S(rot)=       0.01368598 Eh      8.59 kcal/mol|
|  sn= 2 | S(rot)=       0.01303153 Eh      8.18 kcal/mol|
|  sn= 3 | S(rot)=       0.01264869 Eh      7.94 kcal/mol|
|  sn= 4 | S(rot)=       0.01237707 Eh      7.77 kcal/mol|
|  sn= 5 | S(rot)=       0.01216638 Eh      7.63 kcal/mol|
|  sn= 6 | S(rot)=       0.01199424 Eh      7.53 kcal/mol|
|  sn= 7 | S(rot)=       0.01184869 Eh      7.44 kcal/mol|
|  sn= 8 | S(rot)=       0.01172261 Eh      7.36 kcal/mol|
|  sn= 9 | S(rot)=       0.01161140 Eh      7.29 kcal/mol|
|  sn=10 | S(rot)=       0.01151193 Eh      7.22 kcal/mol|
|  sn=11 | S(rot)=       0.01142194 Eh      7.17 kcal/mol|
|  sn=12 | S(rot)=       0.01133978 Eh      7.12 kcal/mol|
 --------------------------------------------------------


-------------------
GIBBS FREE ENERGY
-------------------

The Gibbs free energy is G = H - T*S

Total enthalpy                    ...    -22.40946165 Eh 
Total entropy correction          ...     -0.03995647 Eh    -25.07 kcal/mol
-----------------------------------------------------------------------
Final Gibbs free energy         ...    -22.44941812 Eh

For completeness - the Gibbs free energy minus the electronic energy
G-E(el)                           ...      0.12580076 Eh     78.94 kcal/mol


Total Time for Numerical Frequencies  :       101.481 sec

Timings for individual modules:

Sum of individual times         ...        0.663 sec (=   0.011 min)
Geometry relaxation             ...        0.326 sec (=   0.005 min)  49.3 %
XTB module                      ...        0.336 sec (=   0.006 min)  50.7 %
                             ****ORCA TERMINATED NORMALLY****
TOTAL RUN TIME: 0 days 0 hours 1 minutes 43 seconds 125 msec
