SLURM_JOB_ID=127

                                 *****************
                                 * O   R   C   A *
                                 *****************

           --- An Ab Initio, DFT and Semiempirical electronic structure package ---

                  #######################################################
                  #                        -***-                        #
                  #          Department of theory and spectroscopy      #
                  #               Directorship: Frank Neese             #
                  #        Max Planck Institute fuer Kohlenforschung    #
                  #                Kaiser Wilhelm Platz 1               #
                  #                 D-45470 Muelheim/Ruhr               #
                  #                      Germany                        #
                  #                                                     #
                  #                  All rights reserved                #
                  #                        -***-                        #
                  #######################################################


                         Program Version 4.2.1 -  RELEASE  -


 With contributions from (in alphabetic order):
   Daniel Aravena         : Magnetic Suceptibility
   Michael Atanasov       : Ab Initio Ligand Field Theory (pilot matlab implementation)
   Alexander A. Auer      : GIAO ZORA, VPT2
   Ute Becker             : Parallelization
   Giovanni Bistoni       : ED, misc. LED, open-shell LED, HFLD
   Martin Brehm           : Molecular dynamics
   Dmytro Bykov           : SCF Hessian
   Vijay G. Chilkuri      : MRCI spin determinant printing, contributions to CSF-ICE
   Dipayan Datta          : RHF DLPNO-CCSD density
   Achintya Kumar Dutta   : EOM-CC, STEOM-CC
   Dmitry Ganyushin       : Spin-Orbit,Spin-Spin,Magnetic field MRCI
   Miquel Garcia          : C-PCM Hessian, Gaussian charge scheme
   Yang Guo               : DLPNO-NEVPT2, CIM, IAO-localization
   Andreas Hansen         : Spin unrestricted coupled pair/coupled cluster methods
   Benjamin Helmich-Paris : CASSCF linear response (MC-RPA)
   Lee Huntington         : MR-EOM, pCC
   Robert Izsak           : Overlap fitted RIJCOSX, COSX-SCS-MP3, EOM
   Christian Kollmar      : KDIIS, OOCD, Brueckner-CCSD(T), CCSD density
   Simone Kossmann        : Meta GGA functionals, TD-DFT gradient, OOMP2, MP2 Hessian
   Martin Krupicka        : AUTO-CI
   Lucas Lang             : DCDCAS
   Dagmar Lenk            : GEPOL surface, SMD
   Dimitrios Liakos       : Extrapolation schemes; Compound Job, initial MDCI parallelization
   Dimitrios Manganas     : Further ROCIS development; embedding schemes
   Dimitrios Pantazis     : SARC Basis sets
   Taras Petrenko         : DFT Hessian,TD-DFT gradient, ASA, ECA, R-Raman, ABS, FL, XAS/XES, NRVS
   Peter Pinski           : DLPNO-MP2, DLPNO-MP2 Gradient
   Christoph Reimann      : Effective Core Potentials
   Marius Retegan         : Local ZFS, SOC
   Christoph Riplinger    : Optimizer, TS searches, QM/MM, DLPNO-CCSD(T), (RO)-DLPNO pert. Triples
   Tobias Risthaus        : Range-separated hybrids, TD-DFT gradient, RPA, STAB
   Michael Roemelt        : Original ROCIS implementation
   Masaaki Saitow         : Open-shell DLPNO-CCSD energy and density
   Barbara Sandhoefer     : DKH picture change effects
   Avijit Sen             : IP-ROCIS
   Kantharuban Sivalingam : CASSCF convergence, NEVPT2, FIC-MRCI
   Bernardo de Souza      : ESD, SOC TD-DFT
   Georgi Stoychev        : AutoAux, RI-MP2 NMR
   Willem Van den Heuvel  : Paramagnetic NMR
   Boris Wezisla          : Elementary symmetry handling
   Frank Wennmohs         : Technical directorship


 We gratefully acknowledge several colleagues who have allowed us to
 interface, adapt or use parts of their codes:
   Stefan Grimme, W. Hujo, H. Kruse,             : VdW corrections, initial TS optimization,
                  C. Bannwarth                     DFT functionals, gCP, sTDA/sTD-DF
   Ed Valeev, F. Pavosevic, A. Kumar             : LibInt (2-el integral package), F12 methods
   Garnet Chan, S. Sharma, J. Yang, R. Olivares  : DMRG
   Ulf Ekstrom                                   : XCFun DFT Library
   Mihaly Kallay                                 : mrcc  (arbitrary order and MRCC methods)
   Andreas Klamt, Michael Diedenhofen            : otool_cosmo (COSMO solvation model)
   Jiri Pittner, Ondrej Demel                    : Mk-CCSD
   Frank Weinhold                                : gennbo (NPA and NBO analysis)
   Christopher J. Cramer and Donald G. Truhlar   : smd solvation model
   Lars Goerigk                                  : TD-DFT with DH, B97 family of functionals
   V. Asgeirsson, H. Jonsson                     : NEB implementation
   FAccTs GmbH                                   : IRC, NEB, NEB-TS, Multilevel, MM, QM/MM, CI optimization
   S Lehtola, MJT Oliveira, MAL Marques          : LibXC Library


 Your calculation uses the libint2 library for the computation of 2-el integrals
 For citations please refer to: http://libint.valeyev.net

 Your ORCA version has been built with support for libXC version: 4.2.3
 For citations please refer to: https://tddft.org/programs/libxc/

 This ORCA versions uses:
   CBLAS   interface :  Fast vector & matrix operations
   LAPACKE interface :  Fast linear algebra routines
   SCALAPACK package :  Parallel linear algebra routines




***************************************
The coordinates will be read from file: init.xyz
***************************************


Your calculation utilizes the atom-pairwise dispersion correction
based on tight binding partial charges (D4)
Cite in your paper:
E.Caldeweyher, C.Bannwarth, S.Grimme, J.Chem.Phys., (2017), 147, 034112.
E.Caldeweyher, S.Ehlert, A.Hansen, H.Neugebauer, S.Grimme, J.Chem.Phys., (2018), in progress.
   

Your calculation utilizes the SMD solvation module
Please cite in your paper:
A.V. Marenich, C.J. Cramer, D.G. Truhlar J. Phys. Chem. B, 113, (2009), 6378 

----- Orbital basis set information -----
Your calculation utilizes the basis: def2-TZVP
   F. Weigend and R. Ahlrichs, Phys. Chem. Chem. Phys. 7, 3297 (2005).

----- AuxJ basis set information -----
Your calculation utilizes the auxiliary basis: def2/J
   F. Weigend, Phys. Chem. Chem. Phys. 8, 1057 (2006).

================================================================================
                                        WARNINGS
                       Please study these warnings very carefully!
================================================================================


WARNING: Geometry Optimization
  ===> : Switching off AutoStart
         For restart on a previous wavefunction, please use MOREAD

INFO   : the flag for use of LIBINT has been found!

================================================================================
                                       INPUT FILE
================================================================================
NAME = /tmp/slurm-scratch/opt+freq.127/opt+freq.inp
|  1> ! BLYP D4 def2-TZVP RI def2/J Opt Freq TightSCF Grid4 FinalGrid5 PrintBasis PrintMOs
|  2> %maxcore 1150
|  3> 
|  4> * xyzfile 0 1 init.xyz
|  5> 
|  6> %cpcm
|  7>  smd true
|  8>  smdsolvent "dichloromethane"
|  9> end
| 10> 
| 11> %geom
| 12>  maxiter 30
| 13>  trust 0.2
| 14>  inhess read
| 15>  inhessname "freq.hess"
| 16> end
| 17> %pal nprocs 11 end
| 18> 
| 19>                          ****END OF INPUT****
================================================================================

                       *****************************
                       * Geometry Optimization Run *
                       *****************************

Geometry optimization settings:
Update method            Update   .... BFGS
Choice of coordinates    CoordSys .... Z-matrix Internals
Initial Hessian          InHess   .... Read

Convergence Tolerances:
Energy Change            TolE     ....  5.0000e-06 Eh
Max. Gradient            TolMAXG  ....  3.0000e-04 Eh/bohr
RMS Gradient             TolRMSG  ....  1.0000e-04 Eh/bohr
Max. Displacement        TolMAXD  ....  4.0000e-03 bohr
RMS Displacement         TolRMSD  ....  2.0000e-03 bohr
Strict Convergence                ....  False
------------------------------------------------------------------------------
                        ORCA OPTIMIZATION COORDINATE SETUP
------------------------------------------------------------------------------

The optimization will be done in new redundant internal coordinates
Making redundant internal coordinates   ...  (new redundants) done
Evaluating the initial hessian          ... (Reading Exact Hessian)...  
InHessName: freq.hess	The file <freq.hess> is opened as a .hess file
done
done
Diagonalizing the Hessian               .... done
Dimension of the hessian                .... 3
Lowest eigenvalues of the non projected Hessian:
  0.139474788  0.452045306  0.474329785
done
Evaluating the coordinates              ...  done
Calculating the B-matrix                .... done
Calculating the G-matrix                .... done
Diagonalizing the G-matrix              .... done
The first mode is                       ....    0
The number of degrees of freedom        ....    3

    -----------------------------------------------------------------
                    Redundant Internal Coordinates


    -----------------------------------------------------------------
         Definition                    Initial Value    d2E/dq (diagonal element)
    -----------------------------------------------------------------
      1. B(H   1,O   0)                  0.9644         0.460754   
      2. B(H   2,O   0)                  0.9644         0.460875   
      3. A(H   1,O   0,H   2)          104.0253         0.144221   
    -----------------------------------------------------------------

Number of atoms                         .... 3
Number of degrees of freedom            .... 3

         *************************************************************
         *                GEOMETRY OPTIMIZATION CYCLE   1            *
         *************************************************************
---------------------------------
CARTESIAN COORDINATES (ANGSTROEM)
---------------------------------
  O      0.809645    0.131230    0.000000
  H      1.772977    0.177312    0.000000
  H      0.531478    1.054658    0.000000

----------------------------
CARTESIAN COORDINATES (A.U.)
----------------------------
  NO LB      ZA    FRAG     MASS         X           Y           Z
   0 O     8.0000    0    15.999    1.530008    0.247988    0.000000
   1 H     1.0000    0     1.008    3.350441    0.335071    0.000000
   2 H     1.0000    0     1.008    1.004347    1.993015    0.000000

--------------------------------
INTERNAL COORDINATES (ANGSTROEM)
--------------------------------
 O      0   0   0     0.000000000000     0.00000000     0.00000000
 H      1   0   0     0.964433259858     0.00000000     0.00000000
 H      1   2   0     0.964415669681   104.02532587     0.00000000

---------------------------
INTERNAL COORDINATES (A.U.)
---------------------------
 O      0   0   0     0.000000000000     0.00000000     0.00000000
 H      1   0   0     1.822514735577     0.00000000     0.00000000
 H      1   2   0     1.822481494960   104.02532587     0.00000000

---------------------
BASIS SET INFORMATION
---------------------
There are 2 groups of distinct atoms

 Group   1 Type O   : 11s6p2d1f contracted to 5s3p2d1f pattern {62111/411/11/1}
 Group   2 Type H   : 5s1p contracted to 3s1p pattern {311/1}

Atom   0O    basis set group =>   1
Atom   1H    basis set group =>   2
Atom   2H    basis set group =>   2

-------------------------
BASIS SET IN INPUT FORMAT
-------------------------

 # Basis set for element : H 
 NewGTO H 
 S 3 
   1      34.0613410000      0.0254393072
   2       5.1235746000      0.1900859489
   3       1.1646626000      0.8524411301
 S 1 
   1       0.3272304100      1.0000000000
 S 1 
   1       0.1030724100      1.0000000000
 P 1 
   1       0.8000000000      1.0000000000
  end;

 # Basis set for element : O 
 NewGTO O 
 S 6 
   1   27032.3826310000      0.0005722733
   2    4052.3871392000      0.0044353233
   3     922.3272271000      0.0230201076
   4     261.2407098900      0.0928224906
   5      85.3546413510      0.2937850002
   6      31.0350352450      0.6740160450
 S 2 
   1      12.2608607280      0.6383993702
   2       4.9987076005      0.3953458713
 S 1 
   1       1.1703108158      1.0000000000
 S 1 
   1       0.4647474099      1.0000000000
 S 1 
   1       0.1850453636      1.0000000000
 P 4 
   1      63.2749548010      0.0120183321
   2      14.6270493790      0.0830054217
   3       4.4501223456      0.3199174393
   4       1.5275799647      0.7071554292
 P 1 
   1       0.5293511794      1.0000000000
 P 1 
   1       0.1747842127      1.0000000000
 D 1 
   1       2.3140000000      1.0000000000
 D 1 
   1       0.6450000000      1.0000000000
 F 1 
   1       1.4280000000      1.0000000000
  end;

---------------------------------
AUXILIARY/J BASIS SET INFORMATION
---------------------------------
There are 2 groups of distinct atoms

 Group   1 Type O   : 12s5p4d2f1g contracted to 6s4p3d1f1g pattern {711111/2111/211/2/1}
 Group   2 Type H   : 5s2p1d contracted to 3s1p1d pattern {311/2/1}

Atom   0O    basis set group =>   1
Atom   1H    basis set group =>   2
Atom   2H    basis set group =>   2

-------------------------------------
AUXILIARY/J BASIS SET IN INPUT FORMAT
-------------------------------------

 # Auxiliary/J basis set for element : H 
 NewAuxJGTO H 
 S 3 
   1      15.6752927000      0.1007184237
   2       3.6063578000      0.3404257499
   3       1.2080016000      0.6491996172
 S 1 
   1       0.4726794000      1.0000000000
 S 1 
   1       0.2018100000      1.0000000000
 P 2 
   1       2.0281365000      0.5596620919
   2       0.5358730000      0.5596620919
 D 1 
   1       2.2165124000      1.0000000000
  end;

 # Auxiliary/J basis set for element : O 
 NewAuxJGTO O 
 S 7 
   1    2876.8216605000      0.0168151159
   2    1004.7443032000      0.0340137548
   3     369.7579954000      0.1194951309
   4     142.9442404000      0.2664627624
   5      57.8366425000      0.4202764046
   6      24.3864983000      0.2765077335
   7      10.6622662000      0.0057008815
 S 1 
   1       4.8070437000     -1.0000000000
 S 1 
   1       2.2210770000      1.0000000000
 S 1 
   1       1.0447795000      1.0000000000
 S 1 
   1       0.4968425000      1.0000000000
 S 1 
   1       0.2371384000      1.0000000000
 P 2 
   1      64.2613382000     -0.2731534179
   2      16.3006076000     -0.8168011598
 P 1 
   1       4.3550542000      1.0000000000
 P 1 
   1       1.2019554000      1.0000000000
 P 1 
   1       0.3354196000      1.0000000000
 D 2 
   1       9.2146611000     -0.4661230638
   2       2.8435251000     -0.6600908911
 D 1 
   1       0.9955759000     -1.0000000000
 D 1 
   1       0.3649441000     -1.0000000000
 F 2 
   1       2.6420115000      0.5931563945
   2       0.7345613000      0.5931563945
 G 1 
   1       1.3931000000     -1.0000000000
  end;



           ************************************************************
           *        Program running with 11 parallel MPI-processes    *
           *              working on a common directory               *
           ************************************************************
------------------------------------------------------------------------------
                           ORCA GTO INTEGRAL CALCULATION
                           -- RI-GTO INTEGRALS CHOSEN --
------------------------------------------------------------------------------

                         BASIS SET STATISTICS AND STARTUP INFO

Gaussian basis set:
 # of primitive gaussian shells          ...   32
 # of primitive gaussian functions       ...   62
 # of contracted shells                  ...   19
 # of contracted basis functions         ...   43
 Highest angular momentum                ...    3
 Maximum contraction depth               ...    6
Auxiliary gaussian basis set:
 # of primitive gaussian shells          ...   40
 # of primitive gaussian functions       ...  102
 # of contracted shells                  ...   25
 # of contracted aux-basis functions     ...   71
 Highest angular momentum                ...    4
 Maximum contraction depth               ...    7
Ratio of auxiliary to basis functions    ...  1.65
Integral package used                  ... LIBINT
 One Electron integrals                  ... done
 Ordering auxiliary basis shells         ... done
 Integral threshhold             Thresh  ...  2.500e-11
 Primitive cut-off               TCut    ...  2.500e-12
 Pre-screening matrix                    ... done
 Shell pair data                         ... 
 Ordering of the shell pairs             ... done (   0.000 sec) 190 of 190 pairs
 Determination of significant pairs      ... done (   0.000 sec)
 Creation of shell pair data             ... done (   0.000 sec)
 Storage of shell pair data              ... done (   0.003 sec)
 Shell pair data done in (   0.004 sec)
 Computing two index integrals           ... done
 Cholesky decomposition of the V-matrix  ... done


Timings:
 Total evaluation time                   ...   0.174 sec (  0.003 min)
 One electron matrix time                ...   0.009 sec (  0.000 min) =  5.3%
 Schwartz matrix evaluation time         ...   0.132 sec (  0.002 min) = 75.5%
 Two index repulsion integral time       ...   0.002 sec (  0.000 min) =  1.0%
 Cholesky decomposition of V             ...   0.008 sec (  0.000 min) =  4.4%
 Three index repulsion integral time     ...   0.000 sec (  0.000 min) =  0.0%



           ************************************************************
           *        Program running with 11 parallel MPI-processes    *
           *              working on a common directory               *
           ************************************************************
-------------------------------------------------------------------------------
                                 ORCA SCF
-------------------------------------------------------------------------------

------------
SCF SETTINGS
------------
Hamiltonian:
 Density Functional     Method          .... DFT(GTOs)
 Exchange Functional    Exchange        .... B88
   X-Alpha parameter    XAlpha          ....  0.666667
   Becke's b parameter  XBeta           ....  0.004200
 Correlation Functional Correlation     .... LYP
 Gradients option       PostSCFGGA      .... off
   Density functional embedding theory  .... OFF
   NL short-range parameter             ....  4.000000
 RI-approximation to the Coulomb term is turned on
   Number of auxiliary basis functions  .... 71


General Settings:
 Integral files         IntName         .... /tmp/slurm-scratch/opt+freq.127/opt+freq
 Hartree-Fock type      HFTyp           .... RHF
 Total Charge           Charge          ....    0
 Multiplicity           Mult            ....    1
 Number of Electrons    NEL             ....   10
 Basis Dimension        Dim             ....   43
 Nuclear Repulsion      ENuc            ....      9.1272520076 Eh

Convergence Acceleration:
 DIIS                   CNVDIIS         .... on
   Start iteration      DIISMaxIt       ....    12
   Startup error        DIISStart       ....  0.200000
   # of expansion vecs  DIISMaxEq       ....     5
   Bias factor          DIISBfac        ....   1.050
   Max. coefficient     DIISMaxC        ....  10.000
 Newton-Raphson         CNVNR           .... off
 SOSCF                  CNVSOSCF        .... on
   Start iteration      SOSCFMaxIt      ....   150
   Startup grad/error   SOSCFStart      ....  0.003300
 Level Shifting         CNVShift        .... on
   Level shift para.    LevelShift      ....    0.2500
   Turn off err/grad.   ShiftErr        ....    0.0010
 Zerner damping         CNVZerner       .... off
 Static damping         CNVDamp         .... on
   Fraction old density DampFac         ....    0.7000
   Max. Damping (<1)    DampMax         ....    0.9800
   Min. Damping (>=0)   DampMin         ....    0.0000
   Turn off err/grad.   DampErr         ....    0.1000
 Fernandez-Rico         CNVRico         .... off

SCF Procedure:
 Maximum # iterations   MaxIter         ....   125
 SCF integral mode      SCFMode         .... Direct
   Integral package                     .... LIBINT
 Reset frequency        DirectResetFreq ....    20
 Integral Threshold     Thresh          ....  2.500e-11 Eh
 Primitive CutOff       TCut            ....  2.500e-12 Eh

Convergence Tolerance:
 Convergence Check Mode ConvCheckMode   .... Total+1el-Energy
 Convergence forced     ConvForced      .... 0
 Energy Change          TolE            ....  1.000e-08 Eh
 1-El. energy change                    ....  1.000e-05 Eh
 Orbital Gradient       TolG            ....  1.000e-05
 Orbital Rotation angle TolX            ....  1.000e-05
 DIIS Error             TolErr          ....  5.000e-07


Diagonalization of the overlap matrix:
Smallest eigenvalue                        ... 8.555e-03
Time for diagonalization                   ...    0.018 sec
Threshold for overlap eigenvalues          ... 1.000e-08
Number of eigenvalues below threshold      ... 0
Time for construction of square roots      ...    0.005 sec
Total time needed                          ...    0.024 sec

-------------------
DFT GRID GENERATION
-------------------

General Integration Accuracy     IntAcc      ...  4.670
Radial Grid Type                 RadialGrid  ... Gauss-Chebyshev
Angular Grid (max. acc.)         AngularGrid ... Lebedev-302
Angular grid pruning method      GridPruning ... 3 (G Style)
Weight generation scheme         WeightScheme... Becke
Basis function cutoff            BFCut       ...    1.0000e-11
Integration weight cutoff        WCut        ...    1.0000e-14
Grids for H and He will be reduced by one unit

# of grid points (after initial pruning)     ...  13000 (   0.0 sec)
# of grid points (after weights+screening)   ...  12881 (   0.0 sec)
nearest neighbour list constructed           ...    0.0 sec
Grid point re-assignment to atoms done       ...    0.0 sec
Grid point division into batches done        ...    0.0 sec
Reduced shell lists constructed in    0.1 sec

Total number of grid points                  ...    12881
Total number of batches                      ...      203
Average number of points per batch           ...       63
Average number of grid points per atom       ...     4294
Average number of shells per batch           ...    11.65 (61.32%)
Average number of basis functions per batch  ...    25.25 (58.72%)
Average number of large shells per batch     ...     9.30 (79.83%)
Average number of large basis fcns per batch ...    20.60 (81.58%)
Maximum spatial batch extension              ...  12.59, 12.72, 16.88 au
Average spatial batch extension              ...   0.64,  0.60,  0.71 au

Time for grid setup =    0.069 sec

------------------------------
INITIAL GUESS: MODEL POTENTIAL
------------------------------
Loading Hartree-Fock densities                     ... done
Calculating cut-offs                               ... done
Setting up the integral package                    ... done
Initializing the effective Hamiltonian             ... done
Starting the Coulomb interaction                   ... done (   0.0 sec)
Reading the grid                                   ... done
Mapping shells                                     ... done
Starting the XC term evaluation                    ... done (   0.0 sec)
  promolecular density results
     # of electrons  =      9.999025275
     EX              =     -8.780670546
     EC              =     -0.334490229
     EX+EC           =     -9.115160775
Transforming the Hamiltonian                       ... done (   0.0 sec)
Diagonalizing the Hamiltonian                      ... done (   0.0 sec)
Back transforming the eigenvectors                 ... done (   0.0 sec)
Now organizing SCF variables                       ... done
                      ------------------
                      INITIAL GUESS DONE (   0.2 sec)
                      ------------------

--------------------
CPCM SOLVATION MODEL
--------------------
CPCM parameters:
  Epsilon                                         ...       8.9300
  Refrac                                          ...       1.0000
  Rsolv                                           ...       1.3000
  Surface type                                    ...    GEPOL SES
  Epsilon function type                           ...         CPCM
Solvent:                                     ... DICHLOROMETHANE
SMD-CDS solvent descriptors:
  Soln                                       ...    1.4242
  Soln25                                     ...    1.4212
  Sola                                       ...    0.1000
  Solb                                       ...    0.0500
  Solg                                       ...   39.1500
  Solc                                       ...    0.0000
  Solh                                       ...    0.6670
Radii:
 Radius for O  used is    3.9949 Bohr (=   2.1140 Ang.)
 Radius for H  used is    2.2677 Bohr (=   1.2000 Ang.)
Calculating surface                               ...        done! (  0.0s)
GEPOL surface points                              ...           72
GEPOL Volume                                      ...     267.2985
GEPOL Surface-area                                ...     200.7069
Calculating surface distance matrix               ...        done! (  0.0s)
Performing Cholesky decomposition & store         ...        done! (  0.0s)
Overall time for CPCM initialization              ...                 0.0s
--------------
SCF ITERATIONS
--------------
ITER       Energy         Delta-E        Max-DP      RMS-DP      [F,P]     Damp
               ***  Starting incremental Fock matrix formation  ***
  0    -76.3518402258   0.000000000000 0.08159887  0.00460773  0.3412833 0.7000
  1    -76.4051571177  -0.053316891844 0.04269301  0.00245799  0.1067050 0.7000
                               ***Turning on DIIS***
  2    -76.4180916176  -0.012934499892 0.02964150  0.00198718  0.0099534 0.0000
  3    -76.4498804246  -0.031788807053 0.02289262  0.00120289  0.0602538 0.0000
  4    -76.4528175826  -0.002937157987 0.00460824  0.00031377  0.0090121 0.0000
                      *** Initiating the SOSCF procedure ***
                           *** Shutting down DIIS ***
                      *** Re-Reading the Fockian *** 
                      *** Removing any level shift *** 
ITER      Energy       Delta-E        Grad      Rot      Max-DP    RMS-DP
  5    -76.45292623  -0.0001086424  0.000692  0.000692  0.001089  0.000085
               *** Restarting incremental Fock matrix formation ***
  6    -76.45293055  -0.0000043259  0.000292  0.000864  0.000866  0.000057
  7    -76.45293088  -0.0000003261  0.000219  0.000176  0.000260  0.000018
  8    -76.45293099  -0.0000001101  0.000124  0.000241  0.000207  0.000017
  9    -76.45293109  -0.0000001030  0.000012  0.000035  0.000032  0.000002
 10    -76.45293109  -0.0000000005  0.000003  0.000002  0.000002  0.000000
                 **** Energy Check signals convergence ****
              ***Rediagonalizing the Fockian in SOSCF/NRSCF***

               *****************************************************
               *                     SUCCESS                       *
               *           SCF CONVERGED AFTER  11 CYCLES          *
               *****************************************************

Setting up the final grid:

General Integration Accuracy     IntAcc      ...  5.010
Radial Grid Type                 RadialGrid  ... Gauss-Chebyshev
Angular Grid (max. acc.)         AngularGrid ... Lebedev-434
Angular grid pruning method      GridPruning ... 3 (G Style)
Weight generation scheme         WeightScheme... Becke
Basis function cutoff            BFCut       ...    1.0000e-11
Integration weight cutoff        WCut        ...    1.0000e-14
Grids for H and He will be reduced by one unit

# of grid points (after initial pruning)     ...  24226 (   0.0 sec)
# of grid points (after weights+screening)   ...  23992 (   0.0 sec)
nearest neighbour list constructed           ...    0.0 sec
Grid point re-assignment to atoms done       ...    0.0 sec
Grid point division into batches done        ...    0.2 sec
Reduced shell lists constructed in    0.2 sec

Total number of grid points                  ...    23992
Total number of batches                      ...      377
Average number of points per batch           ...       63
Average number of grid points per atom       ...     7997
Average number of shells per batch           ...    10.69 (56.29%)
Average number of basis functions per batch  ...    24.03 (55.88%)
Average number of large shells per batch     ...     8.50 (79.48%)
Average number of large basis fcns per batch ...    18.72 (77.92%)
Maximum spatial batch extension              ...  14.78, 13.56, 16.29 au
Average spatial batch extension              ...   0.49,  0.50,  0.56 au

Final grid set up in    0.2 sec
Final integration                            ... done (   0.0 sec)
Change in XC energy                          ...    -0.000004542
Integrated number of electrons               ...    10.000000511
Previous integrated no of electrons          ...     9.999996857

SMD CDS free energy correction energy :                -0.19219     Kcal/mol
Total Energy after SMD CDS correction =               -76.453241906 Eh

----------------
TOTAL SCF ENERGY
----------------

Total Energy       :          -76.45324191 Eh           -2080.39848 eV

Components:
Nuclear Repulsion  :            9.12725201 Eh             248.36515 eV
Electronic Energy  :          -85.58049391 Eh           -2328.76363 eV
One Electron Energy:         -122.99053560 Eh           -3346.74262 eV
Two Electron Energy:           37.41004168 Eh            1017.97899 eV
CPCM Dielectric    :           -0.00828906 Eh              -0.22556 eV
SMD CDS (Gcds)     :           -0.00030627 Eh              -0.00833 eV

Virial components:
Potential Energy   :         -152.69219989 Eh           -4154.96599 eV
Kinetic Energy     :           76.23895799 Eh            2074.56752 eV
Virial Ratio       :            2.00281069


DFT components:
N(Alpha)           :        5.000000255446 electrons
N(Beta)            :        5.000000255446 electrons
N(Total)           :       10.000000510891 electrons
E(X)               :       -8.979387416020 Eh       
E(C)               :       -0.340419213286 Eh       
E(XC)              :       -9.319806629306 Eh       
DFET-embed. en.    :        0.000000000000 Eh       
CPCM Solvation Model Properties:
Surface-charge          :           -0.00383544
Charge-correction       :            0.00003491 Eh               0.00095 eV
Free-energy (cav+disp)  :            0.00271097 Eh               0.07377 eV
Corrected G(solv)       :          -76.45049602 Eh           -2080.32376 eV

---------------
SCF CONVERGENCE
---------------

  Last Energy change         ...   -9.1624e-10  Tolerance :   1.0000e-08
  Last MAX-Density change    ...    9.1767e-07  Tolerance :   1.0000e-07
  Last RMS-Density change    ...    6.6552e-08  Tolerance :   5.0000e-09
  Last Orbital Gradient      ...    5.6617e-07  Tolerance :   1.0000e-05
  Last Orbital Rotation      ...    1.1760e-06  Tolerance :   1.0000e-05

             **** THE GBW FILE WAS UPDATED (/tmp/slurm-scratch/opt+freq.127/opt+freq.gbw) ****
             **** DENSITY FILE WAS UPDATED (/tmp/slurm-scratch/opt+freq.127/opt+freq.scfp) ****
             **** ENERGY FILE WAS UPDATED (/tmp/slurm-scratch/opt+freq.127/opt+freq.en.tmp) ****
             **** THE GBW FILE WAS UPDATED (/tmp/slurm-scratch/opt+freq.127/opt+freq.gbw) ****
             **** DENSITY FILE WAS UPDATED (/tmp/slurm-scratch/opt+freq.127/opt+freq.scfp) ****
----------------
ORBITAL ENERGIES
----------------

  NO   OCC          E(Eh)            E(eV) 
   0   2.0000     -18.762786      -510.5614 
   1   2.0000      -0.909301       -24.7433 
   2   2.0000      -0.464058       -12.6277 
   3   2.0000      -0.327540        -8.9128 
   4   2.0000      -0.250943        -6.8285 
   5   0.0000       0.010343         0.2814 
   6   0.0000       0.089095         2.4244 
   7   0.0000       0.328008         8.9255 
   8   0.0000       0.377982        10.2854 
   9   0.0000       0.390551        10.6274 
  10   0.0000       0.401814        10.9339 
  11   0.0000       0.536999        14.6125 
  12   0.0000       0.572336        15.5741 
  13   0.0000       1.117551        30.4101 
  14   0.0000       1.149126        31.2693 
  15   0.0000       1.247362        33.9425 
  16   0.0000       1.479769        40.2666 
  17   0.0000       1.587410        43.1956 
  18   0.0000       1.710241        46.5380 
  19   0.0000       1.924421        52.3662 
  20   0.0000       2.002208        54.4829 
  21   0.0000       2.043657        55.6107 
  22   0.0000       2.229243        60.6608 
  23   0.0000       2.303732        62.6877 
  24   0.0000       2.496730        67.9395 
  25   0.0000       2.519481        68.5586 
  26   0.0000       2.529966        68.8439 
  27   0.0000       2.690239        73.2051 
  28   0.0000       3.565294        97.0166 
  29   0.0000       3.831360       104.2566 
  30   0.0000       5.001474       136.0970 
  31   0.0000       5.105159       138.9184 
  32   0.0000       5.275064       143.5418 
  33   0.0000       5.302397       144.2855 
  34   0.0000       5.354070       145.6917 
  35   0.0000       5.910627       160.8363 
  36   0.0000       6.086289       165.6164 
  37   0.0000       6.185308       168.3108 
  38   0.0000       6.245873       169.9589 
  39   0.0000       6.305198       171.5732 
  40   0.0000       6.772226       184.2816 
  41   0.0000       6.879955       187.2131 
  42   0.0000      42.819324      1165.1730 
------------------
MOLECULAR ORBITALS
------------------
                      0         1         2         3         4         5   
                 -18.76279  -0.90930  -0.46406  -0.32754  -0.25094   0.01034
                   2.00000   2.00000   2.00000   2.00000   2.00000   0.00000
                  --------  --------  --------  --------  --------  --------
  0O   1s        -0.435395  0.098363 -0.000001 -0.037215  0.000000 -0.036482
  0O   2s        -0.638734  0.229290 -0.000001 -0.088155  0.000000 -0.090189
  0O   3s        -0.037031 -0.339011  0.000000  0.138325 -0.000000  0.193452
  0O   4s         0.025275 -0.428018  0.000010  0.187389 -0.000000  0.036980
  0O   5s        -0.010285 -0.162902 -0.000013  0.230151  0.000000  1.057909
  0O   1pz       -0.000000 -0.000000  0.000031 -0.000000  0.478160  0.000000
  0O   1px       -0.000995 -0.053191  0.319963 -0.242054 -0.000036  0.094539
  0O   1py       -0.001408 -0.075275 -0.226115 -0.342522  0.000026  0.133725
  0O   2pz        0.000000 -0.000000  0.000009  0.000000  0.370918  0.000001
  0O   2px        0.001870 -0.042470  0.238211 -0.179655 -0.000049  0.059631
  0O   2py        0.002646 -0.060100 -0.168340 -0.254219  0.000035  0.084398
  0O   3pz       -0.000000 -0.000000  0.000052  0.000000  0.354009 -0.000001
  0O   3px       -0.000700 -0.006774  0.111678 -0.145172 -0.000022  0.195400
  0O   3py       -0.000990 -0.009589 -0.078929 -0.205438  0.000016  0.276333
  0O   1dz2       0.000206  0.004555  0.000000  0.004368  0.000000  0.000719
  0O   1dxz      -0.000000 -0.000000  0.000000 -0.000000  0.002424  0.000000
  0O   1dyz       0.000000  0.000000  0.000000  0.000000  0.003430 -0.000000
  0O   1dx2y2    -0.000024 -0.000325  0.011123  0.000909 -0.000001 -0.000693
  0O   1dxy       0.000068  0.000919  0.003940 -0.002567 -0.000000  0.001957
  0O   2dz2      -0.000994  0.010885  0.000001  0.010409 -0.000000  0.003472
  0O   2dxz       0.000000 -0.000003  0.000001  0.000003  0.014044 -0.000000
  0O   2dyz      -0.000000  0.000002  0.000002 -0.000002  0.019874  0.000000
  0O   2dx2y2     0.000122 -0.000309  0.020957  0.007222 -0.000013 -0.003715
  0O   2dxy      -0.000346  0.000873  0.007424 -0.020389 -0.000005  0.010460
  0O   1f0       -0.000000  0.000000 -0.000000 -0.000000 -0.004920 -0.000000
  0O   1f+1      -0.000123  0.001537 -0.003808  0.001825  0.000003 -0.000572
  0O   1f-1      -0.000174  0.002175  0.002691  0.002583 -0.000002 -0.000811
  0O   1f+2       0.000000  0.000000  0.000000  0.000000  0.000447  0.000002
  0O   1f-2       0.000000  0.000000 -0.000001  0.000000 -0.001263  0.000001
  0O   1f+3      -0.000376  0.003743  0.000042  0.001092  0.000000 -0.000370
  0O   1f-3       0.000106 -0.001056  0.000150 -0.000308  0.000001  0.000105
  1H   1s        -0.000930 -0.095925  0.150460 -0.088409 -0.000014 -0.045641
  1H   2s        -0.001796 -0.067577  0.174365 -0.117701  0.000018 -0.101825
  1H   3s         0.002136 -0.007498  0.065505 -0.038226  0.000048 -0.901360
  1H   1pz       -0.000000 -0.000007  0.000012 -0.000009  0.024351 -0.000015
  1H   1px        0.001264  0.017407 -0.016993  0.008396 -0.000012 -0.035038
  1H   1py        0.000014 -0.001709 -0.009775 -0.016648  0.000002  0.000448
  2H   1s        -0.000930 -0.095931 -0.150460 -0.088411  0.000014 -0.045628
  2H   2s        -0.001796 -0.067574 -0.174345 -0.117693 -0.000019 -0.101851
  2H   3s         0.002136 -0.007500 -0.065502 -0.038212 -0.000047 -0.900982
  2H   1pz        0.000000  0.000007  0.000012  0.000009  0.024350  0.000014
  2H   1px       -0.000409 -0.007421  0.003543 -0.018494 -0.000005  0.012118
  2H   1py        0.001196  0.015839  0.019281  0.002357  0.000011 -0.032853
                      6         7         8         9        10        11   
                   0.08910   0.32801   0.37798   0.39055   0.40181   0.53700
                   0.00000   0.00000   0.00000   0.00000   0.00000   0.00000
                  --------  --------  --------  --------  --------  --------
  0O   1s        -0.000005 -0.000009  0.031150 -0.000000  0.020651 -0.000010
  0O   2s        -0.000012 -0.000019  0.066989 -0.000001  0.046366 -0.000021
  0O   3s         0.000013 -0.000015  0.019856  0.000000  0.007901 -0.000019
  0O   4s         0.000065  0.000234 -0.750033  0.000005 -0.502097  0.000397
  0O   5s         0.000062  0.000126 -0.289697  0.000014 -0.462259 -0.000693
  0O   1pz       -0.000064 -0.000038  0.000001 -0.331425 -0.000006  0.000005
  0O   1px       -0.224178  0.087896  0.121266  0.000021 -0.163418 -0.292226
  0O   1py        0.158442 -0.062093  0.171599 -0.000008 -0.231237  0.206535
  0O   2pz       -0.000149 -0.000088  0.000002 -0.692303 -0.000012  0.000023
  0O   2px       -0.116226  0.268144  0.205593 -0.000119 -0.380432 -0.599473
  0O   2py        0.082148 -0.189409  0.291002  0.000100 -0.538281  0.423665
  0O   3pz        0.000191  0.000159 -0.000002  1.225109  0.000022 -0.000064
  0O   3px       -0.513924  0.978760 -0.897411  0.000015  0.000733  1.657150
  0O   3py        0.363232 -0.691358 -1.270426 -0.000013  0.000350 -1.171221
  0O   1dz2      -0.000000  0.000006 -0.014316  0.000000 -0.012458 -0.000002
  0O   1dxz      -0.000001 -0.000000 -0.000001 -0.003628 -0.000000  0.000000
  0O   1dyz      -0.000001 -0.000000  0.000001 -0.005133  0.000000  0.000001
  0O   1dx2y2     0.001116 -0.030277 -0.000187  0.000005  0.003516 -0.009183
  0O   1dxy       0.000395 -0.010721  0.000516  0.000002 -0.009946 -0.003253
  0O   2dz2      -0.000001 -0.000028  0.053842 -0.000001  0.033642  0.000019
  0O   2dxz       0.000001 -0.000003  0.000005  0.003424  0.000003 -0.000000
  0O   2dyz       0.000002 -0.000004 -0.000003  0.004834 -0.000002 -0.000000
  0O   2dx2y2     0.026432  0.114816  0.000498 -0.000070  0.001244  0.052927
  0O   2dxy       0.009362  0.040658 -0.001441 -0.000025 -0.003497  0.018757
  0O   1f0        0.000001 -0.000000 -0.000000  0.001681  0.000000  0.000002
  0O   1f+1      -0.000029 -0.009962  0.002638  0.000005  0.004000 -0.000877
  0O   1f-1       0.000020  0.007037  0.003731 -0.000004  0.005661  0.000621
  0O   1f+2      -0.000000  0.000000  0.000001 -0.000195 -0.000001 -0.000000
  0O   1f-2       0.000001 -0.000001  0.000000  0.000551 -0.000000  0.000001
  0O   1f+3      -0.000822 -0.001083  0.008890  0.000001  0.012708 -0.000505
  0O   1f-3      -0.002913 -0.003820 -0.002506  0.000005 -0.003583 -0.001797
  1H   1s         0.043494 -0.131752  0.043764 -0.000003  0.122078  0.070528
  1H   2s         0.042271 -1.432433  0.949858  0.000264  1.368476  0.102947
  1H   3s         1.569828  0.553260 -0.153620 -0.000421 -0.674719 -1.681646
  1H   1pz        0.000001 -0.000013 -0.000007 -0.004924  0.000014  0.000023
  1H   1px        0.049345  0.101705 -0.072989 -0.000071 -0.065036  0.037148
  1H   1py        0.007024 -0.011301 -0.002720  0.000001 -0.025417  0.007572
  2H   1s        -0.043501  0.131707  0.043804 -0.000001  0.122127 -0.070565
  2H   2s        -0.042314  1.431550  0.950212 -0.000312  1.368944 -0.102966
  2H   3s        -1.569996 -0.552921 -0.153584  0.000441 -0.674617  1.682089
  2H   1pz        0.000001 -0.000012  0.000006 -0.004931 -0.000014  0.000024
  2H   1px        0.009855  0.044594  0.021819 -0.000024 -0.002232  0.005279
  2H   1py       -0.048861 -0.092026 -0.069691  0.000070 -0.069799 -0.037561
                     12        13        14        15        16        17   
                   0.57234   1.11755   1.14913   1.24736   1.47977   1.58741
                   0.00000   0.00000   0.00000   0.00000   0.00000   0.00000
                  --------  --------  --------  --------  --------  --------
  0O   1s         0.051575 -0.003505  0.000004  0.000000  0.000002 -0.015349
  0O   2s         0.106756 -0.009099  0.000010  0.000000  0.000009 -0.050738
  0O   3s         0.083795  0.038350 -0.000056 -0.000000 -0.000082  0.387576
  0O   4s        -2.213773  0.068870  0.000031  0.000001  0.000172 -0.681802
  0O   5s         4.855566 -0.890487  0.000515  0.000005  0.000327 -1.862177
  0O   1pz        0.000000 -0.000000 -0.000010 -0.099256 -0.000017 -0.000000
  0O   1px       -0.043977 -0.047067  0.000006  0.000013 -0.090786  0.056210
  0O   1py       -0.062117 -0.066625  0.000008 -0.000008  0.064137  0.079524
  0O   2pz        0.000001 -0.000001 -0.000010 -0.046163  0.000006  0.000000
  0O   2px       -0.000514 -0.088581  0.000065 -0.000049  0.742455 -0.296447
  0O   2py       -0.000674 -0.125232  0.000093  0.000036 -0.524541 -0.419690
  0O   3pz       -0.000002 -0.000003  0.000004 -0.207127  0.000024  0.000000
  0O   3px        0.759609 -0.322464  0.000149 -0.000021  0.756544 -0.553927
  0O   3py        1.074410 -0.456234  0.000216  0.000018 -0.534437 -0.784272
  0O   1dz2       0.016235  0.000273  0.000001 -0.000000  0.000002 -0.003594
  0O   1dxz       0.000000 -0.000001 -0.007415  0.001281 -0.000000 -0.000001
  0O   1dyz       0.000000  0.000001  0.005242  0.001814 -0.000000  0.000000
  0O   1dx2y2    -0.001691 -0.004335  0.000002 -0.000000 -0.007553 -0.000690
  0O   1dxy       0.004762  0.012245 -0.000005 -0.000000 -0.002675  0.001954
  0O   2dz2      -0.050323 -0.129760  0.000006  0.000001 -0.000278  1.117042
  0O   2dxz       0.000005 -0.000144 -0.452660  0.391569  0.000011 -0.000005
  0O   2dyz      -0.000004  0.000106  0.319877  0.554058  0.000017  0.000004
  0O   2dx2y2    -0.000405 -0.169915  0.000054 -0.000035  1.140920 -0.090682
  0O   2dxy       0.001304  0.479595 -0.000152 -0.000018  0.404040  0.256874
  0O   1f0        0.000000  0.000000  0.000001  0.004028 -0.000001  0.000000
  0O   1f+1      -0.003005  0.002337 -0.000004  0.000004 -0.043692  0.021044
  0O   1f-1      -0.004242  0.003301 -0.000005 -0.000003  0.030863  0.029791
  0O   1f+2      -0.000002  0.000003  0.008619 -0.004071 -0.000000 -0.000000
  0O   1f-2      -0.000001  0.000001  0.003053  0.011491  0.000001 -0.000000
  0O   1f+3      -0.010586  0.007066 -0.000010  0.000001 -0.010914  0.052036
  0O   1f-3       0.002983 -0.001991  0.000002  0.000003 -0.038657 -0.014679
  1H   1s         0.022979 -0.035696  0.000036 -0.000020  0.376261 -0.345353
  1H   2s        -0.939834  0.573222 -0.000323  0.000065 -2.181272  2.081755
  1H   3s        -0.987165  0.047666 -0.000035  0.000011  0.538007 -0.191692
  1H   1pz        0.000031 -0.000118 -0.416285  0.374884 -0.000009 -0.000007
  1H   1px        0.085206 -0.075052  0.000087 -0.000049  0.379281 -0.258791
  1H   1py        0.020777  0.419011 -0.000134  0.000011  0.235340  0.012718
  2H   1s         0.022958 -0.035674  0.000036  0.000021 -0.376040 -0.345497
  2H   2s        -0.939715  0.573048 -0.000326 -0.000072  2.180350  2.082711
  2H   3s        -0.986854  0.047692 -0.000036 -0.000011 -0.537883 -0.191909
  2H   1pz       -0.000031  0.000126  0.416318  0.374891 -0.000009  0.000007
  2H   1px       -0.008863  0.420029 -0.000150 -0.000030 -0.095255  0.098309
  2H   1py        0.087167  0.069215  0.000039  0.000043 -0.435949 -0.239804
                     18        19        20        21        22        23   
                   1.71024   1.92442   2.00221   2.04366   2.22924   2.30373
                   0.00000   0.00000   0.00000   0.00000   0.00000   0.00000
                  --------  --------  --------  --------  --------  --------
  0O   1s        -0.000001  0.014687 -0.000000 -0.000001 -0.000007  0.017692
  0O   2s        -0.000002  0.061955 -0.000001 -0.000004 -0.000021  0.064590
  0O   3s         0.000019 -0.788910  0.000006  0.000079  0.000087 -0.577529
  0O   4s        -0.000034  2.502362 -0.000016 -0.000338 -0.000064  1.261022
  0O   5s        -0.000029 -0.140616 -0.000003  0.000138  0.000160  0.564807
  0O   1pz        0.000011 -0.000001 -0.356001  0.000003 -0.000163 -0.000008
  0O   1px        0.135318 -0.248562  0.000018  0.000072 -0.387530  0.295118
  0O   1py       -0.095619 -0.351729 -0.000009  0.000097  0.274010  0.417427
  0O   2pz       -0.000010  0.000000  0.214383 -0.000028  0.000183  0.000010
  0O   2px       -0.202970  0.773987 -0.000197 -0.000141  1.734822 -0.034275
  0O   2py        0.143424  1.095233  0.000128 -0.000189 -1.226068 -0.048211
  0O   3pz       -0.000014 -0.000003 -0.503243 -0.000009 -0.000087 -0.000006
  0O   3px        0.316757 -0.039006 -0.000016  0.000058 -0.380387  0.496462
  0O   3py       -0.223867 -0.055161  0.000007  0.000076  0.268922  0.702326
  0O   1dz2      -0.000001  0.003611  0.000000 -0.000000  0.000006 -0.002135
  0O   1dxz      -0.000000 -0.000002  0.004310 -0.009242  0.000000  0.000000
  0O   1dyz      -0.000000  0.000001  0.006096  0.006532  0.000000 -0.000000
  0O   1dx2y2     0.010003 -0.000240  0.000003 -0.000000 -0.036329 -0.001447
  0O   1dxy       0.003542  0.000665  0.000001  0.000001 -0.012862  0.004076
  0O   2dz2      -0.000003  0.142560  0.000000 -0.000083 -0.000026 -0.203159
  0O   2dxz      -0.000033  0.000199 -0.502622  0.871399 -0.000025 -0.000031
  0O   2dyz      -0.000028 -0.000147 -0.711193 -0.615874 -0.000038  0.000018
  0O   2dx2y2    -0.397344  0.061831 -0.000029 -0.000021  0.071202 -0.325423
  0O   2dxy      -0.140714 -0.174653 -0.000019  0.000049  0.025281  0.919022
  0O   1f0        0.000001  0.000000 -0.006399  0.000004 -0.000003 -0.000000
  0O   1f+1       0.013377 -0.038420  0.000012  0.000006 -0.092500 -0.013710
  0O   1f-1      -0.009453 -0.054363 -0.000008  0.000008  0.065365 -0.019411
  0O   1f+2      -0.000001  0.000002  0.004713 -0.006347  0.000001  0.000002
  0O   1f-2       0.000001  0.000001 -0.013288 -0.002247 -0.000002  0.000001
  0O   1f+3       0.004529 -0.134173  0.000003  0.000023 -0.017924 -0.066908
  0O   1f-3       0.016052  0.037828  0.000009 -0.000007 -0.063536  0.018871
  1H   1s        -0.106596  0.666197 -0.000043 -0.000158  0.519991  0.218924
  1H   2s         0.390382 -1.886872  0.000225  0.000284 -1.829636 -1.005287
  1H   3s        -0.349967  0.505496 -0.000033 -0.000116  0.832559  0.030474
  1H   1pz        0.000019 -0.000148  0.747601 -0.760280  0.000051  0.000039
  1H   1px       -0.134480  0.767540 -0.000159 -0.000082  1.014218  0.458316
  1H   1py        0.766076  0.152624 -0.000024 -0.000039  0.118763 -0.698339
  2H   1s         0.106575  0.666151  0.000033 -0.000155 -0.520000  0.219083
  2H   2s        -0.390313 -1.886911 -0.000195  0.000272  1.829575 -1.005523
  2H   3s         0.349966  0.505505  0.000027 -0.000108 -0.832658  0.030698
  2H   1pz        0.000010  0.000156  0.747545  0.760356  0.000054 -0.000033
  2H   1px       -0.767019 -0.112392 -0.000018 -0.000023  0.226520 -0.811282
  2H   1py       -0.129027  0.774440  0.000151 -0.000090 -0.995528  0.198912
                     24        25        26        27        28        29   
                   2.49673   2.51948   2.52997   2.69024   3.56529   3.83136
                   0.00000   0.00000   0.00000   0.00000   0.00000   0.00000
                  --------  --------  --------  --------  --------  --------
  0O   1s        -0.000027 -0.000003  0.033474  0.116217 -0.053244  0.000001
  0O   2s        -0.000078 -0.000009  0.092310  0.380703 -0.213944  0.000002
  0O   3s         0.000226  0.000008 -0.143223 -2.266459  2.379561  0.000058
  0O   4s         0.000297  0.000107 -0.917270  2.704322 -5.352034 -0.000294
  0O   5s         0.000896  0.000132 -1.297422 -3.114480  0.440339 -0.000135
  0O   1pz       -0.000644  1.149126  0.000120 -0.000002 -0.000000  0.000020
  0O   1px        0.744107  0.000429 -0.451480  0.246007  0.293381 -0.558392
  0O   1py       -0.525367 -0.000197 -0.639769  0.348007  0.415042  0.394619
  0O   2pz        0.000920 -1.677468 -0.000176  0.000004  0.000000 -0.000039
  0O   2px        0.099706  0.000167  0.114366 -0.708285 -1.441326  2.616583
  0O   2py       -0.070517 -0.000149  0.161407 -1.002271 -2.039309 -1.849336
  0O   3pz       -0.000317  0.562060  0.000058 -0.000001 -0.000000  0.000018
  0O   3px        0.862251  0.000480 -0.366557 -0.251150 -0.002485 -0.095447
  0O   3py       -0.608932 -0.000253 -0.519729 -0.355482 -0.003546  0.067374
  0O   1dz2       0.000013  0.000002 -0.019108  0.001000 -0.037751  0.000000
  0O   1dxz      -0.000001  0.002518 -0.000000 -0.000001  0.000002 -0.000001
  0O   1dyz      -0.000002  0.003567  0.000001  0.000001 -0.000001 -0.000001
  0O   1dx2y2    -0.038523 -0.000024  0.002160  0.002141  0.014533 -0.038605
  0O   1dxy      -0.013639 -0.000008 -0.006178 -0.006047 -0.041043 -0.013678
  0O   2dz2      -0.000291 -0.000047  0.446861  0.434085  0.971647  0.000084
  0O   2dxz       0.000075 -0.164013  0.000003 -0.000003  0.000015 -0.000005
  0O   2dyz       0.000107 -0.232074 -0.000042  0.000004 -0.000010 -0.000007
  0O   2dx2y2     0.827964  0.000464 -0.260531  0.075369 -0.067955  1.602101
  0O   2dxy       0.292686  0.000081  0.737138 -0.212765  0.191677  0.567441
  0O   1f0        0.000008 -0.018021 -0.000002  0.000000  0.000000 -0.000007
  0O   1f+1      -0.054488 -0.000045  0.031440  0.005433 -0.058074  0.238708
  0O   1f-1       0.038467  0.000025  0.044579  0.007705 -0.082161 -0.168711
  0O   1f+2      -0.000002  0.003267  0.000000  0.000000 -0.000008  0.000002
  0O   1f-2       0.000005 -0.009219 -0.000001  0.000000 -0.000003 -0.000007
  0O   1f+3      -0.010915 -0.000016  0.072872  0.043586 -0.136724  0.027231
  0O   1f-3      -0.038569 -0.000025 -0.020578 -0.012295  0.038547  0.096614
  1H   1s        -0.144737 -0.000003  0.086614  0.090920  0.708028 -0.940750
  1H   2s        -1.160412 -0.000938  1.129300  0.960967  1.713449 -1.550956
  1H   3s        -0.332768 -0.000118  0.125850  0.359167 -0.360408  0.404440
  1H   1pz       -0.000161  0.356441  0.000013 -0.000003 -0.000020  0.000011
  1H   1px        1.050481  0.000746 -0.904729 -0.558283 -1.390975  1.316318
  1H   1py       -0.028597  0.000035 -0.502326  0.300778  0.138019  0.179282
  2H   1s         0.144590 -0.000013  0.086675  0.090844  0.707978  0.940862
  2H   2s         1.159142  0.000697  1.131062  0.961213  1.713396  1.551371
  2H   3s         0.332568  0.000093  0.126079  0.359165 -0.360394 -0.404467
  2H   1pz       -0.000163  0.356431  0.000068 -0.000001  0.000019  0.000011
  2H   1px        0.377928  0.000246 -0.170979  0.469956  0.594479  0.270560
  2H   1py       -0.979422 -0.000501 -1.021859 -0.425960 -1.264991 -1.300844
                     30        31        32        33        34        35   
                   5.00147   5.10516   5.27506   5.30240   5.35407   5.91063
                   0.00000   0.00000   0.00000   0.00000   0.00000   0.00000
                  --------  --------  --------  --------  --------  --------
  0O   1s         0.000000 -0.000194  0.000000 -0.000000 -0.000000 -0.000003
  0O   2s         0.000000 -0.001821  0.000000 -0.000000 -0.000001 -0.000011
  0O   3s        -0.000000  0.047188 -0.000000  0.000005  0.000006  0.000135
  0O   4s         0.000000 -0.129282  0.000001 -0.000017 -0.000002 -0.000264
  0O   5s        -0.000000 -0.181410  0.000000  0.000017  0.000021  0.000044
  0O   1pz       -0.004159 -0.000000  0.061607  0.000032 -0.000002 -0.000003
  0O   1px        0.000004  0.027310  0.000001  0.000000  0.094603  0.224444
  0O   1py       -0.000003  0.038647 -0.000001 -0.000001 -0.066848 -0.158576
  0O   2pz        0.011652 -0.000000 -0.165220 -0.000088  0.000004  0.000008
  0O   2px       -0.000020 -0.110154 -0.000002 -0.000004 -0.459595 -1.306341
  0O   2py        0.000014 -0.155897  0.000002  0.000001  0.324781  0.923028
  0O   3pz        0.005020 -0.000000 -0.071037 -0.000032  0.000002 -0.000002
  0O   3px        0.000003 -0.064738 -0.000005  0.000003 -0.122246  0.159723
  0O   3py       -0.000002 -0.091613  0.000004  0.000006  0.086401 -0.112851
  0O   1dz2      -0.000000  0.043705 -0.000000 -0.000005  0.000007  0.000097
  0O   1dxz      -0.006111  0.000006 -0.113907  0.227832  0.000002  0.000003
  0O   1dyz      -0.008645 -0.000004 -0.160975 -0.161115  0.000006  0.000005
  0O   1dx2y2    -0.000001  0.054541 -0.000006  0.000000  0.004915 -0.708399
  0O   1dxy      -0.000000 -0.153983 -0.000002 -0.000000  0.001734 -0.250835
  0O   2dz2      -0.000000  0.028383 -0.000000  0.000000 -0.000005  0.000004
  0O   2dxz       0.018434  0.000002 -0.041378  0.057916  0.000000  0.000001
  0O   2dyz       0.026082 -0.000002 -0.058490 -0.040976  0.000001  0.000001
  0O   2dx2y2    -0.000011  0.023495 -0.000001 -0.000002 -0.217682 -0.476175
  0O   2dxy      -0.000004 -0.066309 -0.000000  0.000002 -0.077107 -0.168657
  0O   1f0        0.258160  0.000001  0.988317  0.000464 -0.000027 -0.000011
  0O   1f+1      -0.000002  0.508653  0.000021 -0.000015  0.475949  0.516025
  0O   1f-1       0.000001  0.719764 -0.000016 -0.000028 -0.336338 -0.364595
  0O   1f+2       0.322512  0.000027 -0.090398  0.958174 -0.000002 -0.000000
  0O   1f-2      -0.910587  0.000010  0.253810  0.339500 -0.000015  0.000000
  0O   1f+3       0.000002 -0.456685 -0.000005  0.000001 -0.240286  0.127248
  0O   1f-3       0.000007  0.128772 -0.000018 -0.000007 -0.852225  0.450913
  1H   1s         0.000008  0.010929  0.000009 -0.000006  0.143356  0.637120
  1H   2s         0.000010  0.176540 -0.000007  0.000008  0.320504  0.564467
  1H   3s        -0.000004  0.000100  0.000007 -0.000005 -0.025261 -0.161963
  1H   1pz       -0.019201 -0.000009  0.268792 -0.265235 -0.000005 -0.000007
  1H   1px       -0.000010 -0.074486 -0.000000 -0.000002 -0.190422 -0.754314
  1H   1py        0.000002  0.177726 -0.000009 -0.000006 -0.312539  0.005937
  2H   1s        -0.000008  0.010936 -0.000009 -0.000008 -0.143358 -0.636992
  2H   2s        -0.000010  0.176568  0.000006  0.000003 -0.320527 -0.564397
  2H   3s         0.000004  0.000097 -0.000007 -0.000004  0.025257  0.161948
  2H   1pz       -0.019197  0.000009  0.268548  0.265498 -0.000010 -0.000007
  2H   1px       -0.000005  0.192401  0.000007 -0.000002  0.231051 -0.257379
  2H   1py        0.000009 -0.010894  0.000003 -0.000001  0.283843  0.708899
                     36        37        38        39        40        41   
                   6.08629   6.18531   6.24587   6.30520   6.77223   6.87995
                   0.00000   0.00000   0.00000   0.00000   0.00000   0.00000
                  --------  --------  --------  --------  --------  --------
  0O   1s         0.015469  0.000000 -0.000001  0.004315  0.023543  0.000003
  0O   2s         0.052788  0.000000 -0.000003  0.016759  0.081761  0.000013
  0O   3s        -0.748723  0.000000  0.000040 -0.282202 -1.275900 -0.000223
  0O   4s         1.818575 -0.000000 -0.000093  0.690591  3.005185  0.000590
  0O   5s        -0.417661 -0.000001 -0.000000  0.349695  0.596260  0.000123
  0O   1pz        0.000000  0.027063 -0.000001  0.000000 -0.000000 -0.000003
  0O   1px       -0.079082  0.000000  0.000005 -0.055461 -0.149373  0.305661
  0O   1py       -0.111955 -0.000000  0.000008 -0.078476 -0.211294 -0.216060
  0O   2pz        0.000000 -0.107052 -0.000001 -0.000000  0.000000  0.000007
  0O   2px        0.478232 -0.000000 -0.000031  0.315795  0.921794 -1.704302
  0O   2py        0.677099 -0.000000 -0.000045  0.446875  1.304083  1.204806
  0O   3pz        0.000000 -0.048655 -0.000001 -0.000000 -0.000000 -0.000003
  0O   3px       -0.094572 -0.000004 -0.000003  0.119604  0.140559 -0.242851
  0O   3py       -0.133889  0.000002 -0.000004  0.169227  0.198796  0.171688
  0O   1dz2      -0.918817 -0.000001 -0.000003  0.514456  0.560037  0.000070
  0O   1dxz      -0.000030  0.669535 -0.939502 -0.000065  0.000009 -0.000005
  0O   1dyz       0.000021  0.947478  0.663897  0.000048 -0.000006 -0.000006
  0O   1dx2y2     0.119144  0.000008 -0.000029  0.352884 -0.140840  0.925673
  0O   1dxy      -0.336806  0.000005  0.000083 -0.996479  0.397114  0.327881
  0O   2dz2       0.147532  0.000001  0.000019 -0.479900 -1.110164 -0.000192
  0O   2dxz       0.000016 -0.406738  0.628660  0.000042 -0.000009  0.000004
  0O   2dyz      -0.000011 -0.575595 -0.444251 -0.000031  0.000007  0.000005
  0O   2dx2y2    -0.026203 -0.000007  0.000020 -0.244434  0.219637 -1.821756
  0O   2dxy       0.073843 -0.000004 -0.000056  0.690212 -0.619426 -0.645303
  0O   1f0       -0.000000  0.215749  0.000004  0.000001 -0.000000 -0.000004
  0O   1f+1      -0.166866  0.000002  0.000011 -0.133946 -0.264146  0.526065
  0O   1f-1      -0.236254 -0.000002  0.000016 -0.189529 -0.373656 -0.371877
  0O   1f+2       0.000000 -0.017106  0.297093  0.000017 -0.000008 -0.000000
  0O   1f-2       0.000000  0.048320  0.105227  0.000006 -0.000003  0.000001
  0O   1f+3      -0.491499  0.000001  0.000007 -0.042814 -0.928512  0.129154
  0O   1f-3       0.138630  0.000002 -0.000002  0.012079  0.261735  0.458684
  1H   1s        -0.439416  0.000003  0.000016 -0.151947 -0.842868  0.928850
  1H   2s        -0.237204  0.000002  0.000031 -0.456201 -1.247205  1.203115
  1H   3s         0.080540  0.000002 -0.000004  0.015267  0.095269 -0.173428
  1H   1pz       -0.000001  0.184011 -0.229651 -0.000013  0.000007 -0.000003
  1H   1px        0.512819  0.000000 -0.000028  0.267358  0.942613 -0.864520
  1H   1py       -0.003098  0.000001  0.000022 -0.272066  0.145385  0.005141
  2H   1s        -0.439606 -0.000003  0.000016 -0.151954 -0.842713 -0.929190
  2H   2s        -0.237339 -0.000001  0.000031 -0.456201 -1.246983 -1.203620
  2H   3s         0.080589 -0.000002 -0.000004  0.015271  0.095262  0.173466
  2H   1pz        0.000001  0.184027  0.229652  0.000014 -0.000007 -0.000003
  2H   1px       -0.174191 -0.000000  0.000030 -0.345725 -0.177588 -0.293566
  2H   1py        0.482556 -0.000001 -0.000020  0.161195  0.936921  0.813531
                     42   
                  42.81932
                   0.00000
                  --------
  0O   1s         1.390153
  0O   2s        -1.696986
  0O   3s         1.596663
  0O   4s        -1.790623
  0O   5s         0.722109
  0O   1pz       -0.000000
  0O   1px        0.022482
  0O   1py        0.031811
  0O   2pz        0.000000
  0O   2px       -0.143654
  0O   2py       -0.203276
  0O   3pz       -0.000000
  0O   3px        0.039561
  0O   3py        0.055984
  0O   1dz2      -0.009502
  0O   1dxz      -0.000000
  0O   1dyz       0.000000
  0O   1dx2y2     0.001320
  0O   1dxy      -0.003723
  0O   2dz2       0.099840
  0O   2dxz       0.000000
  0O   2dyz      -0.000000
  0O   2dx2y2    -0.013938
  0O   2dxy       0.039348
  0O   1f0        0.000000
  0O   1f+1       0.015630
  0O   1f-1       0.022117
  0O   1f+2       0.000000
  0O   1f-2       0.000000
  0O   1f+3       0.049913
  0O   1f-3      -0.014073
  1H   1s         0.095712
  1H   2s         0.169590
  1H   3s        -0.156218
  1H   1pz       -0.000000
  1H   1px       -0.131160
  1H   1py       -0.006115
  2H   1s         0.095716
  2H   2s         0.169589
  2H   3s        -0.156225
  2H   1pz        0.000000
  2H   1px        0.038022
  2H   1py       -0.125671



                    ********************************
                    * MULLIKEN POPULATION ANALYSIS *
                    ********************************

-----------------------
MULLIKEN ATOMIC CHARGES
-----------------------
   0 O :   -0.672134
   1 H :    0.336053
   2 H :    0.336081
Sum of atomic charges:   -0.0000000

--------------------------------
MULLIKEN REDUCED ORBITAL CHARGES
--------------------------------
  0 O s       :     3.809485  s :     3.809485
      pz      :     1.965678  p :     4.842942
      px      :     1.386538
      py      :     1.490726
      dz2     :     0.003988  d :     0.018486
      dxz     :     0.000725
      dyz     :     0.001451
      dx2y2   :     0.010573
      dxy     :     0.001749
      f0      :     0.000123  f :     0.001220
      f+1     :     0.000378
      f-1     :     0.000324
      f+2     :     0.000001
      f-2     :     0.000009
      f+3     :     0.000363
      f-3     :     0.000022
  1 H s       :     0.617155  s :     0.617155
      pz      :     0.016007  p :     0.046792
      px      :     0.019729
      py      :     0.011057
  2 H s       :     0.617127  s :     0.617127
      pz      :     0.016006  p :     0.046792
      px      :     0.011492
      py      :     0.019294


                     *******************************
                     * LOEWDIN POPULATION ANALYSIS *
                     *******************************

----------------------
LOEWDIN ATOMIC CHARGES
----------------------
   0 O :   -0.331549
   1 H :    0.165777
   2 H :    0.165772

-------------------------------
LOEWDIN REDUCED ORBITAL CHARGES
-------------------------------
  0 O s       :     3.463250  s :     3.463250
      pz      :     1.906833  p :     4.836069
      px      :     1.411668
      py      :     1.517568
      dz2     :     0.005989  d :     0.029741
      dxz     :     0.000232
      dyz     :     0.000464
      dx2y2   :     0.020352
      dxy     :     0.002704
      f0      :     0.000000  f :     0.002489
      f+1     :     0.000621
      f-1     :     0.000478
      f+2     :     0.000000
      f-2     :     0.000000
      f+3     :     0.001032
      f-3     :     0.000358
  1 H s       :     0.675589  s :     0.675589
      pz      :     0.046234  p :     0.158634
      px      :     0.081666
      py      :     0.030734
  2 H s       :     0.675586  s :     0.675586
      pz      :     0.046237  p :     0.158642
      px      :     0.030769
      py      :     0.081636


                      *****************************
                      * MAYER POPULATION ANALYSIS *
                      *****************************

  NA   - Mulliken gross atomic population
  ZA   - Total nuclear charge
  QA   - Mulliken gross atomic charge
  VA   - Mayer's total valence
  BVA  - Mayer's bonded valence
  FA   - Mayer's free valence

  ATOM       NA         ZA         QA         VA         BVA        FA
  0 O      8.6721     8.0000    -0.6721     1.7956     1.7956    -0.0000
  1 H      0.6639     1.0000     0.3361     0.9020     0.9020    -0.0000
  2 H      0.6639     1.0000     0.3361     0.9019     0.9019     0.0000

  Mayer bond orders larger than 0.100000
B(  0-O ,  1-H ) :   0.8978 B(  0-O ,  2-H ) :   0.8978 

-------
TIMINGS
-------

Total SCF time: 0 days 0 hours 0 min 4 sec 

Total time                  ....       4.373 sec
Sum of individual times     ....       4.187 sec  ( 95.8%)

Fock matrix formation       ....       3.727 sec  ( 85.2%)
  Split-RI-J                ....       1.173 sec  ( 31.5% of F)
  XC integration            ....       0.100 sec  (  2.7% of F)
    Basis function eval.    ....       0.020 sec  ( 20.1% of XC)
    Density eval.           ....       0.021 sec  ( 21.2% of XC)
    XC-Functional eval.     ....       0.008 sec  (  8.1% of XC)
    XC-Potential eval.      ....       0.020 sec  ( 19.5% of XC)
Diagonalization             ....       0.003 sec  (  0.1%)
Density matrix formation    ....       0.021 sec  (  0.5%)
Population analysis         ....       0.010 sec  (  0.2%)
Initial guess               ....       0.110 sec  (  2.5%)
Orbital Transformation      ....       0.000 sec  (  0.0%)
Orbital Orthonormalization  ....       0.000 sec  (  0.0%)
DIIS solution               ....       0.004 sec  (  0.1%)
SOSCF solution              ....       0.039 sec  (  0.9%)
Grid generation             ....       0.274 sec  (  6.3%)


-------------------------------------------------------------------------------
                          DFT DISPERSION CORRECTION                            
                                                                               
                                 DFTD4 V2.0                                    
-------------------------------------------------------------------------------
The BLYP functional is recognized
Active option DFTDOPT                   ...         5   

-------------------------   ----------------
Dispersion correction           -0.000474312
-------------------------   ----------------


-------------------------   --------------------
FINAL SINGLE POINT ENERGY       -76.453716217563
-------------------------   --------------------



           ************************************************************
           *        Program running with 11 parallel MPI-processes    *
           *              working on a common directory               *
           ************************************************************
------------------------------------------------------------------------------
                         ORCA SCF GRADIENT CALCULATION
------------------------------------------------------------------------------

Gradient of the Kohn-Sham DFT energy:
Kohn-Sham wavefunction type      ... RKS
Hartree-Fock exchange scaling    ...    0.000
Number of operators              ...    1
Number of atoms                  ...    3
Basis set dimensions             ...   43
Integral neglect threshold       ... 2.5e-11
Integral primitive cutoff        ... 2.5e-12

Nuclear repulsion gradient       ... done
One Electron Gradient            ... done
Pre-screening matrix             ... done
RI-J gradient                    ... done
Exchange-correlation gradient    ... done
Dispersion correction            ... 

------------------- 
Dispersion Gradient 
------------------- 
   1  :    0.000078573    0.000111189    0.000000000
   2  :   -0.000085567   -0.000025060    0.000000000
   3  :    0.000004945   -0.000089027    0.000000000

  |G| =    0.000394361

done

------------------
CARTESIAN GRADIENT
------------------

   1   O   :    0.007055265    0.009995794   -0.000000009
   2   H   :   -0.010822437    0.000164805    0.000053621
   3   H   :    0.003765122   -0.010163498   -0.000053612

Difference to translation invariance:
           :   -0.0000020493   -0.0000028982   -0.0000000000

Norm of the cartesian gradient     ...    0.0196041718
RMS gradient                       ...    0.0065347239
MAX gradient                       ...    0.0108224369

-------
TIMINGS
-------

Total SCF gradient time            ...        0.445 sec

One electron gradient       ....       0.002 sec  (  0.4%)
Prescreening matrices       ....       0.009 sec  (  2.1%)
RI-J Coulomb gradient       ....       0.105 sec  ( 23.6%)
XC gradient                 ....       0.057 sec  ( 12.9%)
CPCM gradient               ....       0.061 sec  ( 13.6%)
   A-Matrix (El+Nuc)        ....       0.003 sec  (  0.7%)
   Potential                ....       0.057 sec  ( 12.9%)
------------------------------------------------------------------------------
                         ORCA GEOMETRY RELAXATION STEP
------------------------------------------------------------------------------

Reading the OPT-File                    .... done
Getting information on internals        .... done
Copying old internal coords+grads       .... done
Making the new internal coordinates     .... (new redundants).... done
Validating the new internal coordinates .... (new redundants).... done
Calculating the B-matrix                .... done
Calculating the G,G- and P matrices     .... done
Transforming gradient to internals      .... done
Projecting the internal gradient        .... done
Number of atoms                         ....   3
Number of internal coordinates          ....   3
Current Energy                          ....   -76.453716218 Eh
Current gradient norm                   ....     0.019604172 Eh/bohr
Maximum allowed component of the step   ....  0.300
Current trust radius                    ....  0.200
Evaluating the initial hessian          ....  (read) 
(Reading Exact Hessian)...  
InHessName: freq.hess	The file <freq.hess> is opened as a .hess file
done
done
Diagonalizing the Hessian               .... done
Dimension of the hessian                .... 3
Lowest eigenvalues of the non projected Hessian:
  0.139474788  0.452045306  0.474329785
done
Projecting the Hessian                  .... done
Forming the augmented Hessian           .... done
Diagonalizing the augmented Hessian     .... done
Last element of RFO vector              ....  0.999470647
Lowest eigenvalues of augmented Hessian:
 -0.000497114  0.139477288  0.452045309
Length of the computed step             ....  0.032550685
The final length of the internal step   ....  0.032550685
Converting the step to cartesian space:
 Initial RMS(Int)=    0.0187931466
Transforming coordinates:
 Iter   0:  RMS(Cart)=    0.0093233456 RMS(Int)=    0.0187931420
 Iter   1:  RMS(Cart)=    0.0000014664 RMS(Int)=    0.0000025330
 Iter   2:  RMS(Cart)=    0.0000000184 RMS(Int)=    0.0000000316
done
Storing new coordinates                 .... done

                                .--------------------.
          ----------------------|Geometry convergence|-------------------------
          Item                value                   Tolerance       Converged
          ---------------------------------------------------------------------
          RMS gradient        0.0088544654            0.0001000000      NO
          MAX gradient        0.0108150516            0.0003000000      NO
          RMS step            0.0187931466            0.0020000000      NO
          MAX step            0.0230254449            0.0040000000      NO
          ........................................................
          Max(Bonds)      0.0122      Max(Angles)    0.02
          Max(Dihed)        0.00      Max(Improp)    0.00
          ---------------------------------------------------------------------

The optimization has not yet converged - more geometry cycles are needed


    ---------------------------------------------------------------------------
                         Redundant Internal Coordinates
                            (Angstroem and degrees)

        Definition                    Value    dE/dq     Step     New-Value
    ----------------------------------------------------------------------------
     1. B(H   1,O   0)                0.9644 -0.010803  0.0122    0.9766   
     2. B(H   2,O   0)                0.9644 -0.010815  0.0122    0.9766   
     3. A(H   1,O   0,H   2)          104.03 -0.001237   -0.02    104.00   
    ----------------------------------------------------------------------------

         *************************************************************
         *                GEOMETRY OPTIMIZATION CYCLE   2            *
         *************************************************************
---------------------------------
CARTESIAN COORDINATES (ANGSTROEM)
---------------------------------
  O      0.806712    0.127072    0.000000
  H      1.782195    0.173912    0.000000
  H      0.525194    1.062216    0.000000

----------------------------
CARTESIAN COORDINATES (A.U.)
----------------------------
  NO LB      ZA    FRAG     MASS         X           Y           Z
   0 O     8.0000    0    15.999    1.524464    0.240131    0.000000
   1 H     1.0000    0     1.008    3.367860    0.328646    0.000000
   2 H     1.0000    0     1.008    0.992472    2.007298    0.000000

--------------------------------
INTERNAL COORDINATES (ANGSTROEM)
--------------------------------
 O      0   0   0     0.000000000000     0.00000000     0.00000000
 H      1   0   0     0.976607200557     0.00000000     0.00000000
 H      1   2   0     0.976600210320   104.00491589     0.00000000

---------------------------
INTERNAL COORDINATES (A.U.)
---------------------------
 O      0   0   0     0.000000000000     0.00000000     0.00000000
 H      1   0   0     1.845520149468     0.00000000     0.00000000
 H      1   2   0     1.845506939834   104.00491589     0.00000000



           ************************************************************
           *        Program running with 11 parallel MPI-processes    *
           *              working on a common directory               *
           ************************************************************
 One Electron integrals                  ... done
 Pre-screening matrix                    ... done


           ************************************************************
           *        Program running with 11 parallel MPI-processes    *
           *              working on a common directory               *
           ************************************************************

Diagonalization of the overlap matrix:
Smallest eigenvalue                        ... 9.019e-03
Time for diagonalization                   ...    0.001 sec
Threshold for overlap eigenvalues          ... 1.000e-08
Number of eigenvalues below threshold      ... 0
Time for construction of square roots      ...    0.002 sec
Total time needed                          ...    0.003 sec

-------------------
DFT GRID GENERATION
-------------------

General Integration Accuracy     IntAcc      ...  4.670
Radial Grid Type                 RadialGrid  ... Gauss-Chebyshev
Angular Grid (max. acc.)         AngularGrid ... Lebedev-302
Angular grid pruning method      GridPruning ... 3 (G Style)
Weight generation scheme         WeightScheme... Becke
Basis function cutoff            BFCut       ...    1.0000e-11
Integration weight cutoff        WCut        ...    1.0000e-14
Grids for H and He will be reduced by one unit

# of grid points (after initial pruning)     ...  13000 (   0.0 sec)
# of grid points (after weights+screening)   ...  12882 (   0.0 sec)
nearest neighbour list constructed           ...    0.0 sec
Grid point re-assignment to atoms done       ...    0.0 sec
Grid point division into batches done        ...    0.0 sec
Reduced shell lists constructed in    0.1 sec

Total number of grid points                  ...    12882
Total number of batches                      ...      203
Average number of points per batch           ...       63
Average number of grid points per atom       ...     4294
Average number of shells per batch           ...    11.65 (61.32%)
Average number of basis functions per batch  ...    25.25 (58.72%)
Average number of large shells per batch     ...     9.30 (79.83%)
Average number of large basis fcns per batch ...    20.60 (81.58%)
Maximum spatial batch extension              ...  12.58, 12.72, 16.88 au
Average spatial batch extension              ...   0.64,  0.60,  0.73 au

Time for grid setup =    0.067 sec


--------------------
CPCM SOLVATION MODEL
--------------------
CPCM parameters:
  Epsilon                                         ...       8.9300
  Refrac                                          ...       1.0000
  Rsolv                                           ...       1.3000
  Surface type                                    ...    GEPOL SES
  Epsilon function type                           ...         CPCM
Solvent:                                     ... DICHLOROMETHANE
SMD-CDS solvent descriptors:
  Soln                                       ...    1.4242
  Soln25                                     ...    1.4212
  Sola                                       ...    0.1000
  Solb                                       ...    0.0500
  Solg                                       ...   39.1500
  Solc                                       ...    0.0000
  Solh                                       ...    0.6670
Radii:
 Radius for O  used is    3.9949 Bohr (=   2.1140 Ang.)
 Radius for H  used is    2.2677 Bohr (=   1.2000 Ang.)
Calculating surface                               ...        done! (  0.0s)
GEPOL surface points                              ...           76
GEPOL Volume                                      ...     267.5606
GEPOL Surface-area                                ...     200.8797
Calculating surface distance matrix               ...        done! (  0.0s)
Performing Cholesky decomposition & store         ...        done! (  0.0s)
Overall time for CPCM initialization              ...                 0.0s
--------------
SCF ITERATIONS
--------------
ITER       Energy         Delta-E        Max-DP      RMS-DP      [F,P]     Damp
               ***  Starting incremental Fock matrix formation  ***
  0    -76.4531016703   0.000000000000 0.00099727  0.00007288  0.0063861 0.7000
                      *** Initiating the SOSCF procedure ***
                      *** Re-Reading the Fockian *** 
                      *** Removing any level shift *** 
ITER      Energy       Delta-E        Grad      Rot      Max-DP    RMS-DP
  1    -76.45312866  -0.0000269944  0.000553  0.000553  0.002008  0.000181
               *** Restarting incremental Fock matrix formation ***
  2    -76.45317004  -0.0000413771  0.001513  0.002364  0.003637  0.000186
  3    -76.45314673   0.0000233072  0.002767  0.001450  0.002181  0.000124
  4    -76.45317927  -0.0000325356  0.000113  0.000099  0.000051  0.000006
  5    -76.45317931  -0.0000000409  0.000058  0.000032  0.000019  0.000002
                  ***Gradient check signals convergence***
              ***Rediagonalizing the Fockian in SOSCF/NRSCF***

               *****************************************************
               *                     SUCCESS                       *
               *           SCF CONVERGED AFTER   6 CYCLES          *
               *****************************************************

Setting up the final grid:

General Integration Accuracy     IntAcc      ...  5.010
Radial Grid Type                 RadialGrid  ... Gauss-Chebyshev
Angular Grid (max. acc.)         AngularGrid ... Lebedev-434
Angular grid pruning method      GridPruning ... 3 (G Style)
Weight generation scheme         WeightScheme... Becke
Basis function cutoff            BFCut       ...    1.0000e-11
Integration weight cutoff        WCut        ...    1.0000e-14
Grids for H and He will be reduced by one unit

# of grid points (after initial pruning)     ...  24226 (   0.0 sec)
# of grid points (after weights+screening)   ...  23992 (   0.0 sec)
nearest neighbour list constructed           ...    0.0 sec
Grid point re-assignment to atoms done       ...    0.0 sec
Grid point division into batches done        ...    0.2 sec
Reduced shell lists constructed in    0.2 sec

Total number of grid points                  ...    23992
Total number of batches                      ...      377
Average number of points per batch           ...       63
Average number of grid points per atom       ...     7997
[...]
  2H   3s        -0.153859
  2H   1pz        0.000000
  2H   1px        0.038976
  2H   1py       -0.128416



                    ********************************
                    * MULLIKEN POPULATION ANALYSIS *
                    ********************************

-----------------------
MULLIKEN ATOMIC CHARGES
-----------------------
   0 O :   -0.677710
   1 H :    0.338815
   2 H :    0.338896
Sum of atomic charges:   -0.0000000

--------------------------------
MULLIKEN REDUCED ORBITAL CHARGES
--------------------------------
  0 O s       :     3.815941  s :     3.815941
      pz      :     1.966809  p :     4.842059
      px      :     1.386219
      py      :     1.489031
      dz2     :     0.003991  d :     0.018524
      dxz     :     0.000709
      dyz     :     0.001419
      dx2y2   :     0.010679
      dxy     :     0.001726
      f0      :     0.000119  f :     0.001186
      f+1     :     0.000369
      f-1     :     0.000316
      f+2     :     0.000001
      f-2     :     0.000009
      f+3     :     0.000350
      f-3     :     0.000023
  1 H s       :     0.615817  s :     0.615817
      pz      :     0.015468  p :     0.045369
      px      :     0.019261
      py      :     0.010639
  2 H s       :     0.615739  s :     0.615739
      pz      :     0.015466  p :     0.045365
      px      :     0.011091
      py      :     0.018808


                     *******************************
                     * LOEWDIN POPULATION ANALYSIS *
                     *******************************

----------------------
LOEWDIN ATOMIC CHARGES
----------------------
   0 O :   -0.345079
   1 H :    0.172525
   2 H :    0.172554

-------------------------------
LOEWDIN REDUCED ORBITAL CHARGES
-------------------------------
  0 O s       :     3.476969  s :     3.476969
      pz      :     1.910887  p :     4.836459
      px      :     1.410249
      py      :     1.515322
      dz2     :     0.005932  d :     0.029284
      dxz     :     0.000237
      dyz     :     0.000475
      dx2y2   :     0.019991
      dxy     :     0.002649
      f0      :     0.000000  f :     0.002367
      f+1     :     0.000594
      f-1     :     0.000459
      f+2     :     0.000000
      f-2     :     0.000000
      f+3     :     0.000979
      f-3     :     0.000335
  1 H s       :     0.673644  s :     0.673644
      pz      :     0.044201  p :     0.153830
      px      :     0.080442
      py      :     0.029187
  2 H s       :     0.673615  s :     0.673615
      pz      :     0.044199  p :     0.153831
      px      :     0.029413
      py      :     0.080219


                      *****************************
                      * MAYER POPULATION ANALYSIS *
                      *****************************

  NA   - Mulliken gross atomic population
  ZA   - Total nuclear charge
  QA   - Mulliken gross atomic charge
  VA   - Mayer's total valence
  BVA  - Mayer's bonded valence
  FA   - Mayer's free valence

  ATOM       NA         ZA         QA         VA         BVA        FA
  0 O      8.6777     8.0000    -0.6777     1.7895     1.7895    -0.0000
  1 H      0.6612     1.0000     0.3388     0.8990     0.8990    -0.0000
  2 H      0.6611     1.0000     0.3389     0.8989     0.8989    -0.0000

  Mayer bond orders larger than 0.100000
B(  0-O ,  1-H ) :   0.8948 B(  0-O ,  2-H ) :   0.8947 

-------
TIMINGS
-------

Total SCF time: 0 days 0 hours 0 min 1 sec 

Total time                  ....       1.842 sec
Sum of individual times     ....       1.631 sec  ( 88.5%)

Fock matrix formation       ....       1.261 sec  ( 68.4%)
  Split-RI-J                ....       0.395 sec  ( 31.3% of F)
  XC integration            ....       0.049 sec  (  3.9% of F)
    Basis function eval.    ....       0.008 sec  ( 16.7% of XC)
    Density eval.           ....       0.009 sec  ( 17.5% of XC)
    XC-Functional eval.     ....       0.003 sec  (  6.8% of XC)
    XC-Potential eval.      ....       0.008 sec  ( 16.0% of XC)
Diagonalization             ....       0.000 sec  (  0.0%)
Density matrix formation    ....       0.047 sec  (  2.6%)
Population analysis         ....       0.014 sec  (  0.8%)
Initial guess               ....       0.002 sec  (  0.1%)
Orbital Transformation      ....       0.000 sec  (  0.0%)
Orbital Orthonormalization  ....       0.000 sec  (  0.0%)
DIIS solution               ....       0.000 sec  (  0.0%)
SOSCF solution              ....       0.026 sec  (  1.4%)
Grid generation             ....       0.280 sec  ( 15.2%)


-------------------------------------------------------------------------------
                          DFT DISPERSION CORRECTION                            
                                                                               
                                 DFTD4 V2.0                                    
-------------------------------------------------------------------------------
The BLYP functional is recognized
Active option DFTDOPT                   ...         5   

-------------------------   ----------------
Dispersion correction           -0.000478060
-------------------------   ----------------


-------------------------   --------------------
FINAL SINGLE POINT ENERGY       -76.453967174342
-------------------------   --------------------

                                *** OPTIMIZATION RUN DONE ***

                            ***************************************
                            *     ORCA property calculations      *
                            ***************************************

                                    ---------------------
                                    Active property flags
                                    ---------------------
   (+) Dipole Moment


------------------------------------------------------------------------------
                       ORCA ELECTRIC PROPERTIES CALCULATION
------------------------------------------------------------------------------

Dipole Moment Calculation                       ... on
Quadrupole Moment Calculation                   ... off
Polarizability Calculation                      ... off
GBWName                                         ... /tmp/slurm-scratch/opt+freq.127/opt+freq.gbw
Electron density file                           ... /tmp/slurm-scratch/opt+freq.127/opt+freq.scfp
The origin for moment calculation is the CENTER OF MASS  = ( 1.598134,  0.344370  0.000000)

-------------
DIPOLE MOMENT
-------------
                                X             Y             Z
Electronic contribution:     -0.05788      -0.08177      -0.00000
Nuclear contribution   :      0.57716       0.81672       0.00000
                        -----------------------------------------
Total Dipole Moment    :      0.51929       0.73494      -0.00000
                        -----------------------------------------
Magnitude (a.u.)       :      0.89989
Magnitude (Debye)      :      2.28734



--------------------
Rotational spectrum 
--------------------
 
Rotational constants in cm-1:    26.089578    14.139279     9.169732 
Rotational constants in MHz : 782145.873461 423884.917230 274901.637166 

 Dipole components along the rotational axes: 
x,y,z [a.u.] :     0.000070     0.899891    -0.000005 
x,y,z [Debye]:     0.000179     2.287341    -0.000012 

 


           ************************************************************
           *        Program running with 11 parallel MPI-processes    *
           *              working on a common directory               *
           ************************************************************

-------------------------------------------------------------------------------
                               ORCA SCF HESSIAN
-------------------------------------------------------------------------------

Hessian of the Kohn-Sham DFT energy:
Kohn-Sham wavefunction type                      ... RKS
Hartree-Fock exchange scaling                    ...    0.000
Number of operators                              ...    1
Number of atoms                                  ...    3
Basis set dimensions                             ...   43
Integral neglect threshold                       ... 2.5e-11
Integral primitive cutoff                        ... 2.5e-12

Setting up DFT Hessian calculations              ... 
Electron density on the grid                     ... found on disk
Electron density on the final grid               ... found on disk
Building xc-kernel on the grid                   ... done   (      0.0 sec)
Building xc-kernel on the final grid             ... done   (      0.0 sec)
                                                     done   (      0.1 sec)

Nuclear repulsion Hessian                        ... done   (      0.0 sec)

----------------------------------------------
Forming right-hand sides of CP-SCF equations     ...
----------------------------------------------
One electron integral derivatives                ... done   (      0.5 sec)
Transforming the overlap derivative matrices     ... done   (      0.0 sec)
Adding tr(S(x)F(y) C-PCM term to the hessian     ... done   (      0.2 sec)
Making the Q(x) pseudodensities                  ... done   (      0.0 sec)
Adding the E*S(x)*S(y) terms to the Hessian      ... done   (      0.0 sec)
Calculating energy weighted overlap derivatives  ... done   (      0.0 sec)
Two electron integral derivatives (RI)           ... done   (      0.2 sec)
Exchange-correlation integral derivatives        ... done   (      0.2 sec)
tr(F(y)Q(x)) contribution to the Hessian         ... done   (      0.0 sec)
Response fock operator R(S(x)) (RI)              ... done   (      0.2 sec)
XC Response fock operator R(S(x))                ... done   (      0.1 sec)
tr(F(y)S(x)) contribution to the Hessian         ... done   (      0.0 sec)
Transforming and finalizing RHSs                 ... done   (      0.0 sec)

----------------------------------------------
Solving the CP-SCF equations (RI)                ...
----------------------------------------------
     CP-SCF ITERATION   0: 
     CP-SCF ITERATION   1:      0.000761910526
     CP-SCF ITERATION   2:      0.000006587380
     CP-SCF ITERATION   3:      0.000000072743
     CP-SCF ITERATION   4:      0.000000001354

                                                 ... done   (      1.6 sec)
Forming perturbed density Hessian contributions  ... done   (      0.0 sec)
Making the perturbed densities                   ... done   (      0.0 sec)
Calculating [Q*(d^2 A/dXdY)*Q  ] C-PCM term      ... done   (      0.0 sec)
Calculating [d^2(V_N)/(dXdY)*Q ] C-PCM term      ... done   (      0.0 sec)
Calculating [d^2(V_el)/(dXdY)*Q] C-PCM term      ... done   (      0.1 sec)
Calculating C-PCM term that depends on dQ/dX     ... done   (      0.0 sec)
2nd integral derivative contribs (RI)            ... done   (      0.3 sec)
Exchange-correlation Hessian                     ... done   (      0.2 sec)
Dispersion correction in the Hessian             ... 

------------------- 
Dispersion Gradient 
------------------- 
   1  :    0.000076277    0.000107221    0.000000000
   2  :   -0.000083977   -0.000024293    0.000000000
   3  :    0.000005292   -0.000086738    0.000000000

  |G| =    0.000383798



------------------- 
Dispersion Gradient 
------------------- 
   1  :    0.000075306    0.000107288    0.000000000
   2  :   -0.000083020   -0.000024151    0.000000000
   3  :    0.000004797   -0.000086848    0.000000000

  |G| =    0.000381410

done   (      0.1 sec)
Dipol derivatives                                ... done   (      0.1 sec)

Total SCF Hessian time: 0 days 0 hours 0 min 4 sec 

Writing the Hessian file to the disk             ... done


Maximum memory used throughout the entire calculation: 181.3 MB

-----------------------
VIBRATIONAL FREQUENCIES
-----------------------

Scaling factor for frequencies =  1.000000000  (already applied!)

   0:         0.00 cm**-1
   1:         0.00 cm**-1
   2:         0.00 cm**-1
   3:         0.00 cm**-1
   4:         0.00 cm**-1
   5:         0.00 cm**-1
   6:      1555.42 cm**-1
   7:      3601.85 cm**-1
   8:      3686.62 cm**-1


------------
NORMAL MODES
------------

These modes are the Cartesian displacements weighted by the diagonal matrix
M(i,i)=1/sqrt(m[i]) where m[i] is the mass of the displaced atom
Thus, these vectors are normalized but *not* orthogonal

                  0          1          2          3          4          5    
      0       0.000000   0.000000   0.000000   0.000000   0.000000   0.000000
      1       0.000000   0.000000   0.000000   0.000000   0.000000   0.000000
      2       0.000000   0.000000   0.000000   0.000000   0.000000   0.000000
      3       0.000000   0.000000   0.000000   0.000000   0.000000   0.000000
      4       0.000000   0.000000   0.000000   0.000000   0.000000   0.000000
      5       0.000000   0.000000   0.000000   0.000000   0.000000   0.000000
      6       0.000000   0.000000   0.000000   0.000000   0.000000   0.000000
      7       0.000000   0.000000   0.000000   0.000000   0.000000   0.000000
      8       0.000000   0.000000   0.000000   0.000000   0.000000   0.000000
                   6          7          8    
      0       0.040890  -0.028447  -0.057313
      1       0.057863  -0.040709   0.040265
      2       0.000000   0.000000   0.000000
      3       0.023244   0.703401   0.707291
      4      -0.704946  -0.016470   0.033763
      5       0.000000   0.000000   0.000000
      6      -0.672253  -0.251886   0.202384
      7      -0.213464   0.662603  -0.672855
      8       0.000000   0.000000   0.000000


-----------
IR SPECTRUM
-----------

 Mode    freq (cm**-1)   T**2         TX         TY         TZ
-------------------------------------------------------------------
   6:      1555.42  104.164594  ( -5.883189  -8.339825   0.000765)
   7:      3601.85   12.385965  (  2.023908   2.879194   0.000124)
   8:      3686.62   79.294357  (  7.290413  -5.113144  -0.000296)

The first frequency considered to be a vibration is 6
The total number of vibrations considered is 3


--------------------------
THERMOCHEMISTRY AT 298.15K
--------------------------

Temperature         ... 298.15 K
Pressure            ... 1.00 atm
Total Mass          ... 18.02 AMU

Throughout the following assumptions are being made:
  (1) The electronic state is orbitally nondegenerate
  (2) There are no thermally accessible electronically excited states
  (3) Hindered rotations indicated by low frequency modes are not
      treated as such but are treated as vibrations and this may
      cause some error
  (4) All equations used are the standard statistical mechanics
      equations for an ideal gas
  (5) All vibrations are strictly harmonic

freq.    1555.42  E(vib)   ...       0.00 
freq.    3601.85  E(vib)   ...       0.00 
freq.    3686.62  E(vib)   ...       0.00 

------------
INNER ENERGY
------------

The inner energy is: U= E(el) + E(ZPE) + E(vib) + E(rot) + E(trans)
    E(el)   - is the total energy from the electronic structure calculation
              = E(kin-el) + E(nuc-el) + E(el-el) + E(nuc-nuc)
    E(ZPE)  - the the zero temperature vibrational energy from the frequency calculation
    E(vib)  - the the finite temperature correction to E(ZPE) due to population
              of excited vibrational states
    E(rot)  - is the rotational thermal energy
    E(trans)- is the translational thermal energy

Summary of contributions to the inner energy U:
Electronic energy                ...    -76.45396717 Eh
Zero point energy                ...      0.02014788 Eh      12.64 kcal/mol
Thermal vibrational correction   ...      0.00000390 Eh       0.00 kcal/mol
Thermal rotational correction    ...      0.00141627 Eh       0.89 kcal/mol
Thermal translational correction ...      0.00141627 Eh       0.89 kcal/mol
-----------------------------------------------------------------------
Total thermal energy                    -76.43098285 Eh


Summary of corrections to the electronic energy:
(perhaps to be used in another calculation)
Total thermal correction                  0.00283644 Eh       1.78 kcal/mol
Non-thermal (ZPE) correction              0.02014788 Eh      12.64 kcal/mol
-----------------------------------------------------------------------
Total correction                          0.02298432 Eh      14.42 kcal/mol


--------
ENTHALPY
--------

The enthalpy is H = U + kB*T
                kB is Boltzmann's constant
Total free energy                 ...    -76.43098285 Eh 
Thermal Enthalpy correction       ...      0.00094421 Eh       0.59 kcal/mol
-----------------------------------------------------------------------
Total Enthalpy                    ...    -76.43003864 Eh


Note: Rotational entropy computed according to Herzberg 
Infrared and Raman Spectra, Chapter V,1, Van Nostrand Reinhold, 1945 
Point Group:  Cs, Symmetry Number:   1  
Rotational constants in cm-1:    26.089578    14.139279     9.169732 

Vibrational entropy computed according to the QRRHO of S. Grimme
Chem.Eur.J. 2012 18 9955


-------
ENTROPY
-------

The entropy contributions are T*S = T*(S(el)+S(vib)+S(rot)+S(trans))
     S(el)   - electronic entropy
     S(vib)  - vibrational entropy
     S(rot)  - rotational entropy
     S(trans)- translational entropy
The entropies will be listed as mutliplied by the temperature to get
units of energy

Electronic entropy                ...      0.00000000 Eh      0.00 kcal/mol
Vibrational entropy               ...      0.00000442 Eh      0.00 kcal/mol
Rotational entropy                ...      0.00567441 Eh      3.56 kcal/mol
Translational entropy             ...      0.01644380 Eh     10.32 kcal/mol
-----------------------------------------------------------------------
Final entropy term                ...      0.02212264 Eh     13.88 kcal/mol

In case the symmetry of your molecule has not been determined correctly
or in case you have a reason to use a different symmetry number we print 
out the resulting rotational entropy values for sn=1,12 :
 --------------------------------------------------------
|  sn= 1 | S(rot)=       0.00567441 Eh      3.56 kcal/mol|
|  sn= 2 | S(rot)=       0.00501996 Eh      3.15 kcal/mol|
|  sn= 3 | S(rot)=       0.00463713 Eh      2.91 kcal/mol|
|  sn= 4 | S(rot)=       0.00436550 Eh      2.74 kcal/mol|
|  sn= 5 | S(rot)=       0.00415481 Eh      2.61 kcal/mol|
|  sn= 6 | S(rot)=       0.00398267 Eh      2.50 kcal/mol|
|  sn= 7 | S(rot)=       0.00383712 Eh      2.41 kcal/mol|
|  sn= 8 | S(rot)=       0.00371104 Eh      2.33 kcal/mol|
|  sn= 9 | S(rot)=       0.00359984 Eh      2.26 kcal/mol|
|  sn=10 | S(rot)=       0.00350036 Eh      2.20 kcal/mol|
|  sn=11 | S(rot)=       0.00341037 Eh      2.14 kcal/mol|
|  sn=12 | S(rot)=       0.00332821 Eh      2.09 kcal/mol|
 --------------------------------------------------------


-------------------
GIBBS FREE ENERGY
-------------------

The Gibbs free energy is G = H - T*S

Total enthalpy                    ...    -76.43003864 Eh 
Total entropy correction          ...     -0.02212264 Eh    -13.88 kcal/mol
-----------------------------------------------------------------------
Final Gibbs free energy         ...    -76.45216128 Eh

For completeness - the Gibbs free energy minus the electronic energy
G-E(el)                           ...      0.00180590 Eh      1.13 kcal/mol


Timings for individual modules:

Sum of individual times         ...       28.891 sec (=   0.482 min)
GTO integral calculation        ...        3.335 sec (=   0.056 min)  11.5 %
SCF iterations                  ...       16.248 sec (=   0.271 min)  56.2 %
SCF Gradient evaluation         ...        3.599 sec (=   0.060 min)  12.5 %
Geometry relaxation             ...        0.677 sec (=   0.011 min)   2.3 %
Analytical frequency calculation...        5.031 sec (=   0.084 min)  17.4 %
                             ****ORCA TERMINATED NORMALLY****
TOTAL RUN TIME: 0 days 0 hours 0 minutes 29 seconds 700 msec
