SLURM_JOB_ID=103

                                 *****************
                                 * O   R   C   A *
                                 *****************

           --- An Ab Initio, DFT and Semiempirical electronic structure package ---

                  #######################################################
                  #                        -***-                        #
                  #          Department of theory and spectroscopy      #
                  #               Directorship: Frank Neese             #
                  #        Max Planck Institute fuer Kohlenforschung    #
                  #                Kaiser Wilhelm Platz 1               #
                  #                 D-45470 Muelheim/Ruhr               #
                  #                      Germany                        #
                  #                                                     #
                  #                  All rights reserved                #
                  #                        -***-                        #
                  #######################################################


                         Program Version 4.2.1 -  RELEASE  -


 With contributions from (in alphabetic order):
   Daniel Aravena         : Magnetic Suceptibility
   Michael Atanasov       : Ab Initio Ligand Field Theory (pilot matlab implementation)
   Alexander A. Auer      : GIAO ZORA, VPT2
   Ute Becker             : Parallelization
   Giovanni Bistoni       : ED, misc. LED, open-shell LED, HFLD
   Martin Brehm           : Molecular dynamics
   Dmytro Bykov           : SCF Hessian
   Vijay G. Chilkuri      : MRCI spin determinant printing, contributions to CSF-ICE
   Dipayan Datta          : RHF DLPNO-CCSD density
   Achintya Kumar Dutta   : EOM-CC, STEOM-CC
   Dmitry Ganyushin       : Spin-Orbit,Spin-Spin,Magnetic field MRCI
   Miquel Garcia          : C-PCM Hessian, Gaussian charge scheme
   Yang Guo               : DLPNO-NEVPT2, CIM, IAO-localization
   Andreas Hansen         : Spin unrestricted coupled pair/coupled cluster methods
   Benjamin Helmich-Paris : CASSCF linear response (MC-RPA)
   Lee Huntington         : MR-EOM, pCC
   Robert Izsak           : Overlap fitted RIJCOSX, COSX-SCS-MP3, EOM
   Christian Kollmar      : KDIIS, OOCD, Brueckner-CCSD(T), CCSD density
   Simone Kossmann        : Meta GGA functionals, TD-DFT gradient, OOMP2, MP2 Hessian
   Martin Krupicka        : AUTO-CI
   Lucas Lang             : DCDCAS
   Dagmar Lenk            : GEPOL surface, SMD
   Dimitrios Liakos       : Extrapolation schemes; Compound Job, initial MDCI parallelization
   Dimitrios Manganas     : Further ROCIS development; embedding schemes
   Dimitrios Pantazis     : SARC Basis sets
   Taras Petrenko         : DFT Hessian,TD-DFT gradient, ASA, ECA, R-Raman, ABS, FL, XAS/XES, NRVS
   Peter Pinski           : DLPNO-MP2, DLPNO-MP2 Gradient
   Christoph Reimann      : Effective Core Potentials
   Marius Retegan         : Local ZFS, SOC
   Christoph Riplinger    : Optimizer, TS searches, QM/MM, DLPNO-CCSD(T), (RO)-DLPNO pert. Triples
   Tobias Risthaus        : Range-separated hybrids, TD-DFT gradient, RPA, STAB
   Michael Roemelt        : Original ROCIS implementation
   Masaaki Saitow         : Open-shell DLPNO-CCSD energy and density
   Barbara Sandhoefer     : DKH picture change effects
   Avijit Sen             : IP-ROCIS
   Kantharuban Sivalingam : CASSCF convergence, NEVPT2, FIC-MRCI
   Bernardo de Souza      : ESD, SOC TD-DFT
   Georgi Stoychev        : AutoAux, RI-MP2 NMR
   Willem Van den Heuvel  : Paramagnetic NMR
   Boris Wezisla          : Elementary symmetry handling
   Frank Wennmohs         : Technical directorship


 We gratefully acknowledge several colleagues who have allowed us to
 interface, adapt or use parts of their codes:
   Stefan Grimme, W. Hujo, H. Kruse,             : VdW corrections, initial TS optimization,
                  C. Bannwarth                     DFT functionals, gCP, sTDA/sTD-DF
   Ed Valeev, F. Pavosevic, A. Kumar             : LibInt (2-el integral package), F12 methods
   Garnet Chan, S. Sharma, J. Yang, R. Olivares  : DMRG
   Ulf Ekstrom                                   : XCFun DFT Library
   Mihaly Kallay                                 : mrcc  (arbitrary order and MRCC methods)
   Andreas Klamt, Michael Diedenhofen            : otool_cosmo (COSMO solvation model)
   Jiri Pittner, Ondrej Demel                    : Mk-CCSD
   Frank Weinhold                                : gennbo (NPA and NBO analysis)
   Christopher J. Cramer and Donald G. Truhlar   : smd solvation model
   Lars Goerigk                                  : TD-DFT with DH, B97 family of functionals
   V. Asgeirsson, H. Jonsson                     : NEB implementation
   FAccTs GmbH                                   : IRC, NEB, NEB-TS, Multilevel, MM, QM/MM, CI optimization
   S Lehtola, MJT Oliveira, MAL Marques          : LibXC Library


 Your calculation uses the libint2 library for the computation of 2-el integrals
 For citations please refer to: http://libint.valeyev.net

 Your ORCA version has been built with support for libXC version: 4.2.3
 For citations please refer to: https://tddft.org/programs/libxc/

 This ORCA versions uses:
   CBLAS   interface :  Fast vector & matrix operations
   LAPACKE interface :  Fast linear algebra routines
   SCALAPACK package :  Parallel linear algebra routines




***************************************
The coordinates will be read from file: init.xyz
***************************************


Your calculation utilizes the SMD solvation module
Please cite in your paper:
A.V. Marenich, C.J. Cramer, D.G. Truhlar J. Phys. Chem. B, 113, (2009), 6378 

Your calculation utilizes the semiempirical GFN2-xTB method
Please cite in your paper:
C. Bannwarth, Ehlert S., S. Grimme,  J. Chem. Theory Comput., 15, (2019), 1652.
   

----- Orbital basis set information -----
Your calculation utilizes the basis: def2-SVP
   F. Weigend and R. Ahlrichs, Phys. Chem. Chem. Phys. 7, 3297 (2005).

================================================================================
                                        WARNINGS
                       Please study these warnings very carefully!
================================================================================

WARNING: Gradients needed for Numerical Frequencies
  ===> : Setting RunTyp to EnGrad

WARNING: The environment variable RSH_COMMAND is not set!
  ===> : All Displacements for the Numerical Hessian calculation
         will be started on localhost

WARNING: Found dipole moment calculation with XTB calculation
  ===> : Switching off dipole moment calculation


INFO   : the flag for use of LIBINT has been found!

================================================================================
                                       INPUT FILE
================================================================================
NAME = /tmp/slurm-scratch/freq.103/freq.inp
|  1> ! XTB2 NumFreq
|  2> %maxcore 2000
|  3> 
|  4> * xyzfile 0 1 init.xyz
|  5> 
|  6> %cpcm
|  7>  smd true
|  8>  smdsolvent "ch2cl2"
|  9> end
| 10> %pal nprocs 11 end
| 11> 
| 12>                          ****END OF INPUT****
================================================================================

                     *******************************
                     * Energy+Gradient Calculation *
                     *******************************

      -----------------------------------------------------------      
     |                   =====================                   |     
     |                           x T B                           |     
     |                   =====================                   |     
     |                         S. Grimme                         |     
     |          Mulliken Center for Theoretical Chemistry        |     
     |                    University of Bonn                     |     
      -----------------------------------------------------------      

   * xtb version 6.3.1 (461a024) compiled by 'schneider@apollo14' on 2020-06-26

   xtb is free software: you can redistribute it and/or modify it under
   the terms of the GNU Lesser General Public License as published by
   the Free Software Foundation, either version 3 of the License, or
   (at your option) any later version.
   
   xtb is distributed in the hope that it will be useful,
   but WITHOUT ANY WARRANTY; without even the implied warranty of
   MERCHANTABILITY or FITNESS FOR A PARTICULAR PURPOSE.  See the
   GNU Lesser General Public License for more details.
   
   Cite this work as:
   * S. Grimme, C. Bannwarth, P. Shushkov, J. Chem. Theory Comput., 2017,
     13, 1989-2009. DOI: 10.1021/acs.jctc.7b00118
   * C. Bannwarth, S. Ehlert and S. Grimme., J. Chem. Theory Comput., 2019,
     15, 1652-1671. DOI: 10.1021/acs.jctc.8b01176
   * P. Pracht, E. Caldeweyher, S. Ehlert, S. Grimme, ChemRxiv, 2019, preprint.
     DOI: 10.26434/chemrxiv.8326202.v1
   
   for GFN-FF:
   * S. Spicher and S. Grimme, Angew. Chem. Int. Ed., 2020,
     DOI: 10.1002/anie.202004239
   
   for DFT-D4:
   * E. Caldeweyher, C. Bannwarth and S. Grimme, J. Chem. Phys., 2017,
     147, 034112. DOI: 10.1063/1.4993215
   * E. Caldeweyher, S. Ehlert, A. Hansen, H. Neugebauer, S. Spicher,
     C. Bannwarth and S. Grimme, J. Chem. Phys., 2019, 150, 154122.
     DOI: 10.1063/1.5090222
   
   for sTDA-xTB:
   * S. Grimme and C. Bannwarth, J. Chem. Phys., 2016, 145, 054103.
     DOI: 10.1063/1.4959605
   
   in the mass-spec context:
   * V. Asgeirsson, C. Bauer and S. Grimme, Chem. Sci., 2017, 8, 4879.
     DOI: 10.1039/c7sc00601b
   * J. Koopman and S. Grimme, ACS Omega 2019, 4, 12, 15120-15133.
     DOI: 10.1021/acsomega.9b02011
   
   for metadynamics refer to:
   * S. Grimme, J. Chem. Theory Comput., 2019, 155, 2847-2862
     DOI: 10.1021/acs.jctc.9b00143
   
   with help from (in alphabetical order)
   C. Bannwarth, F. Bohle, G. Brandenburg, E. Caldeweyher, M. Checinski,
   S. Dohm, S. Ehlert, S. Ehrlich, F. März, H. Neugebauer, J. Pisarek,
   P. Pracht, P. Shushkov, and S. Spicher.
   
 * started run on 2020/08/05 at 12:26:35.473     

           -------------------------------------------------
          |                Calculation Setup                |
           -------------------------------------------------

          program call               : /opt/orca/otool_xtb /tmp/slurm-scratch/freq.103/freq_XTB.xyz --grad -c 0 -u 0 -P 11 --namespace /tmp/slurm-scratch/freq.103/freq --gbsa CH2Cl2
          hostname                   : apollo14
          calculation namespace      : /tmp/slurm-scratch/freq.103/freq
          coordinate file            : /tmp/slurm-scratch/freq.103/freq_XTB.xyz
          omp threads                :                    11
          number of atoms            :                    46
          number of electrons        :                   104
          charge                     :                     0
          spin                       :                   0.0
          first test random number   :      0.16548482132770

   ID    Z sym.   atoms
    1    6 C      1-6, 12, 18, 21, 25, 28, 33, 36, 39, 43
    2    1 H      7-9, 11, 13-15, 17, 19, 20, 22, 24, 26, 27, 29-32, 34, 35,
                  37, 38, 40-42, 44-46
    3    7 N      10, 16
    4    8 O      23

molecular fragmentation (1/2 indicates fragments):
1111111111211122122211121112221111122222221111
# atoms in fragment 1/2:    29    17
 fragment masses (1/2) :      178.25       74.14
CMA distance (Bohr)    :   9.631
constraining FC (au)   :  0.0500
########################################################################
[WARNING] Please study the warnings concerning your input carefully
-1- prog_main_parseArguments: Process number higher than OMP_NUM_THREADS, I hope you know what you are doing.
########################################################################

           -------------------------------------------------
          |                 G F N 2 - x T B                 |
           -------------------------------------------------

        Reference                      10.1021/acs.jctc.8b01176
      * Hamiltonian:
        H0-scaling (s, p, d)           1.850000    2.230000    2.230000
        zeta-weighting                 0.500000
      * Dispersion:
        s8                             2.700000
        a1                             0.520000
        a2                             5.000000
        s9                             5.000000
      * Repulsion:
        kExp                           1.500000    1.000000
        rExp                           1.000000
      * Coulomb:
        alpha                          2.000000
        third order                    shell-resolved
        anisotropic                    true
        a3                             3.000000
        a5                             4.000000
        cn-shift                       1.200000
        cn-exp                         4.000000
        max-rad                        5.000000

      * Solvation model:               GBSA
        Solvent                        CH2Cl2
        Parameter file                 internal GFN2-xTB/GBSA
        Dielectric constant                8.9300E+00
        Reference state                gsolv [1 M gas/solution]
        Free energy shift                  4.4408E-03 Eh       2.7867E+00 kcal/mol
        Temperature                        2.9815E+02 K
        Density                            1.3300E+00 kg/L
        Solvent mass                       8.4930E+01 g/mol
        Interaction kernel             Still
        Born radius scaling (c1)           1.4917E+00
        Born radii integrator          GBOBC
        Born offset                        0.0000E+00 a0       0.0000E+00 AA
        H-bond correction              false
        Ion screening                  false
        Surface tension                    1.0000E-05 Eh       1.5569E+01 dyn/cm
        Grid points                               230 per atom

          ...................................................
          :                      SETUP                      :
          :.................................................:
          :  # basis functions                 100          :
          :  # atomic orbitals                 100          :
          :  # shells                           64          :
          :  # electrons                       104          :
          :  max. iterations                   250          :
          :  Hamiltonian                  GFN2-xTB          :
          :  restarted?                      false          :
          :  GBSA solvation                   true          :
          :  PC potential                    false          :
          :  electronic temp.          300.0000000     K    :
          :  accuracy                    1.0000000          :
          :  -> integral cutoff          0.2500000E+02      :
          :  -> integral neglect         0.1000000E-07      :
          :  -> SCF convergence          0.1000000E-05 Eh   :
          :  -> wf. convergence          0.1000000E-03 e    :
          :  Broyden damping             0.4000000          :
          ...................................................

 iter      E             dE          RMSdq      gap      omega  full diag
   1    -56.9358379 -0.569358E+02  0.366E+00    3.21       0.0  T
   2    -57.0531402 -0.117302E+00  0.201E+00    2.96       1.0  T
   3    -57.0543202 -0.118002E-02  0.855E-01    2.73       1.0  T
   4    -57.0538703  0.449881E-03  0.322E-01    2.82       1.0  T
   5    -57.0583227 -0.445234E-02  0.704E-02    2.80       1.0  T
   6    -57.0583397 -0.170458E-04  0.344E-02    2.81       1.0  T
   7    -57.0583463 -0.655553E-05  0.136E-02    2.81       1.1  T
   8    -57.0583493 -0.297618E-05  0.446E-03    2.81       3.3  T
   9    -57.0583494 -0.149825E-06  0.241E-03    2.81       6.1  T
  10    -57.0583494 -0.217454E-07  0.678E-04    2.81      21.8  T
  11    -57.0583494 -0.657699E-08  0.332E-04    2.81      44.4  T

   *** convergence criteria satisfied after 11 iterations ***

         #    Occupation            Energy/Eh            Energy/eV
      -------------------------------------------------------------
         1        2.0000           -0.6794022             -18.4875
       ...           ...                  ...                  ...
        46        2.0000           -0.4207859             -11.4502
        47        2.0000           -0.4196181             -11.4184
        48        2.0000           -0.4076730             -11.0933
        49        2.0000           -0.3987478             -10.8505
        50        2.0000           -0.3940492             -10.7226
        51        2.0000           -0.3673062              -9.9949
        52        2.0000           -0.3429095              -9.3310 (HOMO)
        53                         -0.2397008              -6.5226 (LUMO)
        54                         -0.2283012              -6.2124
        55                         -0.1553312              -4.2268
        56                         -0.0852346              -2.3194
        57                         -0.0480277              -1.3069
       ...                                ...                  ...
       100                          0.6443269              17.5330
      -------------------------------------------------------------
                  HL-Gap            0.1032087 Eh            2.8085 eV
             Fermi-level           -0.2913052 Eh           -7.9268 eV

 SCC (total)                   0 d,  0 h,  0 min,  0.163 sec
 SCC setup                      ...        0 min,  0.009 sec (  5.261%)
 Dispersion                     ...        0 min,  0.005 sec (  3.198%)
 classical contributions        ...        0 min,  0.004 sec (  2.493%)
 integral evaluation            ...        0 min,  0.019 sec ( 11.805%)
 iterations                     ...        0 min,  0.052 sec ( 31.743%)
 molecular gradient             ...        0 min,  0.068 sec ( 41.980%)
 printout                       ...        0 min,  0.006 sec (  3.502%)

         :::::::::::::::::::::::::::::::::::::::::::::::::::::
         ::                     SUMMARY                     ::
         :::::::::::::::::::::::::::::::::::::::::::::::::::::
         :: total energy             -56.260535083230 Eh    ::
         :: total w/o Gsasa/hb       -56.237409313058 Eh    ::
         :: gradient norm              0.039195827049 Eh/a0 ::
         :: HOMO-LUMO gap              2.808452882067 eV    ::
         ::.................................................::
         :: SCC energy               -57.058349429343 Eh    ::
         :: -> isotropic ES            0.104191927713 Eh    ::
         :: -> anisotropic ES         -0.003603191603 Eh    ::
         :: -> anisotropic XC          0.034855031257 Eh    ::
         :: -> dispersion             -0.037803236296 Eh    ::
         :: -> Gsolv                  -0.038860814472 Eh    ::
         ::    -> Gborn               -0.015735044300 Eh    ::
         ::    -> Gsasa               -0.027566599345 Eh    ::
         ::    -> Ghb                  0.000000000000 Eh    ::
         ::    -> Gshift               0.004440829173 Eh    ::
         :: repulsion energy           0.797607936796 Eh    ::
         :: add. restraining           0.000000000000 Eh    ::
         :::::::::::::::::::::::::::::::::::::::::::::::::::::

           -------------------------------------------------
          |                Property Printout                |
           -------------------------------------------------

    * Orbital Energies and Occupations

         #    Occupation            Energy/Eh            Energy/eV
      -------------------------------------------------------------
         1        2.0000           -0.6794022             -18.4875
       ...           ...                  ...                  ...
        40        2.0000           -0.4429114             -12.0522
        41        2.0000           -0.4415440             -12.0150
        42        2.0000           -0.4394539             -11.9582
        43        2.0000           -0.4337112             -11.8019
        44        2.0000           -0.4295090             -11.6875
        45        2.0000           -0.4262215             -11.5981
        46        2.0000           -0.4207859             -11.4502
        47        2.0000           -0.4196181             -11.4184
        48        2.0000           -0.4076730             -11.0933
        49        2.0000           -0.3987478             -10.8505
        50        2.0000           -0.3940492             -10.7226
        51        2.0000           -0.3673062              -9.9949
        52        2.0000           -0.3429095              -9.3310 (HOMO)
        53                         -0.2397008              -6.5226 (LUMO)
        54                         -0.2283012              -6.2124
        55                         -0.1553312              -4.2268
        56                         -0.0852346              -2.3194
        57                         -0.0480277              -1.3069
        58                          0.0370086               1.0071
        59                          0.0557877               1.5181
        60                          0.0821764               2.2361
        61                          0.0891182               2.4250
        62                          0.0997451               2.7142
        63                          0.1063863               2.8949
       ...                                ...                  ...
       100                          0.6443269              17.5330
      -------------------------------------------------------------
                  HL-Gap            0.1032087 Eh            2.8085 eV
             Fermi-level           -0.2913052 Eh           -7.9268 eV

     #   Z        covCN         q      C6AA      α(0)
     1   6 C      2.914    -0.033    28.811     8.802
     2   6 C      2.921    -0.036    28.907     8.817
     3   6 C      2.966     0.000    28.024     8.683
     4   6 C      2.919    -0.043    29.072     8.842
     5   6 C      2.914    -0.032    28.809     8.801
     6   6 C      2.915    -0.033    28.823     8.804
     7   1 H      0.925     0.022     2.701     2.570
     8   1 H      0.926     0.044     2.397     2.421
     9   1 H      0.925     0.041     2.442     2.443
    10   7 N      2.001    -0.406    31.455     8.318
    11   1 H      0.858     0.253     0.870     1.461
    12   6 C      3.759     0.034    20.048     6.383
    13   1 H      0.923    -0.004     3.125     2.765
    14   1 H      0.923    -0.011     3.264     2.825
    15   1 H      0.994     0.269     0.806     1.403
    16   7 N      3.441    -0.218    25.750     7.537
    17   1 H      0.805     0.221     1.016     1.583
    18   6 C      3.732    -0.009    20.829     6.514
    19   1 H      0.924     0.075     2.032     2.229
    20   1 H      0.924     0.071     2.080     2.255
    21   6 C      3.288     0.145    23.452     7.778
    22   1 H      0.924    -0.010     3.243     2.816
    23   8 O      1.246    -0.702    28.394     7.160
    24   1 H      0.860     0.212     1.048     1.604
    25   6 C      3.802    -0.067    21.781     6.645
    26   1 H      0.924     0.035     2.519     2.482
    27   1 H      0.924     0.033     2.538     2.491
    28   6 C      3.801    -0.072    21.878     6.659
    29   1 H      0.924     0.053     2.289     2.366
    30   1 H      0.924     0.047     2.356     2.401
    31   1 H      0.925     0.036     2.506     2.476
    32   1 H      0.925     0.044     2.401     2.423
    33   6 C      3.800    -0.052    21.509     6.603
    34   1 H      0.924     0.028     2.616     2.529
    35   1 H      0.924     0.025     2.663     2.552
    36   6 C      3.800    -0.056    21.585     6.615
    37   1 H      0.924     0.043     2.411     2.428
    38   1 H      0.924     0.038     2.474     2.460
    39   6 C      3.749    -0.105    22.581     6.777
    40   1 H      0.924     0.040     2.446     2.446
    41   1 H      0.924     0.040     2.449     2.447
    42   1 H      0.924     0.037     2.492     2.468
    43   6 C      3.749    -0.103    22.527     6.769
    44   1 H      0.924     0.036     2.499     2.472
    45   1 H      0.924     0.035     2.518     2.482
    46   1 H      0.924     0.038     2.476     2.461

 Mol. C6AA /au·bohr⁶  :      17421.451433
 Mol. C8AA /au·bohr⁸  :     382055.764004
 Mol. α(0) /au        :        202.266678


Wiberg/Mayer (AO) data.
largest (>0.10) Wiberg bond orders for each atom
          total WBO             WBO to atom ...
     1  C   3.991        C    2 1.451    C    6 1.434    H   31 0.971    C    4 0.109
     2  C   3.992        C    1 1.451    C    3 1.398    H    7 0.969    C    5 0.109
     3  C   3.987        C    4 1.400    C    2 1.398    C   21 1.022    C    6 0.108
     4  C   3.990        C    5 1.448    C    3 1.400    H    8 0.966    C    1 0.109
     5  C   3.991        C    4 1.448    C    6 1.436    H   32 0.970    C    2 0.109
     6  C   3.990        C    5 1.436    C    1 1.434    H    9 0.971    C    3 0.108
     7  H   0.999        C    2 0.969
     8  H   0.998        C    4 0.966
     9  H   0.998        C    6 0.971
    10  N   3.034        C   21 1.394    C   12 1.015    H   15 0.272    O   23 0.150
    11  H   0.936        N   16 0.852
    12  C   3.991        N   10 1.015    C   25 1.003    H   14 0.966    H   13 0.964
    13  H   1.000        C   12 0.964
    14  H   1.000        C   12 0.966
    15  H   0.928        N   16 0.622    N   10 0.272
    16  N   3.571        C   18 0.975    H   24 0.939    H   11 0.852    H   15 0.622
    17  H   0.951        O   23 0.940
    18  C   3.945        C   28 1.006    N   16 0.975    H   19 0.971    H   20 0.971
    19  H   0.994        C   18 0.971
    20  H   0.995        C   18 0.971
    21  C   3.956        N   10 1.394    C    3 1.022    H   22 0.950    O   23 0.512
    22  H   1.000        C   21 0.950
    23  O   1.772        H   17 0.940    C   21 0.512    N   10 0.150
    24  H   0.955        N   16 0.939
    25  C   3.996        C   33 1.008    C   12 1.003    H   27 0.977    H   26 0.976
    26  H   0.999        C   25 0.976
    27  H   0.999        C   25 0.977
    28  C   3.991        C   18 1.006    C   36 1.005    H   30 0.975    H   29 0.974
    29  H   0.997        C   28 0.974
    30  H   0.998        C   28 0.975
    31  H   0.998        C    1 0.971
    32  H   0.998        C    5 0.970
    33  C   3.997        C   43 1.019    C   25 1.008    H   35 0.978    H   34 0.978
    34  H   0.999        C   33 0.978
    35  H   0.999        C   33 0.978
    36  C   3.995        C   39 1.020    C   28 1.005    H   38 0.977    H   37 0.977
    37  H   0.998        C   36 0.977
    38  H   0.999        C   36 0.977
    39  C   3.995        C   36 1.020    H   42 0.987    H   41 0.987    H   40 0.987
    40  H   0.998        C   39 0.987
    41  H   0.998        C   39 0.987
    42  H   0.999        C   39 0.987
    43  C   3.996        C   33 1.019    H   45 0.988    H   46 0.988    H   44 0.987
    44  H   0.998        C   43 0.987
    45  H   0.999        C   43 0.988
    46  H   0.999        C   43 0.988
Topologies differ in total number of bonds
Writing topology from bond orders to xtbtopo.mol

molecular dipole:
                 x           y           z       tot (Debye)
 q only:       -0.095      -2.264      -2.019
   full:        0.175      -2.047      -1.352       6.251
molecular quadrupole (traceless):
                xx          xy          yy          xz          yz          zz
 q only:        1.631      12.481       8.245       7.909       7.913      -9.876
  q+dip:        0.421       9.642       4.373       5.606      10.890      -4.794
   full:        0.012       9.696       6.874       6.122       9.315      -6.887


           -------------------------------------------------
          | TOTAL ENERGY              -56.260535083230 Eh   |
          | GRADIENT NORM               0.039195827049 Eh/α |
          | HOMO-LUMO GAP               2.808452882067 eV   |
           -------------------------------------------------

------------------------------------------------------------------------
 * finished run on 2020/08/05 at 12:26:35.711     
------------------------------------------------------------------------
 total:
 * wall-time:     0 d,  0 h,  0 min,  0.237 sec
 *  cpu-time:     0 d,  0 h,  0 min,  2.680 sec
 * ratio c/w:    11.291 speedup
 SCF:
 * wall-time:     0 d,  0 h,  0 min,  0.171 sec
 *  cpu-time:     0 d,  0 h,  0 min,  1.928 sec
 * ratio c/w:    11.260 speedup


-------------------------   --------------------
FINAL SINGLE POINT ENERGY       -56.260535083230
-------------------------   --------------------


----------------------------------------------------------------------------
                           ORCA NUMERICAL FREQUENCIES
                              (11-process run)
----------------------------------------------------------------------------

Number of atoms                ... 46
Central differences            ... used
Number of displacements        ... 276
Numerical increment            ... 5.000e-03 bohr
IR-spectrum generation         ... on
Raman-spectrum generation      ... off
Surface Crossing Hessian       ... off
List of participating nodes    ...  /tmp/slurm-scratch/freq.103/freq.hostnames

The output will be reduced. Please look at the following files:
SCF program output             ... >/tmp/slurm-scratch/freq.103/freq.lastscf
Integral program output        ... >/tmp/slurm-scratch/freq.103/freq.lastint
Gradient program output        ... >/tmp/slurm-scratch/freq.103/freq.lastgrad
Dipole moment program output   ... >/tmp/slurm-scratch/freq.103/freq.lastmom
AutoCI program output          ... >/tmp/slurm-scratch/freq.103/freq.lastautoci


         <<< Energy and Gradient at the input geometry >>>

        <<< Energy and Gradient at displaced geometries >>>
             <<<Displacing   1/coordinate 2 (+)>>>
             <<<Displacing   3/coordinate 1 (+)>>>
             <<<Displacing   4/coordinate 1 (+)>>>
             <<<Displacing   1/coordinate 2 (-)>>>
             <<<Displacing   1/coordinate 3 (+)>>>
             <<<Displacing   3/coordinate 2 (+)>>>
             <<<Displacing   2/coordinate 1 (+)>>>
             <<<Displacing   2/coordinate 2 (+)>>>
             <<<Displacing   4/coordinate 2 (+)>>>
             <<<Displacing   4/coordinate 1 (-)>>>
             <<<Displacing   3/coordinate 1 (-)>>>
             <<<Displacing   3/coordinate 3 (+)>>>
             <<<Displacing   1/coordinate 1 (+)>>>
             <<<Displacing   1/coordinate 3 (-)>>>
             <<<Displacing   3/coordinate 2 (-)>>>
             <<<Displacing   2/coordinate 3 (+)>>>
             <<<Displacing   2/coordinate 1 (-)>>>
             <<<Displacing   2/coordinate 2 (-)>>>
             <<<Displacing   4/coordinate 2 (-)>>>
             <<<Displacing   3/coordinate 3 (-)>>>
             <<<Displacing   1/coordinate 1 (-)>>>
             <<<Displacing   2/coordinate 3 (-)>>>
             <<<Displacing   4/coordinate 3 (+)>>>
             <<<Displacing   5/coordinate 2 (+)>>>
             <<<Displacing   6/coordinate 2 (+)>>>
             <<<Displacing   5/coordinate 1 (+)>>>
             <<<Displacing   4/coordinate 3 (-)>>>
             <<<Displacing   5/coordinate 2 (-)>>>
             <<<Displacing   6/coordinate 2 (-)>>>
             <<<Displacing   7/coordinate 1 (+)>>>
             <<<Displacing   5/coordinate 3 (+)>>>
             <<<Displacing   7/coordinate 3 (+)>>>
             <<<Displacing   6/coordinate 1 (+)>>>
             <<<Displacing   5/coordinate 1 (-)>>>
             <<<Displacing   6/coordinate 3 (+)>>>
             <<<Displacing   7/coordinate 2 (+)>>>
             <<<Displacing   5/coordinate 3 (-)>>>
             <<<Displacing   7/coordinate 1 (-)>>>
             <<<Displacing   7/coordinate 3 (-)>>>
             <<<Displacing   8/coordinate 1 (+)>>>
             <<<Displacing   6/coordinate 1 (-)>>>
             <<<Displacing   7/coordinate 2 (-)>>>
             <<<Displacing   6/coordinate 3 (-)>>>
             <<<Displacing   8/coordinate 1 (-)>>>
             <<<Displacing   8/coordinate 2 (+)>>>
             <<<Displacing  10/coordinate 1 (+)>>>
             <<<Displacing  10/coordinate 1 (-)>>>
             <<<Displacing   9/coordinate 3 (+)>>>
             <<<Displacing   8/coordinate 3 (+)>>>
             <<<Displacing   9/coordinate 1 (+)>>>
             <<<Displacing   8/coordinate 2 (-)>>>
             <<<Displacing   9/coordinate 2 (+)>>>
             <<<Displacing   9/coordinate 3 (-)>>>
             <<<Displacing   8/coordinate 3 (-)>>>
             <<<Displacing   9/coordinate 1 (-)>>>
             <<<Displacing  10/coordinate 3 (+)>>>
             <<<Displacing   9/coordinate 2 (-)>>>
             <<<Displacing  11/coordinate 1 (+)>>>
             <<<Displacing  10/coordinate 2 (+)>>>
             <<<Displacing  11/coordinate 2 (+)>>>
             <<<Displacing  11/coordinate 3 (+)>>>
             <<<Displacing  11/coordinate 1 (-)>>>
             <<<Displacing  10/coordinate 3 (-)>>>
             <<<Displacing  11/coordinate 2 (-)>>>
             <<<Displacing  11/coordinate 3 (-)>>>
             <<<Displacing  10/coordinate 2 (-)>>>
             <<<Displacing  12/coordinate 1 (+)>>>
             <<<Displacing  12/coordinate 2 (+)>>>
             <<<Displacing  12/coordinate 3 (+)>>>
             <<<Displacing  13/coordinate 1 (+)>>>
             <<<Displacing  13/coordinate 3 (+)>>>
             <<<Displacing  12/coordinate 2 (-)>>>
             <<<Displacing  14/coordinate 1 (+)>>>
             <<<Displacing  13/coordinate 1 (-)>>>
             <<<Displacing  12/coordinate 1 (-)>>>
             <<<Displacing  12/coordinate 3 (-)>>>
             <<<Displacing  13/coordinate 2 (+)>>>
             <<<Displacing  15/coordinate 2 (+)>>>
             <<<Displacing  14/coordinate 1 (-)>>>
             <<<Displacing  13/coordinate 3 (-)>>>
             <<<Displacing  14/coordinate 2 (+)>>>
             <<<Displacing  14/coordinate 3 (+)>>>
             <<<Displacing  13/coordinate 2 (-)>>>
             <<<Displacing  15/coordinate 2 (-)>>>
             <<<Displacing  14/coordinate 2 (-)>>>
             <<<Displacing  14/coordinate 3 (-)>>>
             <<<Displacing  15/coordinate 1 (+)>>>
             <<<Displacing  15/coordinate 1 (-)>>>
             <<<Displacing  15/coordinate 3 (+)>>>
             <<<Displacing  16/coordinate 1 (+)>>>
             <<<Displacing  17/coordinate 3 (+)>>>
             <<<Displacing  16/coordinate 1 (-)>>>
             <<<Displacing  17/coordinate 3 (-)>>>
             <<<Displacing  17/coordinate 1 (+)>>>
             <<<Displacing  15/coordinate 3 (-)>>>
             <<<Displacing  17/coordinate 1 (-)>>>
             <<<Displacing  16/coordinate 3 (+)>>>
             <<<Displacing  16/coordinate 2 (+)>>>
             <<<Displacing  17/coordinate 2 (+)>>>
             <<<Displacing  18/coordinate 2 (+)>>>
             <<<Displacing  18/coordinate 1 (+)>>>
             <<<Displacing  16/coordinate 2 (-)>>>
             <<<Displacing  16/coordinate 3 (-)>>>
             <<<Displacing  18/coordinate 3 (+)>>>
             <<<Displacing  17/coordinate 2 (-)>>>
             <<<Displacing  18/coordinate 2 (-)>>>
             <<<Displacing  18/coordinate 1 (-)>>>
             <<<Displacing  18/coordinate 3 (-)>>>
             <<<Displacing  19/coordinate 1 (+)>>>
             <<<Displacing  19/coordinate 1 (-)>>>
             <<<Displacing  19/coordinate 2 (+)>>>
             <<<Displacing  19/coordinate 3 (+)>>>
             <<<Displacing  20/coordinate 1 (+)>>>
             <<<Displacing  19/coordinate 2 (-)>>>
             <<<Displacing  19/coordinate 3 (-)>>>
             <<<Displacing  20/coordinate 1 (-)>>>
             <<<Displacing  21/coordinate 1 (+)>>>
             <<<Displacing  20/coordinate 2 (+)>>>
             <<<Displacing  21/coordinate 2 (+)>>>
             <<<Displacing  21/coordinate 1 (-)>>>
             <<<Displacing  22/coordinate 1 (+)>>>
             <<<Displacing  20/coordinate 3 (+)>>>
             <<<Displacing  21/coordinate 3 (+)>>>
             <<<Displacing  20/coordinate 2 (-)>>>
             <<<Displacing  21/coordinate 2 (-)>>>
             <<<Displacing  22/coordinate 1 (-)>>>
             <<<Displacing  20/coordinate 3 (-)>>>
             <<<Displacing  21/coordinate 3 (-)>>>
             <<<Displacing  22/coordinate 2 (+)>>>
             <<<Displacing  22/coordinate 3 (+)>>>
             <<<Displacing  22/coordinate 2 (-)>>>
             <<<Displacing  22/coordinate 3 (-)>>>
             <<<Displacing  23/coordinate 1 (+)>>>
             <<<Displacing  23/coordinate 2 (+)>>>
             <<<Displacing  23/coordinate 3 (+)>>>
             <<<Displacing  23/coordinate 1 (-)>>>
             <<<Displacing  23/coordinate 2 (-)>>>
             <<<Displacing  23/coordinate 3 (-)>>>
             <<<Displacing  24/coordinate 2 (+)>>>
             <<<Displacing  24/coordinate 3 (+)>>>
             <<<Displacing  24/coordinate 1 (+)>>>
             <<<Displacing  25/coordinate 2 (+)>>>
             <<<Displacing  25/coordinate 1 (+)>>>
             <<<Displacing  24/coordinate 2 (-)>>>
             <<<Displacing  24/coordinate 3 (-)>>>
             <<<Displacing  24/coordinate 1 (-)>>>
             <<<Displacing  25/coordinate 2 (-)>>>
             <<<Displacing  25/coordinate 1 (-)>>>
             <<<Displacing  25/coordinate 3 (+)>>>
             <<<Displacing  25/coordinate 3 (-)>>>
             <<<Displacing  26/coordinate 1 (+)>>>
             <<<Displacing  26/coordinate 1 (-)>>>
             <<<Displacing  26/coordinate 2 (+)>>>
             <<<Displacing  26/coordinate 2 (-)>>>
             <<<Displacing  26/coordinate 3 (+)>>>
             <<<Displacing  28/coordinate 1 (+)>>>
             <<<Displacing  27/coordinate 3 (+)>>>
             <<<Displacing  27/coordinate 1 (+)>>>
             <<<Displacing  26/coordinate 3 (-)>>>
             <<<Displacing  28/coordinate 1 (-)>>>
             <<<Displacing  27/coordinate 2 (+)>>>
             <<<Displacing  27/coordinate 1 (-)>>>
             <<<Displacing  27/coordinate 3 (-)>>>
             <<<Displacing  28/coordinate 2 (+)>>>
             <<<Displacing  28/coordinate 3 (+)>>>
             <<<Displacing  27/coordinate 2 (-)>>>
             <<<Displacing  29/coordinate 2 (+)>>>
             <<<Displacing  28/coordinate 3 (-)>>>
             <<<Displacing  28/coordinate 2 (-)>>>
             <<<Displacing  29/coordinate 1 (+)>>>
             <<<Displacing  29/coordinate 2 (-)>>>
             <<<Displacing  29/coordinate 1 (-)>>>
             <<<Displacing  29/coordinate 3 (+)>>>
             <<<Displacing  29/coordinate 3 (-)>>>
             <<<Displacing  30/coordinate 1 (+)>>>
             <<<Displacing  30/coordinate 1 (-)>>>
             <<<Displacing  30/coordinate 2 (+)>>>
             <<<Displacing  31/coordinate 2 (+)>>>
             <<<Displacing  30/coordinate 3 (+)>>>
             <<<Displacing  32/coordinate 1 (+)>>>
             <<<Displacing  31/coordinate 2 (-)>>>
             <<<Displacing  30/coordinate 2 (-)>>>
             <<<Displacing  30/coordinate 3 (-)>>>
             <<<Displacing  31/coordinate 3 (+)>>>
             <<<Displacing  32/coordinate 1 (-)>>>
             <<<Displacing  31/coordinate 1 (+)>>>
             <<<Displacing  31/coordinate 3 (-)>>>
             <<<Displacing  31/coordinate 1 (-)>>>
             <<<Displacing  32/coordinate 2 (+)>>>
             <<<Displacing  32/coordinate 3 (+)>>>
             <<<Displacing  32/coordinate 2 (-)>>>
             <<<Displacing  32/coordinate 3 (-)>>>
             <<<Displacing  33/coordinate 1 (+)>>>
             <<<Displacing  33/coordinate 1 (-)>>>
             <<<Displacing  33/coordinate 2 (+)>>>
             <<<Displacing  33/coordinate 3 (+)>>>
             <<<Displacing  33/coordinate 2 (-)>>>
             <<<Displacing  33/coordinate 3 (-)>>>
             <<<Displacing  34/coordinate 1 (+)>>>
             <<<Displacing  34/coordinate 3 (+)>>>
             <<<Displacing  34/coordinate 2 (+)>>>
             <<<Displacing  35/coordinate 1 (+)>>>
             <<<Displacing  35/coordinate 2 (+)>>>
             <<<Displacing  34/coordinate 1 (-)>>>
             <<<Displacing  34/coordinate 2 (-)>>>
             <<<Displacing  34/coordinate 3 (-)>>>
             <<<Displacing  35/coordinate 2 (-)>>>
             <<<Displacing  35/coordinate 1 (-)>>>
             <<<Displacing  35/coordinate 3 (+)>>>
             <<<Displacing  35/coordinate 3 (-)>>>
             <<<Displacing  36/coordinate 1 (+)>>>
             <<<Displacing  36/coordinate 2 (+)>>>
             <<<Displacing  36/coordinate 1 (-)>>>
             <<<Displacing  36/coordinate 2 (-)>>>
             <<<Displacing  36/coordinate 3 (+)>>>
             <<<Displacing  36/coordinate 3 (-)>>>
             <<<Displacing  37/coordinate 1 (+)>>>
             <<<Displacing  37/coordinate 1 (-)>>>
             <<<Displacing  37/coordinate 2 (+)>>>
             <<<Displacing  37/coordinate 2 (-)>>>
             <<<Displacing  37/coordinate 3 (+)>>>
             <<<Displacing  38/coordinate 1 (+)>>>
             <<<Displacing  38/coordinate 3 (+)>>>
             <<<Displacing  37/coordinate 3 (-)>>>
             <<<Displacing  38/coordinate 1 (-)>>>
             <<<Displacing  38/coordinate 3 (-)>>>
             <<<Displacing  38/coordinate 2 (+)>>>
             <<<Displacing  39/coordinate 1 (+)>>>
             <<<Displacing  38/coordinate 2 (-)>>>
             <<<Displacing  39/coordinate 1 (-)>>>
             <<<Displacing  39/coordinate 3 (+)>>>
             <<<Displacing  39/coordinate 3 (-)>>>
             <<<Displacing  39/coordinate 2 (+)>>>
             <<<Displacing  39/coordinate 2 (-)>>>
             <<<Displacing  40/coordinate 1 (+)>>>
             <<<Displacing  40/coordinate 1 (-)>>>
             <<<Displacing  40/coordinate 2 (+)>>>
             <<<Displacing  40/coordinate 3 (+)>>>
             <<<Displacing  40/coordinate 3 (-)>>>
             <<<Displacing  40/coordinate 2 (-)>>>
             <<<Displacing  41/coordinate 1 (+)>>>
             <<<Displacing  41/coordinate 3 (+)>>>
             <<<Displacing  42/coordinate 1 (+)>>>
             <<<Displacing  41/coordinate 1 (-)>>>
             <<<Displacing  42/coordinate 3 (+)>>>
             <<<Displacing  41/coordinate 3 (-)>>>
             <<<Displacing  42/coordinate 2 (+)>>>
             <<<Displacing  42/coordinate 1 (-)>>>
             <<<Displacing  41/coordinate 2 (+)>>>
             <<<Displacing  42/coordinate 3 (-)>>>
             <<<Displacing  42/coordinate 2 (-)>>>
             <<<Displacing  41/coordinate 2 (-)>>>
             <<<Displacing  43/coordinate 1 (+)>>>
             <<<Displacing  43/coordinate 1 (-)>>>
             <<<Displacing  43/coordinate 2 (+)>>>
             <<<Displacing  43/coordinate 3 (+)>>>
             <<<Displacing  43/coordinate 2 (-)>>>
             <<<Displacing  43/coordinate 3 (-)>>>
             <<<Displacing  44/coordinate 2 (+)>>>
             <<<Displacing  44/coordinate 1 (+)>>>
             <<<Displacing  44/coordinate 1 (-)>>>
             <<<Displacing  44/coordinate 2 (-)>>>
             <<<Displacing  44/coordinate 3 (+)>>>
             <<<Displacing  45/coordinate 1 (+)>>>
             <<<Displacing  44/coordinate 3 (-)>>>
             <<<Displacing  45/coordinate 1 (-)>>>
             <<<Displacing  45/coordinate 3 (+)>>>
             <<<Displacing  45/coordinate 2 (+)>>>
             <<<Displacing  45/coordinate 3 (-)>>>
             <<<Displacing  46/coordinate 1 (+)>>>
             <<<Displacing  46/coordinate 2 (+)>>>
             <<<Displacing  46/coordinate 1 (-)>>>
             <<<Displacing  45/coordinate 2 (-)>>>
             <<<Displacing  46/coordinate 2 (-)>>>
             <<<Displacing  46/coordinate 3 (+)>>>
             <<<Displacing  46/coordinate 3 (-)>>>

-----------------------
VIBRATIONAL FREQUENCIES
-----------------------

Scaling factor for frequencies =  1.000000000 (already applied!)

   0:         0.00 cm**-1
   1:         0.00 cm**-1
   2:         0.00 cm**-1
   3:         0.00 cm**-1
   4:         0.00 cm**-1
   5:         0.00 cm**-1
   6:      -697.41 cm**-1 ***imaginary mode***
   7:        26.42 cm**-1
   8:        44.35 cm**-1
   9:        52.92 cm**-1
  10:        66.07 cm**-1
  11:        70.66 cm**-1
  12:        77.91 cm**-1
  13:        89.31 cm**-1
  14:        99.51 cm**-1
  15:       112.79 cm**-1
  16:       122.07 cm**-1
  17:       136.95 cm**-1
  18:       144.76 cm**-1
  19:       166.62 cm**-1
  20:       180.91 cm**-1
  21:       207.81 cm**-1
  22:       235.47 cm**-1
  23:       253.30 cm**-1
  24:       267.19 cm**-1
  25:       284.60 cm**-1
  26:       288.87 cm**-1
  27:       290.67 cm**-1
  28:       345.53 cm**-1
  29:       376.63 cm**-1
  30:       385.13 cm**-1
  31:       394.70 cm**-1
  32:       419.42 cm**-1
  33:       426.83 cm**-1
  34:       457.43 cm**-1
  35:       487.37 cm**-1
  36:       537.94 cm**-1
  37:       557.06 cm**-1
  38:       591.04 cm**-1
  39:       630.24 cm**-1
  40:       677.46 cm**-1
  41:       757.49 cm**-1
  42:       764.35 cm**-1
  43:       769.34 cm**-1
  44:       782.52 cm**-1
  45:       822.68 cm**-1
  46:       828.58 cm**-1
  47:       840.15 cm**-1
  48:       879.20 cm**-1
  49:       885.46 cm**-1
  50:       910.03 cm**-1
  51:       924.45 cm**-1
  52:       933.95 cm**-1
  53:       935.76 cm**-1
  54:       944.76 cm**-1
  55:       945.91 cm**-1
  56:       948.34 cm**-1
  57:       983.58 cm**-1
  58:       995.29 cm**-1
  59:      1028.55 cm**-1
  60:      1051.99 cm**-1
  61:      1056.51 cm**-1
  62:      1068.71 cm**-1
  63:      1081.74 cm**-1
  64:      1088.25 cm**-1
  65:      1098.67 cm**-1
  66:      1108.79 cm**-1
  67:      1110.71 cm**-1
  68:      1113.16 cm**-1
  69:      1130.24 cm**-1
  70:      1134.72 cm**-1
  71:      1161.02 cm**-1
  72:      1176.52 cm**-1
  73:      1183.84 cm**-1
  74:      1197.54 cm**-1
  75:      1207.80 cm**-1
  76:      1214.34 cm**-1
  77:      1239.68 cm**-1
  78:      1258.00 cm**-1
  79:      1269.30 cm**-1
  80:      1271.17 cm**-1
  81:      1275.67 cm**-1
  82:      1276.30 cm**-1
  83:      1279.43 cm**-1
  84:      1283.69 cm**-1
  85:      1284.96 cm**-1
  86:      1307.12 cm**-1
  87:      1332.80 cm**-1
  88:      1341.36 cm**-1
  89:      1370.33 cm**-1
  90:      1374.68 cm**-1
  91:      1393.02 cm**-1
  92:      1409.47 cm**-1
  93:      1427.06 cm**-1
  94:      1431.46 cm**-1
  95:      1434.95 cm**-1
  96:      1460.93 cm**-1
  97:      1467.29 cm**-1
  98:      1478.26 cm**-1
  99:      1499.18 cm**-1
 100:      1503.36 cm**-1
 101:      1504.34 cm**-1
 102:      1507.35 cm**-1
 103:      1507.63 cm**-1
 104:      1507.83 cm**-1
 105:      1510.15 cm**-1
 106:      1510.19 cm**-1
 107:      1512.90 cm**-1
 108:      1550.41 cm**-1
 109:      1564.86 cm**-1
 110:      1573.99 cm**-1
 111:      2822.95 cm**-1
 112:      2870.71 cm**-1
 113:      2892.66 cm**-1
 114:      2924.94 cm**-1
 115:      2927.55 cm**-1
 116:      2930.94 cm**-1
 117:      2936.25 cm**-1
 118:      2941.24 cm**-1
 119:      2949.15 cm**-1
 120:      2953.89 cm**-1
 121:      2958.64 cm**-1
 122:      2962.91 cm**-1
 123:      2963.27 cm**-1
 124:      2971.15 cm**-1
 125:      2977.45 cm**-1
 126:      2983.63 cm**-1
 127:      2991.39 cm**-1
 128:      2993.70 cm**-1
 129:      2996.82 cm**-1
 130:      3007.43 cm**-1
 131:      3042.96 cm**-1
 132:      3051.06 cm**-1
 133:      3055.74 cm**-1
 134:      3067.01 cm**-1
 135:      3079.91 cm**-1
 136:      3390.21 cm**-1
 137:      3586.89 cm**-1


------------
NORMAL MODES
------------

These modes are the cartesian displacements weighted by the diagonal matrix
M(i,i)=1/sqrt(m[i]) where m[i] is the mass of the displaced atom
Thus, these vectors are normalized but *not* orthogonal

                  0          1          2          3          4          5    
      0       0.000000   0.000000   0.000000   0.000000   0.000000   0.000000
      1       0.000000   0.000000   0.000000   0.000000   0.000000   0.000000
      2       0.000000   0.000000   0.000000   0.000000   0.000000   0.000000
      3       0.000000   0.000000   0.000000   0.000000   0.000000   0.000000
      4       0.000000   0.000000   0.000000   0.000000   0.000000   0.000000
      5       0.000000   0.000000   0.000000   0.000000   0.000000   0.000000
      6       0.000000   0.000000   0.000000   0.000000   0.000000   0.000000
      7       0.000000   0.000000   0.000000   0.000000   0.000000   0.000000
      8       0.000000   0.000000   0.000000   0.000000   0.000000   0.000000
      9       0.000000   0.000000   0.000000   0.000000   0.000000   0.000000
     10       0.000000   0.000000   0.000000   0.000000   0.000000   0.000000
     11       0.000000   0.000000   0.000000   0.000000   0.000000   0.000000
     12       0.000000   0.000000   0.000000   0.000000   0.000000   0.000000
     13       0.000000   0.000000   0.000000   0.000000   0.000000   0.000000
     14       0.000000   0.000000   0.000000   0.000000   0.000000   0.000000
     15       0.000000   0.000000   0.000000   0.000000   0.000000   0.000000
     16       0.000000   0.000000   0.000000   0.000000   0.000000   0.000000
     17       0.000000   0.000000   0.000000   0.000000   0.000000   0.000000
     18       0.000000   0.000000   0.000000   0.000000   0.000000   0.000000
     19       0.000000   0.000000   0.000000   0.000000   0.000000   0.000000
     20       0.000000   0.000000   0.000000   0.000000   0.000000   0.000000
     21       0.000000   0.000000   0.000000   0.000000   0.000000   0.000000
     22       0.000000   0.000000   0.000000   0.000000   0.000000   0.000000
     23       0.000000   0.000000   0.000000   0.000000   0.000000   0.000000
     24       0.000000   0.000000   0.000000   0.000000   0.000000   0.000000
     25       0.000000   0.000000   0.000000   0.000000   0.000000   0.000000
     26       0.000000   0.000000   0.000000   0.000000   0.000000   0.000000
     27       0.000000   0.000000   0.000000   0.000000   0.000000   0.000000
     28       0.000000   0.000000   0.000000   0.000000   0.000000   0.000000
     29       0.000000   0.000000   0.000000   0.000000   0.000000   0.000000
     30       0.000000   0.000000   0.000000   0.000000   0.000000   0.000000
     31       0.000000   0.000000   0.000000   0.000000   0.000000   0.000000
     32       0.000000   0.000000   0.000000   0.000000   0.000000   0.000000
     33       0.000000   0.000000   0.000000   0.000000   0.000000   0.000000
     34       0.000000   0.000000   0.000000   0.000000   0.000000   0.000000
     35       0.000000   0.000000   0.000000   0.000000   0.000000   0.000000
     36       0.000000   0.000000   0.000000   0.000000   0.000000   0.000000
     37       0.000000   0.000000   0.000000   0.000000   0.000000   0.000000
     38       0.000000   0.000000   0.000000   0.000000   0.000000   0.000000
     39       0.000000   0.000000   0.000000   0.000000   0.000000   0.000000
     40       0.000000   0.000000   0.000000   0.000000   0.000000   0.000000
     41       0.000000   0.000000   0.000000   0.000000   0.000000   0.000000
     42       0.000000   0.000000   0.000000   0.000000   0.000000   0.000000
     43       0.000000   0.000000   0.000000   0.000000   0.000000   0.000000
     44       0.000000   0.000000   0.000000   0.000000   0.000000   0.000000
     45       0.000000   0.000000   0.000000   0.000000   0.000000   0.000000
     46       0.000000   0.000000   0.000000   0.000000   0.000000   0.000000
     47       0.000000   0.000000   0.000000   0.000000   0.000000   0.000000
     48       0.000000   0.000000   0.000000   0.000000   0.000000   0.000000
     49       0.000000   0.000000   0.000000   0.000000   0.000000   0.000000
     50       0.000000   0.000000   0.000000   0.000000   0.000000   0.000000
     51       0.000000   0.000000   0.000000   0.000000   0.000000   0.000000
     52       0.000000   0.000000   0.000000   0.000000   0.000000   0.000000
     53       0.000000   0.000000   0.000000   0.000000   0.000000   0.000000
     54       0.000000   0.000000   0.000000   0.000000   0.000000   0.000000
     55       0.000000   0.000000   0.000000   0.000000   0.000000   0.000000
     56       0.000000   0.000000   0.000000   0.000000   0.000000   0.000000
     57       0.000000   0.000000   0.000000   0.000000   0.000000   0.000000
     58       0.000000   0.000000   0.000000   0.000000   0.000000   0.000000
     59       0.000000   0.000000   0.000000   0.000000   0.000000   0.000000
     60       0.000000   0.000000   0.000000   0.000000   0.000000   0.000000
     61       0.000000   0.000000   0.000000   0.000000   0.000000   0.000000
     62       0.000000   0.000000   0.000000   0.000000   0.000000   0.000000
     63       0.000000   0.000000   0.000000   0.000000   0.000000   0.000000
     64       0.000000   0.000000   0.000000   0.000000   0.000000   0.000000
     65       0.000000   0.000000   0.000000   0.000000   0.000000   0.000000
     66       0.000000   0.000000   0.000000   0.000000   0.000000   0.000000
     67       0.000000   0.000000   0.000000   0.000000   0.000000   0.000000
     68       0.000000   0.000000   0.000000   0.000000   0.000000   0.000000
     69       0.000000   0.000000   0.000000   0.000000   0.000000   0.000000
     70       0.000000   0.000000   0.000000   0.000000   0.000000   0.000000
     71       0.000000   0.000000   0.000000   0.000000   0.000000   0.000000
     72       0.000000   0.000000   0.000000   0.000000   0.000000   0.000000
     73       0.000000   0.000000   0.000000   0.000000   0.000000   0.000000
     74       0.000000   0.000000   0.000000   0.000000   0.000000   0.000000
     75       0.000000   0.000000   0.000000   0.000000   0.000000   0.000000
     76       0.000000   0.000000   0.000000   0.000000   0.000000   0.000000
     77       0.000000   0.000000   0.000000   0.000000   0.000000   0.000000
     78       0.000000   0.000000   0.000000   0.000000   0.000000   0.000000
     79       0.000000   0.000000   0.000000   0.000000   0.000000   0.000000
     80       0.000000   0.000000   0.000000   0.000000   0.000000   0.000000
     81       0.000000   0.000000   0.000000   0.000000   0.000000   0.000000
     82       0.000000   0.000000   0.000000   0.000000   0.000000   0.000000
     83       0.000000   0.000000   0.000000   0.000000   0.000000   0.000000
     84       0.000000   0.000000   0.000000   0.000000   0.000000   0.000000
     85       0.000000   0.000000   0.000000   0.000000   0.000000   0.000000
     86       0.000000   0.000000   0.000000   0.000000   0.000000   0.000000
     87       0.000000   0.000000   0.000000   0.000000   0.000000   0.000000
     88       0.000000   0.000000   0.000000   0.000000   0.000000   0.000000
     89       0.000000   0.000000   0.000000   0.000000   0.000000   0.000000
     90       0.000000   0.000000   0.000000   0.000000   0.000000   0.000000
     91       0.000000   0.000000   0.000000   0.000000   0.000000   0.000000
     92       0.000000   0.000000   0.000000   0.000000   0.000000   0.000000
     93       0.000000   0.000000   0.000000   0.000000   0.000000   0.000000
     94       0.000000   0.000000   0.000000   0.000000   0.000000   0.000000
     95       0.000000   0.000000   0.000000   0.000000   0.000000   0.000000
     96       0.000000   0.000000   0.000000   0.000000   0.000000   0.000000
     97       0.000000   0.000000   0.000000   0.000000   0.000000   0.000000
     98       0.000000   0.000000   0.000000   0.000000   0.000000   0.000000
     99       0.000000   0.000000   0.000000   0.000000   0.000000   0.000000
    100       0.000000   0.000000   0.000000   0.000000   0.000000   0.000000
    101       0.000000   0.000000   0.000000   0.000000   0.000000   0.000000
    102       0.000000   0.000000   0.000000   0.000000   0.000000   0.000000
    103       0.000000   0.000000   0.000000   0.000000   0.000000   0.000000
    104       0.000000   0.000000   0.000000   0.000000   0.000000   0.000000
    105       0.000000   0.000000   0.000000   0.000000   0.000000   0.000000
    106       0.000000   0.000000   0.000000   0.000000   0.000000   0.000000
    107       0.000000   0.000000   0.000000   0.000000   0.000000   0.000000
    108       0.000000   0.000000   0.000000   0.000000   0.000000   0.000000
    109       0.000000   0.000000   0.000000   0.000000   0.000000   0.000000
    110       0.000000   0.000000   0.000000   0.000000   0.000000   0.000000
    111       0.000000   0.000000   0.000000   0.000000   0.000000   0.000000
    112       0.000000   0.000000   0.000000   0.000000   0.000000   0.000000
    113       0.000000   0.000000   0.000000   0.000000   0.000000   0.000000
    114       0.000000   0.000000   0.000000   0.000000   0.000000   0.000000
    115       0.000000   0.000000   0.000000   0.000000   0.000000   0.000000
    116       0.000000   0.000000   0.000000   0.000000   0.000000   0.000000
    117       0.000000   0.000000   0.000000   0.000000   0.000000   0.000000
    118       0.000000   0.000000   0.000000   0.000000   0.000000   0.000000
    119       0.000000   0.000000   0.000000   0.000000   0.000000   0.000000
    120       0.000000   0.000000   0.000000   0.000000   0.000000   0.000000
    121       0.000000   0.000000   0.000000   0.000000   0.000000   0.000000
    122       0.000000   0.000000   0.000000   0.000000   0.000000   0.000000
    123       0.000000   0.000000   0.000000   0.000000   0.000000   0.000000
    124       0.000000   0.000000   0.000000   0.000000   0.000000   0.000000
    125       0.000000   0.000000   0.000000   0.000000   0.000000   0.000000
    126       0.000000   0.000000   0.000000   0.000000   0.000000   0.000000
    127       0.000000   0.000000   0.000000   0.000000   0.000000   0.000000
    128       0.000000   0.000000   0.000000   0.000000   0.000000   0.000000
    129       0.000000   0.000000   0.000000   0.000000   0.000000   0.000000
    130       0.000000   0.000000   0.000000   0.000000   0.000000   0.000000
    131       0.000000   0.000000   0.000000   0.000000   0.000000   0.000000
    132       0.000000   0.000000   0.000000   0.000000   0.000000   0.000000
    133       0.000000   0.000000   0.000000   0.000000   0.000000   0.000000
    134       0.000000   0.000000   0.000000   0.000000   0.000000   0.000000
    135       0.000000   0.000000   0.000000   0.000000   0.000000   0.000000
    136       0.000000   0.000000   0.000000   0.000000   0.000000   0.000000
    137       0.000000   0.000000   0.000000   0.000000   0.000000   0.000000
                  6          7          8          9         10         11    
      0       0.004221  -0.042375  -0.000955  -0.020204  -0.009845   0.006507
      1       0.002216  -0.026316   0.180885  -0.036107   0.063582  -0.108462
      2       0.000403  -0.016857  -0.000338   0.071101   0.039701  -0.019293
      3       0.006153  -0.040757  -0.000778  -0.030904  -0.019705   0.020503
      4      -0.000603  -0.025711   0.083078  -0.044264   0.047116  -0.144564
      5       0.003131  -0.011191   0.003546   0.032521   0.004142   0.032611
      6       0.010959  -0.044759   0.016997  -0.004866   0.009086  -0.013930
      7      -0.009218  -0.024386   0.014801  -0.021251  -0.001102  -0.024302
      8       0.004894  -0.007063   0.004748  -0.003322  -0.013569   0.035177
      9      -0.002438  -0.050768   0.031869   0.032613   0.048689  -0.065760
     10       0.001419  -0.022179   0.051568   0.010758  -0.034667   0.133123
     11       0.000798  -0.009165   0.001700   0.001003   0.004867  -0.011792
     12      -0.000620  -0.052311   0.032018   0.043648   0.059077  -0.080291
     13       0.002362  -0.023175   0.150971   0.017476  -0.016889   0.167802
     14       0.000633  -0.014801  -0.002581   0.039750   0.040219  -0.064040
     15       0.000189  -0.048152   0.015768   0.017116   0.029755  -0.044541
     16       0.000458  -0.025557   0.214909  -0.006410   0.032343   0.048983
     17      -0.000041  -0.018571  -0.003383   0.074558   0.057310  -0.068099
     18       0.009322  -0.036090  -0.014692  -0.060369  -0.051233   0.060313
     19      -0.004458  -0.026128   0.056972  -0.069540   0.071793  -0.264388
     20       0.003558  -0.009866   0.005727   0.030274  -0.009603   0.069584
     21       0.000707  -0.054072   0.040709   0.055005   0.071950  -0.097428
     22      -0.017266  -0.019175  -0.003280   0.028841  -0.074789   0.225062
     23       0.004062  -0.006393   0.005041  -0.026533  -0.010203  -0.000095
     24      -0.000590  -0.049368   0.015671   0.025396   0.037278  -0.055306
     25      -0.003850  -0.026400   0.289245  -0.001941   0.045528   0.078434
     26      -0.001404  -0.022848  -0.006344   0.104006   0.083677  -0.107571
     27      -0.007998  -0.045889   0.020335  -0.004003   0.004200  -0.003130
     28      -0.098027  -0.031666  -0.100113  -0.001185  -0.007123  -0.010774
     29      -0.013632   0.002088   0.003127  -0.050534  -0.047013   0.058707
     30       0.023099  -0.001993   0.034981   0.010731  -0.008787   0.004794
     31      -0.240489  -0.016047  -0.131837   0.005839  -0.017639  -0.010945
     32      -0.169443   0.004708  -0.028824  -0.156667  -0.047848  -0.001135
     33      -0.008138  -0.046268   0.012992  -0.008412   0.014768  -0.003513
     34      -0.024668  -0.024792  -0.128831  -0.048486   0.029969   0.013777
     35      -0.006692  -0.006543  -0.003047  -0.028937  -0.031762   0.037281
     36      -0.049716  -0.103479  -0.024493   0.004972   0.051348   0.001069
     37       0.019455  -0.079000  -0.190915  -0.100807   0.107978   0.070585
     38       0.019525  -0.121268  -0.115376  -0.093347   0.102697   0.120454
     39       0.074413  -0.030596   0.005606  -0.014552   0.037426  -0.010156
     40      -0.002244  -0.104848  -0.208031  -0.103318   0.122842   0.082462
     41      -0.055809   0.099484   0.101702   0.043118  -0.153154  -0.053542
     42      -0.062014  -0.033570   0.024489   0.017370  -0.024857   0.006585
     43       0.799809  -0.027345  -0.111356   0.039376  -0.018699   0.005512
     44       0.388047   0.005921  -0.002861  -0.118222  -0.039166   0.022031
     45      -0.026300  -0.001179  -0.003040   0.033893  -0.031871   0.020974
     46       0.026531  -0.026698  -0.110704   0.031506  -0.018163   0.007354
     47      -0.029025   0.004984  -0.012591  -0.167138  -0.038845  -0.009355
     48      -0.010540  -0.038071   0.097317  -0.035018  -0.005288  -0.008963
     49       0.121400  -0.002767  -0.086041  -0.098475  -0.015877  -0.083114
     50       0.020300   0.013566  -0.043245  -0.087809  -0.045648   0.019508
     51       0.012370   0.027784  -0.035432   0.047851  -0.033160   0.027512
     52       0.008339  -0.072623  -0.068358   0.015621  -0.022227   0.003249
     53      -0.003567   0.007257   0.023813  -0.199240  -0.004867  -0.041723
     54      -0.001680   0.025019  -0.064030   0.138390  -0.061825   0.073230
     55       0.010249  -0.092461  -0.048012  -0.100274  -0.023559  -0.031473
     56       0.000139   0.006355   0.036263  -0.242821   0.005273  -0.061522
     57       0.011299   0.009786   0.001417  -0.013317  -0.016046  -0.001948
     58       0.002837  -0.095810  -0.045640   0.085572  -0.025969   0.025100
     59       0.003763   0.003453   0.048533  -0.314088   0.016815  -0.088563
     60       0.022916  -0.043467   0.017119  -0.013945   0.001313  -0.006043
     61      -0.110651  -0.024944  -0.079797  -0.041663  -0.012097  -0.040494
     62       0.073651  -0.000383   0.004863  -0.035123  -0.041381   0.063229
     63      -0.009808  -0.041564  -0.017993  -0.030737  -0.009410   0.001563
     64       0.065434  -0.015481  -0.108122  -0.081121  -0.015273  -0.063281
     65      -0.088156  -0.007060   0.020274  -0.007989  -0.041013   0.082508
     66       0.007057  -0.034887   0.089589  -0.024828  -0.002697  -0.010483
     67       0.112170  -0.012141  -0.101931  -0.082832  -0.015902  -0.067114
     68      -0.014060   0.007725  -0.031415  -0.103768  -0.049910   0.022947
     69      -0.084262   0.010627  -0.039846   0.053349  -0.048750   0.034510
     70       0.115533  -0.002054  -0.128477   0.056839  -0.021242   0.030086
     71      -0.117289   0.005679  -0.044724  -0.157496  -0.056057  -0.005364
     72      -0.000484   0.000483   0.055920  -0.024630  -0.046314   0.009997
     73      -0.003012   0.153579   0.026597   0.036717  -0.129215  -0.108004
     74      -0.003234  -0.006057  -0.004249   0.002099  -0.016736   0.001462
     75      -0.003403  -0.013944   0.071670  -0.003216  -0.213360  -0.068513
     76      -0.003225   0.226460   0.105626   0.101101  -0.279936  -0.220194
     77      -0.002016  -0.101699  -0.105889  -0.080355   0.169716   0.142501
     78       0.000998   0.052227   0.083926  -0.059063   0.016611   0.085425
     79      -0.003425   0.201989   0.090727   0.103647  -0.302615  -0.235414
     80      -0.000339   0.101145   0.110388   0.078944  -0.233195  -0.138036
     81      -0.005085   0.083930  -0.084080   0.022968  -0.011738   0.012016
     82      -0.002021  -0.062605  -0.078582   0.059292  -0.021847   0.016120
     83      -0.002681   0.018627   0.009945  -0.006674  -0.013013   0.018393
     84       0.002821   0.096500  -0.115898   0.034979  -0.016223   0.024332
     85       0.001125  -0.040843  -0.104602  -0.034687  -0.009956  -0.013230
     86      -0.000553   0.018837  -0.009345   0.068856  -0.026076   0.051846
     87       0.001473   0.091357  -0.064775  -0.001965   0.004829  -0.010448
     88       0.001821  -0.039719  -0.099997   0.190266  -0.020889   0.054326
     89      -0.001431   0.017433   0.001122   0.012065  -0.019232   0.029564
     90       0.005508  -0.039137  -0.014338  -0.041155  -0.033312   0.035376
     91       0.001857  -0.027417   0.229675  -0.054171   0.100606  -0.201499
     92      -0.002176  -0.019915  -0.001062   0.098342   0.052958  -0.021191
     93      -0.002787  -0.056804   0.044508   0.072721   0.089741  -0.119107
     94       0.000303  -0.021853   0.176577   0.040632  -0.042163   0.288536
     95       0.001035  -0.016241  -0.004700   0.042521   0.053423  -0.099205
     96      -0.000124  -0.001184   0.044168  -0.028923   0.022793   0.034231
     97       0.000517   0.163820  -0.010611  -0.051835   0.153337   0.093137
     98       0.000245  -0.018905  -0.023190   0.046282   0.047795  -0.045620
     99      -0.000789  -0.037322   0.026370   0.011800  -0.048693  -0.047960
    100      -0.000084   0.129499  -0.064725  -0.114360   0.322228   0.222706
    101      -0.002077  -0.094249  -0.116250  -0.020638   0.254467   0.094760
    102      -0.000861   0.007916   0.024558  -0.050923   0.197202   0.111988
    103       0.000856   0.111692  -0.075247  -0.110907   0.296933   0.208792
    104      -0.001365   0.047979   0.058234   0.120459  -0.126450  -0.189251
    105      -0.000267   0.112540  -0.119243   0.017502  -0.001868   0.010038
    106      -0.002128  -0.110867  -0.026274   0.058157  -0.040472   0.019303
    107       0.000476   0.032704   0.033567   0.071262   0.004014   0.022309
    108      -0.000975   0.104629  -0.132990   0.017325  -0.015562   0.023514
    109       0.000523  -0.133139  -0.013219  -0.036907  -0.046814  -0.005825
    110      -0.000364   0.033873   0.039845   0.063508   0.008668   0.015138
    111      -0.000420   0.100661  -0.091065   0.021288   0.000038   0.003680
    112       0.001236  -0.130660   0.004549   0.126880  -0.050607   0.040141
    113       0.000230   0.032431   0.045138   0.029627   0.012921   0.001099
    114      -0.001309   0.164043  -0.172388   0.008329   0.023494  -0.000761
    115      -0.001684  -0.101215  -0.033472   0.091022  -0.037761   0.027983
    116       0.000622   0.045022   0.033115   0.210973   0.002666   0.063247
    117      -0.001107   0.180680  -0.192281   0.006693   0.030375  -0.002240
    118      -0.003087  -0.131552  -0.000019   0.086711  -0.051024   0.029786
    119       0.000691   0.055817   0.037419   0.254470   0.011595   0.067667
    120       0.000332   0.174429  -0.192091   0.009226   0.023887   0.003547
    121      -0.000124  -0.084246  -0.059413   0.028661  -0.027777   0.008075
    122       0.000324   0.044364   0.029911   0.256442  -0.004043   0.082203
    123       0.000379   0.173697  -0.171344   0.003308   0.034370  -0.010986
    124      -0.000268  -0.081125  -0.046068   0.181256  -0.032599   0.052401
    125       0.000790   0.043839   0.031372   0.222456  -0.000565   0.069437
    126       0.000428   0.031452   0.079959  -0.057993  -0.040022   0.065613
    127       0.000247   0.278479   0.100571   0.014092   0.038840  -0.017458
    128      -0.000094  -0.019119  -0.026465   0.082759   0.071159  -0.093466
    129       0.000293   0.030374   0.072909  -0.056376   0.000323   0.073877
    130      -0.000735   0.283864   0.082771  -0.030877   0.181941   0.088796
    131      -0.000647  -0.025711  -0.037741   0.115872   0.111168  -0.133163
    132      -0.000079   0.067390   0.103452  -0.087239  -0.003641   0.124906
    133      -0.000427   0.308658   0.144361   0.061487  -0.084032  -0.116279
    134      -0.000760   0.047624   0.053171   0.136171  -0.090874  -0.205725
    135       0.000959   0.020423   0.089807  -0.051688  -0.163034   0.021462
    136      -0.000205   0.325863   0.155868   0.060701  -0.067443  -0.107937
    137       0.000526  -0.079731  -0.097809   0.022706   0.211151   0.023996
                 12         13         14         15         16         17    
      0       0.007967   0.021607  -0.026035   0.005509   0.027381  -0.011885
      1      -0.029248  -0.146065  -0.041620   0.006834  -0.007305  -0.048562
      2       0.029322   0.078478   0.017285  -0.008740  -0.004462   0.024236
      3       0.005904   0.008429  -0.029677   0.006187   0.029666  -0.019125
      4      -0.034489  -0.139531  -0.004445   0.011493   0.013114   0.030921
      5       0.021487   0.029267   0.001871  -0.006066   0.004941  -0.007519
      6       0.009848   0.030104  -0.025695   0.004043   0.018221  -0.013060
      7      -0.007157   0.015854   0.023087   0.003272   0.031261   0.068064
      8       0.008465  -0.042335  -0.010260  -0.001521   0.011454  -0.025926
      9       0.016289   0.066330  -0.019496   0.001513   0.006859  -0.002815
     10       0.023836   0.165309   0.025564  -0.010150   0.031064   0.067215
     11       0.004436  -0.061611  -0.008944   0.000276   0.008130  -0.021885
     12       0.018558   0.080106  -0.016021   0.000807   0.003735   0.005004
     13       0.029261   0.170455  -0.009760  -0.015949   0.012540  -0.006184
     14       0.011776  -0.016826   0.006089  -0.001750  -0.002085   0.008193
     15       0.014248   0.056870  -0.019398   0.002866   0.014650   0.000147
     16       0.002946   0.014167  -0.047822  -0.007614  -0.007295  -0.079431
     17       0.023807   0.052094   0.020390  -0.006251  -0.007964   0.034089
     18       0.000924  -0.018922  -0.035179   0.008033   0.041097  -0.029980
     19      -0.060299  -0.253969  -0.001704   0.019915   0.014008   0.044694
     20       0.025984   0.047515  -0.000190  -0.007552   0.007905  -0.013330
     21       0.019232   0.082320  -0.016653   0.001103  -0.002699   0.001683
     22       0.040703   0.265237   0.051183  -0.017304   0.043770   0.102119
     23      -0.002536  -0.102399  -0.017814   0.002480   0.014888  -0.034930
     24       0.015861   0.066674  -0.016008   0.002309   0.012667   0.006969
     25       0.006567   0.015722  -0.079877  -0.012680  -0.022195  -0.154456
     26       0.029262   0.086631   0.033511  -0.007918  -0.014789   0.060587
     27       0.003063   0.029604  -0.017969   0.002821   0.016574  -0.028621
     28       0.037034   0.000187  -0.025149   0.014838   0.039050  -0.007489
     29       0.006948  -0.114703  -0.021766   0.007340   0.015322   0.007687
     30       0.060987  -0.066225   0.193698  -0.032272  -0.117036   0.135799
     31      -0.015874   0.039004  -0.008317   0.055156  -0.024597  -0.022219
     32      -0.148613   0.081529  -0.033276  -0.023338   0.067370  -0.080194
     33       0.009825   0.030504  -0.031316  -0.002562   0.021214  -0.035728
     34       0.063067   0.006470  -0.072638  -0.021682   0.054024  -0.060637
     35       0.010834  -0.108487  -0.030909   0.015018   0.018726   0.025490
     36      -0.004951   0.038449  -0.003445   0.057100   0.052884  -0.028804
     37       0.073989   0.002929  -0.082926   0.015515   0.103640  -0.107338
     38       0.016471  -0.107764  -0.027451   0.106298   0.110421  -0.036494
     39       0.021472   0.046086  -0.062613  -0.034725   0.015757  -0.055752
     40       0.069792  -0.001557  -0.070535   0.044195   0.120851  -0.106717
     41       0.001938  -0.096410  -0.033629  -0.073593  -0.068776   0.085533
     42      -0.071151   0.005171   0.075847  -0.021837  -0.037637  -0.002989
     43       0.033234  -0.035986  -0.030757   0.054526  -0.021532  -0.001882
     44      -0.024483  -0.038933  -0.006716  -0.020371   0.038988   0.003424
     45      -0.095526  -0.028731   0.131328  -0.046660  -0.072204   0.015811
     46       0.033483  -0.040256  -0.014316   0.043869  -0.007275  -0.000393
     47      -0.086969   0.066522  -0.006692  -0.021737   0.050921  -0.031071
     48       0.010130  -0.056556  -0.006632   0.034944  -0.015557   0.125638
     49      -0.076983   0.104393   0.070664  -0.062817   0.060938   0.027642
     50      -0.053175  -0.015375   0.041101  -0.058222   0.041458  -0.062269
     51      -0.125283  -0.029435   0.098353  -0.054523  -0.049089  -0.011089
     52       0.047539  -0.043263   0.024914   0.054304  -0.035950   0.019792
     53       0.117542   0.076495   0.104426   0.017416  -0.060300   0.117644
     54      -0.363728  -0.020991  -0.064176  -0.038065  -0.034001  -0.145421
     55       0.147562  -0.062739   0.152363  -0.022754   0.069121   0.054247
     56       0.213329   0.071269   0.175222   0.003628  -0.054823   0.168898
     57       0.028420  -0.034523   0.219054  -0.061791  -0.074247   0.083532
     58      -0.023062  -0.029150  -0.025825   0.106402  -0.135231   0.012796
     59       0.334415   0.060781   0.272217  -0.026862  -0.019870   0.225831
     60       0.009127   0.011417  -0.026932   0.006606   0.017295  -0.008856
     61      -0.019281   0.036534   0.017315  -0.003142   0.054497   0.024752
     62       0.005856  -0.093405  -0.019454   0.004216   0.011306  -0.016530
     63       0.016301  -0.007270  -0.047081   0.007244   0.025963  -0.024715
     64      -0.066080   0.095102   0.019953  -0.030976   0.073402  -0.009493
     65       0.044707  -0.141815  -0.026388   0.024726  -0.000673   0.006736
     66       0.026544  -0.059110   0.016659   0.017727  -0.018989   0.124333
     67      -0.078414   0.117373   0.017782  -0.037363   0.072379  -0.016838
     68      -0.079828  -0.010450   0.000865  -0.028713   0.047663  -0.061568
     69      -0.222524  -0.005484   0.067107  -0.062673  -0.022176  -0.078989
     70       0.036616  -0.101475  -0.023015   0.016494   0.021580   0.003562
     71      -0.228840   0.122556  -0.072670  -0.024682   0.089299  -0.137229
     72       0.021341  -0.015093  -0.043694  -0.026253  -0.002849  -0.023293
     73       0.059807   0.027603  -0.100437  -0.178300  -0.079599   0.005016
     74       0.000893  -0.068397  -0.028008   0.001240   0.010270   0.027837
     75       0.075873  -0.012122  -0.087190  -0.023113   0.017712  -0.038702
     76       0.079030   0.061161  -0.128299  -0.245368  -0.128979   0.023963
     77      -0.021081  -0.111392   0.006389   0.089243   0.076089   0.002153
     78      -0.004077  -0.074374  -0.024725  -0.040077  -0.035521   0.010178
     79       0.091504   0.071204  -0.135931  -0.232687  -0.111140   0.010220
     80       0.031183  -0.043031  -0.068599  -0.090080  -0.059488   0.057939
     81      -0.018192  -0.036164   0.091091  -0.050102   0.001580   0.004398
     82       0.015818  -0.040771  -0.022089   0.082909  -0.069169   0.004948
     83      -0.072145   0.097946  -0.093525   0.127353  -0.216570   0.045981
     84      -0.126262   0.007884  -0.070500   0.046390  -0.074736   0.093281
     85       0.106232  -0.032265  -0.003391   0.080240  -0.014697   0.073998
     86      -0.255496   0.142275  -0.289881   0.238125  -0.338105   0.102111
     87       0.173635  -0.095600   0.286383  -0.163642   0.123113  -0.107575
     88      -0.073354  -0.037689  -0.154146   0.152163  -0.142530  -0.050154
     89      -0.150497   0.120200  -0.176412   0.174655  -0.266354   0.083832
     90       0.004514   0.003258  -0.027893   0.007102   0.035710  -0.015215
     91      -0.050804  -0.271438  -0.067251   0.013284  -0.022357  -0.093229
     92       0.039529   0.135616   0.026984  -0.012440  -0.008412   0.041288
     93       0.023959   0.108634  -0.010122  -0.001414  -0.006939   0.016317
     94       0.052757   0.291184  -0.009873  -0.027420   0.013013  -0.016941
     95       0.008256  -0.034537   0.007671   0.000101  -0.005042   0.013313
     96      -0.001263  -0.004462  -0.025568  -0.024141  -0.005669  -0.024574
     97      -0.019901  -0.049819  -0.027411  -0.138117  -0.087289   0.035935
     98      -0.029421   0.025486  -0.008041  -0.019017   0.002922   0.003799
     99       0.029773   0.051649  -0.076777  -0.124347  -0.045261  -0.038848
    100      -0.047014  -0.110852  -0.028856  -0.206360  -0.137818   0.064670
    101      -0.049716  -0.029012  -0.044422  -0.189342  -0.100079   0.037611
    102      -0.062728   0.006831   0.035874   0.016084   0.002245  -0.025880
    103      -0.030100  -0.110959  -0.055946  -0.254331  -0.159676   0.067345
    104      -0.019635   0.104382   0.031786   0.131819   0.096206  -0.036646
    105      -0.007856  -0.019211   0.004968   0.005371  -0.005046   0.041065
    106      -0.023646  -0.058258   0.092083   0.013638  -0.078642  -0.025028
    107       0.094486   0.013153   0.083393   0.006560  -0.093543  -0.163748
    108      -0.159796   0.018893  -0.156183   0.070108  -0.008270   0.276268
    109      -0.004709  -0.017350   0.177031   0.034167  -0.244467  -0.151839
    110       0.153599   0.001952   0.151242  -0.016450  -0.105102  -0.262748
    111       0.073255  -0.051931   0.150790  -0.066256   0.000536  -0.115449
    112      -0.071146  -0.100659   0.123667  -0.061859   0.034975   0.048373
    113       0.218868   0.004012   0.229114  -0.025226  -0.162529  -0.391130
    114       0.099087  -0.011516  -0.066840   0.081110  -0.017568  -0.034918
    115      -0.028053  -0.073247   0.058193   0.010024  -0.018833   0.022019
    116       0.020911  -0.050391  -0.022134  -0.049925   0.165384   0.069194
    117       0.115559  -0.005613  -0.115165   0.115045  -0.014455  -0.016534
    118      -0.068276  -0.076884   0.130564  -0.040499  -0.033571   0.011008
    119       0.094951  -0.090432   0.043361  -0.097137   0.222727  -0.058512
    120       0.055690   0.003796  -0.167205   0.126150   0.004500   0.102785
    121       0.028574  -0.038020   0.043424   0.078978  -0.130391  -0.063026
    122      -0.067385  -0.058658  -0.122182  -0.049550   0.269373   0.281655
    123       0.203833  -0.028310   0.028971   0.059946  -0.053498  -0.247671
    124      -0.048048  -0.115501  -0.024451  -0.010960   0.151437   0.153184
    125      -0.017694  -0.049102  -0.064429  -0.044796   0.196234   0.157257
    126       0.015222  -0.082767  -0.019458   0.060438   0.035739  -0.005676
    127      -0.053690   0.030103   0.090786   0.160968   0.076624  -0.013818
[...]
  13:        89.31    0.000000  (  0.000000   0.000000   0.000000)
  14:        99.51    0.000000  (  0.000000   0.000000   0.000000)
  15:       112.79    0.000000  (  0.000000   0.000000   0.000000)
  16:       122.07    0.000000  (  0.000000   0.000000   0.000000)
  17:       136.95    0.000000  (  0.000000   0.000000   0.000000)
  18:       144.76    0.000000  (  0.000000   0.000000   0.000000)
  19:       166.62    0.000000  (  0.000000   0.000000   0.000000)
  20:       180.91    0.000000  (  0.000000   0.000000   0.000000)
  21:       207.81    0.000000  (  0.000000   0.000000   0.000000)
  22:       235.47    0.000000  (  0.000000   0.000000   0.000000)
  23:       253.30    0.000000  (  0.000000   0.000000   0.000000)
  24:       267.19    0.000000  (  0.000000   0.000000   0.000000)
  25:       284.60    0.000000  (  0.000000   0.000000   0.000000)
  26:       288.87    0.000000  (  0.000000   0.000000   0.000000)
  27:       290.67    0.000000  (  0.000000   0.000000   0.000000)
  28:       345.53    0.000000  (  0.000000   0.000000   0.000000)
  29:       376.63    0.000000  (  0.000000   0.000000   0.000000)
  30:       385.13    0.000000  (  0.000000   0.000000   0.000000)
  31:       394.70    0.000000  (  0.000000   0.000000   0.000000)
  32:       419.42    0.000000  (  0.000000   0.000000   0.000000)
  33:       426.83    0.000000  (  0.000000   0.000000   0.000000)
  34:       457.43    0.000000  (  0.000000   0.000000   0.000000)
  35:       487.37    0.000000  (  0.000000   0.000000   0.000000)
  36:       537.94    0.000000  (  0.000000   0.000000   0.000000)
  37:       557.06    0.000000  (  0.000000   0.000000   0.000000)
  38:       591.04    0.000000  (  0.000000   0.000000   0.000000)
  39:       630.24    0.000000  (  0.000000   0.000000   0.000000)
  40:       677.46    0.000000  (  0.000000   0.000000   0.000000)
  41:       757.49    0.000000  (  0.000000   0.000000   0.000000)
  42:       764.35    0.000000  (  0.000000   0.000000   0.000000)
  43:       769.34    0.000000  (  0.000000   0.000000   0.000000)
  44:       782.52    0.000000  (  0.000000   0.000000   0.000000)
  45:       822.68    0.000000  (  0.000000   0.000000   0.000000)
  46:       828.58    0.000000  (  0.000000   0.000000   0.000000)
  47:       840.15    0.000000  (  0.000000   0.000000   0.000000)
  48:       879.20    0.000000  (  0.000000   0.000000   0.000000)
  49:       885.46    0.000000  (  0.000000   0.000000   0.000000)
  50:       910.03    0.000000  (  0.000000   0.000000   0.000000)
  51:       924.45    0.000000  (  0.000000   0.000000   0.000000)
  52:       933.95    0.000000  (  0.000000   0.000000   0.000000)
  53:       935.76    0.000000  (  0.000000   0.000000   0.000000)
  54:       944.76    0.000000  (  0.000000   0.000000   0.000000)
  55:       945.91    0.000000  (  0.000000   0.000000   0.000000)
  56:       948.34    0.000000  (  0.000000   0.000000   0.000000)
  57:       983.58    0.000000  (  0.000000   0.000000   0.000000)
  58:       995.29    0.000000  (  0.000000   0.000000   0.000000)
  59:      1028.55    0.000000  (  0.000000   0.000000   0.000000)
  60:      1051.99    0.000000  (  0.000000   0.000000   0.000000)
  61:      1056.51    0.000000  (  0.000000   0.000000   0.000000)
  62:      1068.71    0.000000  (  0.000000   0.000000   0.000000)
  63:      1081.74    0.000000  (  0.000000   0.000000   0.000000)
  64:      1088.25    0.000000  (  0.000000   0.000000   0.000000)
  65:      1098.67    0.000000  (  0.000000   0.000000   0.000000)
  66:      1108.79    0.000000  (  0.000000   0.000000   0.000000)
  67:      1110.71    0.000000  (  0.000000   0.000000   0.000000)
  68:      1113.16    0.000000  (  0.000000   0.000000   0.000000)
  69:      1130.24    0.000000  (  0.000000   0.000000   0.000000)
  70:      1134.72    0.000000  (  0.000000   0.000000   0.000000)
  71:      1161.02    0.000000  (  0.000000   0.000000   0.000000)
  72:      1176.52    0.000000  (  0.000000   0.000000   0.000000)
  73:      1183.84    0.000000  (  0.000000   0.000000   0.000000)
  74:      1197.54    0.000000  (  0.000000   0.000000   0.000000)
  75:      1207.80    0.000000  (  0.000000   0.000000   0.000000)
  76:      1214.34    0.000000  (  0.000000   0.000000   0.000000)
  77:      1239.68    0.000000  (  0.000000   0.000000   0.000000)
  78:      1258.00    0.000000  (  0.000000   0.000000   0.000000)
  79:      1269.30    0.000000  (  0.000000   0.000000   0.000000)
  80:      1271.17    0.000000  (  0.000000   0.000000   0.000000)
  81:      1275.67    0.000000  (  0.000000   0.000000   0.000000)
  82:      1276.30    0.000000  (  0.000000   0.000000   0.000000)
  83:      1279.43    0.000000  (  0.000000   0.000000   0.000000)
  84:      1283.69    0.000000  (  0.000000   0.000000   0.000000)
  85:      1284.96    0.000000  (  0.000000   0.000000   0.000000)
  86:      1307.12    0.000000  (  0.000000   0.000000   0.000000)
  87:      1332.80    0.000000  (  0.000000   0.000000   0.000000)
  88:      1341.36    0.000000  (  0.000000   0.000000   0.000000)
  89:      1370.33    0.000000  (  0.000000   0.000000   0.000000)
  90:      1374.68    0.000000  (  0.000000   0.000000   0.000000)
  91:      1393.02    0.000000  (  0.000000   0.000000   0.000000)
  92:      1409.47    0.000000  (  0.000000   0.000000   0.000000)
  93:      1427.06    0.000000  (  0.000000   0.000000   0.000000)
  94:      1431.46    0.000000  (  0.000000   0.000000   0.000000)
  95:      1434.95    0.000000  (  0.000000   0.000000   0.000000)
  96:      1460.93    0.000000  (  0.000000   0.000000   0.000000)
  97:      1467.29    0.000000  (  0.000000   0.000000   0.000000)
  98:      1478.26    0.000000  (  0.000000   0.000000   0.000000)
  99:      1499.18    0.000000  (  0.000000   0.000000   0.000000)
 100:      1503.36    0.000000  (  0.000000   0.000000   0.000000)
 101:      1504.34    0.000000  (  0.000000   0.000000   0.000000)
 102:      1507.35    0.000000  (  0.000000   0.000000   0.000000)
 103:      1507.63    0.000000  (  0.000000   0.000000   0.000000)
 104:      1507.83    0.000000  (  0.000000   0.000000   0.000000)
 105:      1510.15    0.000000  (  0.000000   0.000000   0.000000)
 106:      1510.19    0.000000  (  0.000000   0.000000   0.000000)
 107:      1512.90    0.000000  (  0.000000   0.000000   0.000000)
 108:      1550.41    0.000000  (  0.000000   0.000000   0.000000)
 109:      1564.86    0.000000  (  0.000000   0.000000   0.000000)
 110:      1573.99    0.000000  (  0.000000   0.000000   0.000000)
 111:      2822.95    0.000000  (  0.000000   0.000000   0.000000)
 112:      2870.71    0.000000  (  0.000000   0.000000   0.000000)
 113:      2892.66    0.000000  (  0.000000   0.000000   0.000000)
 114:      2924.94    0.000000  (  0.000000   0.000000   0.000000)
 115:      2927.55    0.000000  (  0.000000   0.000000   0.000000)
 116:      2930.94    0.000000  (  0.000000   0.000000   0.000000)
 117:      2936.25    0.000000  (  0.000000   0.000000   0.000000)
 118:      2941.24    0.000000  (  0.000000   0.000000   0.000000)
 119:      2949.15    0.000000  (  0.000000   0.000000   0.000000)
 120:      2953.89    0.000000  (  0.000000   0.000000   0.000000)
 121:      2958.64    0.000000  (  0.000000   0.000000   0.000000)
 122:      2962.91    0.000000  (  0.000000   0.000000   0.000000)
 123:      2963.27    0.000000  (  0.000000   0.000000   0.000000)
 124:      2971.15    0.000000  (  0.000000   0.000000   0.000000)
 125:      2977.45    0.000000  (  0.000000   0.000000   0.000000)
 126:      2983.63    0.000000  (  0.000000   0.000000   0.000000)
 127:      2991.39    0.000000  (  0.000000   0.000000   0.000000)
 128:      2993.70    0.000000  (  0.000000   0.000000   0.000000)
 129:      2996.82    0.000000  (  0.000000   0.000000   0.000000)
 130:      3007.43    0.000000  (  0.000000   0.000000   0.000000)
 131:      3042.96    0.000000  (  0.000000   0.000000   0.000000)
 132:      3051.06    0.000000  (  0.000000   0.000000   0.000000)
 133:      3055.74    0.000000  (  0.000000   0.000000   0.000000)
 134:      3067.01    0.000000  (  0.000000   0.000000   0.000000)
 135:      3079.91    0.000000  (  0.000000   0.000000   0.000000)
 136:      3390.21    0.000000  (  0.000000   0.000000   0.000000)
 137:      3586.89    0.000000  (  0.000000   0.000000   0.000000)

The first frequency considered to be a vibration is 7
The total number of vibrations considered is 131


--------------------------
THERMOCHEMISTRY AT 298.15K
--------------------------

Temperature         ... 298.15 K
Pressure            ... 1.00 atm
Total Mass          ... 252.40 AMU

Throughout the following assumptions are being made:
  (1) The electronic state is orbitally nondegenerate
  (2) There are no thermally accessible electronically excited states
  (3) Hindered rotations indicated by low frequency modes are not
      treated as such but are treated as vibrations and this may
      cause some error
  (4) All equations used are the standard statistical mechanics
      equations for an ideal gas
  (5) All vibrations are strictly harmonic

freq.      26.42  E(vib)   ...       0.56 
freq.      44.35  E(vib)   ...       0.53 
freq.      52.92  E(vib)   ...       0.52 
freq.      66.07  E(vib)   ...       0.50 
freq.      70.66  E(vib)   ...       0.50 
freq.      77.91  E(vib)   ...       0.49 
freq.      89.31  E(vib)   ...       0.47 
freq.      99.51  E(vib)   ...       0.46 
freq.     112.79  E(vib)   ...       0.45 
freq.     122.07  E(vib)   ...       0.44 
freq.     136.95  E(vib)   ...       0.42 
freq.     144.76  E(vib)   ...       0.41 
freq.     166.62  E(vib)   ...       0.39 
freq.     180.91  E(vib)   ...       0.37 
freq.     207.81  E(vib)   ...       0.34 
freq.     235.47  E(vib)   ...       0.32 
freq.     253.30  E(vib)   ...       0.30 
freq.     267.19  E(vib)   ...       0.29 
freq.     284.60  E(vib)   ...       0.28 
freq.     288.87  E(vib)   ...       0.27 
freq.     290.67  E(vib)   ...       0.27 
freq.     345.53  E(vib)   ...       0.23 
freq.     376.63  E(vib)   ...       0.21 
freq.     385.13  E(vib)   ...       0.20 
freq.     394.70  E(vib)   ...       0.20 
freq.     419.42  E(vib)   ...       0.18 
freq.     426.83  E(vib)   ...       0.18 
freq.     457.43  E(vib)   ...       0.16 
freq.     487.37  E(vib)   ...       0.15 
freq.     537.94  E(vib)   ...       0.12 
freq.     557.06  E(vib)   ...       0.12 
freq.     591.04  E(vib)   ...       0.10 
freq.     630.24  E(vib)   ...       0.09 
freq.     677.46  E(vib)   ...       0.08 
freq.     757.49  E(vib)   ...       0.06 
freq.     764.35  E(vib)   ...       0.06 
freq.     769.34  E(vib)   ...       0.06 
freq.     782.52  E(vib)   ...       0.05 
freq.     822.68  E(vib)   ...       0.05 
freq.     828.58  E(vib)   ...       0.04 
freq.     840.15  E(vib)   ...       0.04 
freq.     879.20  E(vib)   ...       0.04 
freq.     885.46  E(vib)   ...       0.04 
freq.     910.03  E(vib)   ...       0.03 
freq.     924.45  E(vib)   ...       0.03 
freq.     933.95  E(vib)   ...       0.03 
freq.     935.76  E(vib)   ...       0.03 
freq.     944.76  E(vib)   ...       0.03 
freq.     945.91  E(vib)   ...       0.03 
freq.     948.34  E(vib)   ...       0.03 
freq.     983.58  E(vib)   ...       0.02 
freq.     995.29  E(vib)   ...       0.02 
freq.    1028.55  E(vib)   ...       0.02 
freq.    1051.99  E(vib)   ...       0.02 
freq.    1056.51  E(vib)   ...       0.02 
freq.    1068.71  E(vib)   ...       0.02 
freq.    1081.74  E(vib)   ...       0.02 
freq.    1088.25  E(vib)   ...       0.02 
freq.    1098.67  E(vib)   ...       0.02 
freq.    1108.79  E(vib)   ...       0.02 
freq.    1110.71  E(vib)   ...       0.02 
freq.    1113.16  E(vib)   ...       0.01 
freq.    1130.24  E(vib)   ...       0.01 
freq.    1134.72  E(vib)   ...       0.01 
freq.    1161.02  E(vib)   ...       0.01 
freq.    1176.52  E(vib)   ...       0.01 
freq.    1183.84  E(vib)   ...       0.01 
freq.    1197.54  E(vib)   ...       0.01 
freq.    1207.80  E(vib)   ...       0.01 
freq.    1214.34  E(vib)   ...       0.01 
freq.    1239.68  E(vib)   ...       0.01 
freq.    1258.00  E(vib)   ...       0.01 
freq.    1269.30  E(vib)   ...       0.01 
freq.    1271.17  E(vib)   ...       0.01 
freq.    1275.67  E(vib)   ...       0.01 
freq.    1276.30  E(vib)   ...       0.01 
freq.    1279.43  E(vib)   ...       0.01 
freq.    1283.69  E(vib)   ...       0.01 
freq.    1284.96  E(vib)   ...       0.01 
freq.    1307.12  E(vib)   ...       0.01 
freq.    1332.80  E(vib)   ...       0.01 
freq.    1341.36  E(vib)   ...       0.01 
freq.    1370.33  E(vib)   ...       0.01 
freq.    1374.68  E(vib)   ...       0.01 
freq.    1393.02  E(vib)   ...       0.00 
freq.    1409.47  E(vib)   ...       0.00 
freq.    1427.06  E(vib)   ...       0.00 
freq.    1431.46  E(vib)   ...       0.00 
freq.    1434.95  E(vib)   ...       0.00 
freq.    1460.93  E(vib)   ...       0.00 
freq.    1467.29  E(vib)   ...       0.00 
freq.    1478.26  E(vib)   ...       0.00 
freq.    1499.18  E(vib)   ...       0.00 
freq.    1503.36  E(vib)   ...       0.00 
freq.    1504.34  E(vib)   ...       0.00 
freq.    1507.35  E(vib)   ...       0.00 
freq.    1507.63  E(vib)   ...       0.00 
freq.    1507.83  E(vib)   ...       0.00 
freq.    1510.15  E(vib)   ...       0.00 
freq.    1510.19  E(vib)   ...       0.00 
freq.    1512.90  E(vib)   ...       0.00 
freq.    1550.41  E(vib)   ...       0.00 
freq.    1564.86  E(vib)   ...       0.00 
freq.    1573.99  E(vib)   ...       0.00 
freq.    2822.95  E(vib)   ...       0.00 
freq.    2870.71  E(vib)   ...       0.00 
freq.    2892.66  E(vib)   ...       0.00 
freq.    2924.94  E(vib)   ...       0.00 
freq.    2927.55  E(vib)   ...       0.00 
freq.    2930.94  E(vib)   ...       0.00 
freq.    2936.25  E(vib)   ...       0.00 
freq.    2941.24  E(vib)   ...       0.00 
freq.    2949.15  E(vib)   ...       0.00 
freq.    2953.89  E(vib)   ...       0.00 
freq.    2958.64  E(vib)   ...       0.00 
freq.    2962.91  E(vib)   ...       0.00 
freq.    2963.27  E(vib)   ...       0.00 
freq.    2971.15  E(vib)   ...       0.00 
freq.    2977.45  E(vib)   ...       0.00 
freq.    2983.63  E(vib)   ...       0.00 
freq.    2991.39  E(vib)   ...       0.00 
freq.    2993.70  E(vib)   ...       0.00 
freq.    2996.82  E(vib)   ...       0.00 
freq.    3007.43  E(vib)   ...       0.00 
freq.    3042.96  E(vib)   ...       0.00 
freq.    3051.06  E(vib)   ...       0.00 
freq.    3055.74  E(vib)   ...       0.00 
freq.    3067.01  E(vib)   ...       0.00 
freq.    3079.91  E(vib)   ...       0.00 
freq.    3390.21  E(vib)   ...       0.00 
freq.    3586.89  E(vib)   ...       0.00 

------------
INNER ENERGY
------------

The inner energy is: U= E(el) + E(ZPE) + E(vib) + E(rot) + E(trans)
    E(el)   - is the total energy from the electronic structure calculation
              = E(kin-el) + E(nuc-el) + E(el-el) + E(nuc-nuc)
    E(ZPE)  - the the zero temperature vibrational energy from the frequency calculation
    E(vib)  - the the finite temperature correction to E(ZPE) due to population
              of excited vibrational states
    E(rot)  - is the rotational thermal energy
    E(trans)- is the translational thermal energy

Summary of contributions to the inner energy U:
Electronic energy                ...    -56.26053508 Eh
Zero point energy                ...      0.39804253 Eh     249.77 kcal/mol
Thermal vibrational correction   ...      0.01864867 Eh      11.70 kcal/mol
Thermal rotational correction    ...      0.00141627 Eh       0.89 kcal/mol
Thermal translational correction ...      0.00141627 Eh       0.89 kcal/mol
-----------------------------------------------------------------------
Total thermal energy                    -55.84101135 Eh


Summary of corrections to the electronic energy:
(perhaps to be used in another calculation)
Total thermal correction                  0.02148121 Eh      13.48 kcal/mol
Non-thermal (ZPE) correction              0.39804253 Eh     249.77 kcal/mol
-----------------------------------------------------------------------
Total correction                          0.41952374 Eh     263.25 kcal/mol


--------
ENTHALPY
--------

The enthalpy is H = U + kB*T
                kB is Boltzmann's constant
Total free energy                 ...    -55.84101135 Eh 
Thermal Enthalpy correction       ...      0.00094421 Eh       0.59 kcal/mol
-----------------------------------------------------------------------
Total Enthalpy                    ...    -55.84006714 Eh


Note: Only C1 symmetry has been detected, increase convergence thresholds 
      if your molecule has a higher symmetry. Symmetry factor of 1.0 is   
      used for the rotational entropy correction. 
 

Note: Rotational entropy computed according to Herzberg 
Infrared and Raman Spectra, Chapter V,1, Van Nostrand Reinhold, 1945 
Point Group:  C1, Symmetry Number:   1  
Rotational constants in cm-1:     0.011599     0.007010     0.004887 

Vibrational entropy computed according to the QRRHO of S. Grimme
Chem.Eur.J. 2012 18 9955


-------
ENTROPY
-------

The entropy contributions are T*S = T*(S(el)+S(vib)+S(rot)+S(trans))
     S(el)   - electronic entropy
     S(vib)  - vibrational entropy
     S(rot)  - rotational entropy
     S(trans)- translational entropy
The entropies will be listed as mutliplied by the temperature to get
units of energy

Electronic entropy                ...      0.00000000 Eh      0.00 kcal/mol
Vibrational entropy               ...      0.03338865 Eh     20.95 kcal/mol
Rotational entropy                ...      0.01646864 Eh     10.33 kcal/mol
Translational entropy             ...      0.02018250 Eh     12.66 kcal/mol
-----------------------------------------------------------------------
Final entropy term                ...      0.07003979 Eh     43.95 kcal/mol

In case the symmetry of your molecule has not been determined correctly
or in case you have a reason to use a different symmetry number we print 
out the resulting rotational entropy values for sn=1,12 :
 --------------------------------------------------------
|  sn= 1 | S(rot)=       0.01646864 Eh     10.33 kcal/mol|
|  sn= 2 | S(rot)=       0.01581419 Eh      9.92 kcal/mol|
|  sn= 3 | S(rot)=       0.01543135 Eh      9.68 kcal/mol|
|  sn= 4 | S(rot)=       0.01515973 Eh      9.51 kcal/mol|
|  sn= 5 | S(rot)=       0.01494904 Eh      9.38 kcal/mol|
|  sn= 6 | S(rot)=       0.01477690 Eh      9.27 kcal/mol|
|  sn= 7 | S(rot)=       0.01463135 Eh      9.18 kcal/mol|
|  sn= 8 | S(rot)=       0.01450527 Eh      9.10 kcal/mol|
|  sn= 9 | S(rot)=       0.01439406 Eh      9.03 kcal/mol|
|  sn=10 | S(rot)=       0.01429459 Eh      8.97 kcal/mol|
|  sn=11 | S(rot)=       0.01420460 Eh      8.91 kcal/mol|
|  sn=12 | S(rot)=       0.01412244 Eh      8.86 kcal/mol|
 --------------------------------------------------------


-------------------
GIBBS FREE ENERGY
-------------------

The Gibbs free energy is G = H - T*S

Total enthalpy                    ...    -55.84006714 Eh 
Total entropy correction          ...     -0.07003979 Eh    -43.95 kcal/mol
-----------------------------------------------------------------------
Final Gibbs free energy         ...    -55.91010693 Eh

For completeness - the Gibbs free energy minus the electronic energy
G-E(el)                           ...      0.35042815 Eh    219.90 kcal/mol


Total Time for Numerical Frequencies  :       168.605 sec
Time for Reference State(s)           :         0.220 sec
Time for Displacements                :       149.593 sec

Timings for individual modules:

Sum of individual times         ...        0.471 sec (=   0.008 min)
XTB module                      ...        0.471 sec (=   0.008 min) 100.0 %
                             ****ORCA TERMINATED NORMALLY****
TOTAL RUN TIME: 0 days 0 hours 2 minutes 49 seconds 911 msec
