 Entering Gaussian System
 *********************************************
 Gaussian 98:
 frequency output generated by the xtb code
 *********************************************
                         Standard orientation:
 --------------------------------------------------------------------
  Center     Atomic     Atomic              Coordinates (Angstroms)
  Number     Number      Type              X           Y           Z
 --------------------------------------------------------------------
    1          6             0        1.879285   -1.369489    0.028387
    2          6             0        2.760049   -0.125790   -0.040111
    3          6             0        1.178105    0.907901   -1.677998
    4          1             0       -0.137065   -0.494011   -2.647989
    5          6             0        1.911761    1.102376   -0.355221
    6          1             0        1.895599    0.758933   -2.492797
    7          1             0        0.566457    1.784355   -1.912777
    8          6             0        1.144968   -1.565326   -1.293205
    9          1             0        3.287386    0.013591    0.905750
   10          1             0        3.498322   -0.260121   -0.835367
   11          6             0        0.329211   -0.347169   -1.670987
   12          1             0        0.512496   -2.457977   -1.256702
   13          1             0        1.861863   -1.684145   -2.117725
   14          1             0        2.544306    1.989501   -0.422403
   15          1             0        1.185022    1.263389    0.446798
   16          1             0        2.488547   -2.251808    0.234492
   17          1             0        1.152099   -1.262394    0.839429
   18         35             0       -1.173340   -0.133104   -0.440448
   19          6             0        3.054057   -1.601829   -4.992676
   20          8             0        2.598306   -0.880125   -3.994502
   21          1             0        4.148488   -1.887919   -4.898549
   22          1             0        2.514810   -2.591924   -5.136009
   23          1             0        2.980952   -1.093526   -6.004188
 --------------------------------------------------------------------
     1 basis functions        1 primitive gaussians
     1 alpha electrons        1 beta electrons

 Harmonic frequencies (cm**-1), IR intensities (KM/Mole),
 Raman scattering activities (A**4/amu), Raman depolarization ratios,
 reduced masses (AMU), force constants (mDyne/A) and normal coordinates:
                      1                      2                      3
                        a                      a                      a 
 Frequencies --    10.0187                19.6058                30.5169
 Red. masses --    14.6682                12.9869                17.8345
 Frc consts  --     0.0000                 0.0000                 0.0000
 IR Inten    --     0.6160                 0.4557                 0.9421
 Raman Activ --     0.0000                 0.0000                 0.0000
 Depolar     --     0.0000                 0.0000                 0.0000
 Atom AN      X      Y      Z        X      Y      Z        X      Y      Z
   1   6    -0.03  -0.03  -0.05    -0.02   0.06   0.31    -0.05  -0.01  -0.08
   2   6     0.01  -0.07  -0.17    -0.00   0.04   0.19    -0.04  -0.03  -0.19
   3   6    -0.06  -0.09  -0.11     0.11  -0.16  -0.04    -0.10  -0.07  -0.14
   4   1    -0.05  -0.02   0.01     0.05  -0.08   0.01    -0.07  -0.02   0.01
   5   6     0.03  -0.05  -0.17     0.03   0.01  -0.02    -0.03  -0.02  -0.19
   6   1    -0.03  -0.05  -0.04     0.04  -0.08   0.00    -0.04  -0.04  -0.04
   7   1    -0.01  -0.02  -0.03     0.04  -0.05  -0.05    -0.03  -0.02  -0.05
   8   6    -0.13  -0.07   0.01     0.06  -0.11   0.29    -0.12  -0.04  -0.05
   9   1     0.02  -0.01  -0.06    -0.02   0.05   0.06     0.01   0.00  -0.07
  10   1    -0.01  -0.04  -0.06     0.01  -0.02   0.07    -0.03  -0.02  -0.07
  11   6    -0.10  -0.06   0.00     0.10  -0.15   0.07    -0.13  -0.05  -0.03
  12   1    -0.05  -0.01   0.03     0.01  -0.03   0.11    -0.03  -0.01   0.00
  13   1    -0.05  -0.04  -0.01     0.03  -0.07   0.10    -0.04  -0.02  -0.02
  14   1     0.02  -0.02  -0.07     0.01  -0.00  -0.03    -0.00  -0.01  -0.08
  15   1     0.03   0.00  -0.04    -0.00   0.04  -0.03     0.01   0.01  -0.04
  16   1    -0.01  -0.01  -0.01    -0.01   0.02   0.14    -0.02  -0.00  -0.02
  17   1     0.01   0.01  -0.00    -0.02   0.05   0.07    -0.00   0.01  -0.01
  18  35    -0.05   0.13   0.25     0.03   0.06  -0.22    -0.08   0.08   0.25
  19   6     0.57   0.19   0.04    -0.13   0.35  -0.33     0.01   0.15  -0.16
  20   8    -0.29  -0.16  -0.11    -0.20  -0.25   0.07     0.67  -0.14   0.33
  21   1     0.18   0.18   0.17    -0.01   0.18  -0.19     0.02   0.03  -0.24
  22   1     0.30  -0.00  -0.11     0.04   0.07  -0.19    -0.03   0.06  -0.04
  23   1     0.26   0.09   0.02    -0.13   0.22  -0.03    -0.15   0.13   0.01
                      4                      5                      6
                        a                      a                      a 
 Frequencies --    53.0126                70.1324                98.8295
 Red. masses --     1.3819                12.3670                15.7020
 Frc consts  --     0.0000                 0.0000                 0.0000
 IR Inten    --     0.0988                 0.6612                 0.8366
 Raman Activ --     0.0000                 0.0000                 0.0000
 Depolar     --     0.0000                 0.0000                 0.0000
 Atom AN      X      Y      Z        X      Y      Z        X      Y      Z
   1   6    -0.01  -0.03  -0.04    -0.03  -0.03   0.10    -0.17   0.00   0.17
   2   6    -0.00  -0.03   0.02     0.03  -0.09  -0.10    -0.18   0.01   0.22
   3   6     0.01   0.05   0.06     0.04  -0.24  -0.21    -0.00  -0.11  -0.06
   4   1     0.00   0.03  -0.00    -0.01  -0.09   0.00    -0.02  -0.04   0.01
   5   6     0.00  -0.01   0.07     0.09  -0.09  -0.26    -0.12   0.00  -0.01
   6   1     0.00   0.02   0.02     0.00  -0.11  -0.06     0.01  -0.06   0.00
   7   1     0.00   0.02   0.03     0.02  -0.07  -0.09     0.01  -0.03  -0.05
   8   6    -0.00   0.03  -0.05    -0.05  -0.18   0.14    -0.03  -0.06   0.10
   9   1    -0.00  -0.02   0.01     0.02   0.01  -0.04    -0.10   0.03   0.09
  10   1     0.00   0.00   0.01     0.00  -0.07  -0.03    -0.01  -0.01   0.11
  11   6     0.00   0.05  -0.00    -0.01  -0.20  -0.02    -0.04  -0.08   0.02
  12   1    -0.00   0.01  -0.03    -0.02  -0.05   0.07    -0.01  -0.02   0.02
  13   1    -0.00   0.02  -0.02    -0.01  -0.08   0.05     0.01  -0.02   0.05
  14   1     0.00  -0.00   0.03     0.04  -0.04  -0.12    -0.02  -0.01  -0.01
  15   1    -0.00  -0.01   0.02     0.04   0.02  -0.08    -0.05   0.03  -0.03
  16   1    -0.00  -0.01  -0.02    -0.02  -0.01   0.07    -0.05   0.01   0.08
  17   1    -0.00  -0.02  -0.01    -0.00   0.04   0.03    -0.08   0.01   0.03
  18  35    -0.01   0.02  -0.01     0.06   0.07  -0.07     0.05   0.08   0.19
  19   6     0.04  -0.05   0.01    -0.14   0.12   0.34     0.15  -0.16  -0.29
  20   8    -0.04  -0.03  -0.04    -0.05   0.57   0.13     0.29   0.27  -0.60
  21   1     0.16   0.47  -0.25    -0.04   0.05   0.09     0.03  -0.08  -0.06
  22   1     0.39  -0.27   0.35    -0.04   0.01   0.23     0.01  -0.04   0.01
  23   1    -0.49  -0.25  -0.08    -0.08  -0.08   0.04     0.06  -0.14  -0.13
                      7                      8                      9
                        a                      a                      a 
 Frequencies --   123.3250               181.3469               247.4516
 Red. masses --    30.9669                17.1491                20.7251
 Frc consts  --     0.0000                 0.0000                 0.0000
 IR Inten    --     0.4184                 0.3300                 0.1004
 Raman Activ --     0.0000                 0.0000                 0.0000
 Depolar     --     0.0000                 0.0000                 0.0000
 Atom AN      X      Y      Z        X      Y      Z        X      Y      Z
   1   6    -0.26  -0.04  -0.09     0.40  -0.18  -0.13     0.18  -0.08  -0.16
   2   6    -0.36   0.05   0.20     0.00   0.11  -0.02     0.04   0.05   0.34
   3   6    -0.03  -0.01  -0.18    -0.12  -0.17   0.04     0.23  -0.15  -0.18
   4   1    -0.04   0.01  -0.04    -0.00  -0.10   0.02    -0.02   0.00   0.01
   5   6    -0.28   0.04  -0.04    -0.40  -0.13   0.18     0.18   0.03  -0.18
   6   1     0.03  -0.02  -0.02     0.01  -0.03   0.05     0.07  -0.14  -0.03
   7   1     0.00  -0.01  -0.09    -0.05  -0.07  -0.02     0.13  -0.02  -0.12
   8   6    -0.02   0.00  -0.23     0.12  -0.18   0.02     0.23   0.08  -0.22
   9   1    -0.19   0.02   0.11     0.00   0.04  -0.01    -0.17   0.03   0.20
  10   1    -0.03   0.03   0.12     0.00   0.13  -0.02     0.17   0.04   0.24
  11   6    -0.03  -0.00  -0.19    -0.01  -0.24   0.04     0.03   0.00  -0.02
  12   1     0.01  -0.01  -0.11     0.05  -0.06   0.04     0.13  -0.02  -0.11
  13   1     0.03   0.03  -0.04    -0.01  -0.04  -0.04     0.07   0.12  -0.08
  14   1    -0.07   0.01   0.02    -0.21   0.04   0.13     0.09  -0.02  -0.10
  15   1    -0.13   0.03  -0.06    -0.16  -0.16   0.03     0.03   0.10  -0.09
  16   1    -0.06   0.00  -0.02     0.21  -0.01  -0.14     0.09  -0.01  -0.10
  17   1    -0.12  -0.06  -0.06     0.16  -0.17   0.02     0.03  -0.12  -0.05
  18  35     0.54  -0.01   0.09    -0.00   0.35  -0.05    -0.39   0.03   0.17
  19   6    -0.06   0.06   0.11     0.00   0.00  -0.00    -0.01   0.01   0.01
  20   8    -0.16  -0.09   0.20     0.01   0.02  -0.01    -0.03  -0.01   0.04
  21   1    -0.01   0.04   0.03    -0.00  -0.00   0.00    -0.00   0.01   0.00
  22   1     0.00   0.01  -0.01    -0.00   0.00   0.00    -0.00   0.00  -0.00
  23   1    -0.02   0.05   0.05     0.00  -0.00  -0.00    -0.01   0.01   0.01
                     10                     11                     12
                        a                      a                      a 
 Frequencies --   327.3532               373.0371               438.8144
 Red. masses --     8.9603                 9.9537                 9.7556
 Frc consts  --     0.0000                 0.0000                 0.0000
 IR Inten    --     0.1242                 0.0209                 0.1118
 Raman Activ --     0.0000                 0.0000                 0.0000
 Depolar     --     0.0000                 0.0000                 0.0000
 Atom AN      X      Y      Z        X      Y      Z        X      Y      Z
   1   6     0.08   0.05  -0.11    -0.17   0.22   0.08     0.13  -0.22   0.29
   2   6     0.00   0.12  -0.03     0.13  -0.03  -0.19    -0.00  -0.19   0.03
   3   6     0.42  -0.04  -0.13     0.25  -0.14  -0.10    -0.06   0.26  -0.34
   4   1     0.00   0.09  -0.01     0.01  -0.01  -0.03     0.00  -0.04   0.00
   5   6    -0.09   0.07   0.11    -0.17  -0.18   0.14    -0.14  -0.30  -0.21
   6   1     0.20  -0.19   0.06     0.14  -0.11   0.04    -0.05   0.09  -0.13
   7   1     0.25   0.03  -0.22     0.14  -0.02  -0.12    -0.01   0.10  -0.01
   8   6    -0.41   0.02   0.14     0.28   0.09  -0.15     0.07   0.35   0.24
   9   1     0.01  -0.00  -0.01     0.15  -0.02  -0.12     0.00   0.06  -0.01
  10   1    -0.00   0.08  -0.02    -0.07  -0.02  -0.15    -0.00  -0.09   0.01
  11   6     0.00   0.24  -0.04     0.11  -0.03  -0.14     0.01   0.26  -0.05
  12   1    -0.24   0.10   0.20     0.15  -0.03  -0.13     0.01   0.10  -0.02
  13   1    -0.19  -0.19   0.01     0.15   0.12   0.00     0.06   0.12   0.09
  14   1    -0.07   0.06   0.13    -0.16   0.04   0.19    -0.06  -0.06   0.09
  15   1    -0.11  -0.06  -0.03    -0.13  -0.24   0.01    -0.11  -0.18  -0.10
  16   1     0.06   0.02  -0.14    -0.17   0.02   0.20     0.05  -0.08  -0.06
  17   1     0.10  -0.04   0.05    -0.13   0.24  -0.07     0.10  -0.13   0.14
  18  35    -0.01  -0.17   0.03    -0.16   0.03   0.15    -0.01  -0.05   0.01
  19   6    -0.00  -0.00   0.00    -0.01   0.00  -0.00     0.00   0.00  -0.00
  20   8     0.01   0.02  -0.01    -0.03  -0.00   0.00    -0.00  -0.00  -0.00
  21   1    -0.00  -0.00   0.00    -0.00   0.00   0.00     0.00  -0.00  -0.00
  22   1    -0.00  -0.00   0.01     0.00   0.00  -0.00     0.00   0.00  -0.00
  23   1    -0.00  -0.01  -0.00    -0.00   0.00   0.00     0.00   0.00  -0.00
                     13                     14                     15
                        a                      a                      a 
 Frequencies --   455.1271               533.7028               670.2041
 Red. masses --    11.9432                10.1759                 8.8521
 Frc consts  --     0.0000                 0.0000                 0.0000
 IR Inten    --     0.1379                 0.2464                 0.2840
 Raman Activ --     0.0000                 0.0000                 0.0000
 Depolar     --     0.0000                 0.0000                 0.0000
 Atom AN      X      Y      Z        X      Y      Z        X      Y      Z
   1   6     0.03   0.29  -0.08     0.02   0.09  -0.09    -0.03  -0.01  -0.17
   2   6     0.39   0.03   0.22     0.15   0.02   0.11     0.02  -0.01  -0.08
   3   6    -0.18  -0.21   0.06    -0.03   0.23  -0.10     0.04   0.16  -0.10
   4   1    -0.12  -0.00  -0.03     0.07  -0.02  -0.10    -0.00   0.03   0.20
   5   6     0.03  -0.30   0.01     0.02  -0.11  -0.05    -0.04  -0.04  -0.16
   6   1    -0.08  -0.07  -0.01    -0.04   0.29  -0.10    -0.07  -0.01  -0.09
   7   1     0.00  -0.00   0.08    -0.15   0.02   0.17    -0.03   0.02  -0.01
   8   6    -0.18   0.23  -0.01    -0.05  -0.26  -0.02     0.03  -0.19  -0.05
   9   1    -0.04   0.02   0.14    -0.11   0.02   0.11    -0.18   0.02   0.08
  10   1     0.22   0.02   0.16     0.16   0.02   0.14     0.16   0.02   0.12
  11   6    -0.43  -0.00  -0.07     0.38  -0.07  -0.41     0.06   0.11   0.70
  12   1     0.00   0.03   0.08    -0.15   0.03   0.17    -0.03  -0.02  -0.01
  13   1    -0.08   0.06  -0.03    -0.06  -0.30  -0.01    -0.07  -0.01  -0.09
  14   1    -0.10  -0.01  -0.00    -0.06   0.02   0.09    -0.09   0.06   0.17
  15   1     0.01  -0.17   0.03    -0.04  -0.14  -0.03    -0.11  -0.20  -0.09
  16   1    -0.10   0.01  -0.01    -0.06   0.01   0.09    -0.09  -0.00   0.18
  17   1     0.02   0.17  -0.02    -0.03   0.12  -0.07    -0.10   0.17  -0.14
  18  35     0.16  -0.02  -0.10    -0.14   0.03   0.16     0.03  -0.01  -0.09
  19   6     0.00  -0.00  -0.00    -0.01   0.01   0.01     0.00  -0.00  -0.00
  20   8     0.01  -0.00   0.00     0.01   0.00   0.01     0.00   0.00   0.00
  21   1     0.00  -0.00  -0.00     0.00  -0.00  -0.00    -0.00   0.00  -0.00
  22   1    -0.00   0.00  -0.00    -0.00  -0.00   0.00    -0.00   0.00   0.00
  23   1    -0.00   0.00   0.00    -0.00  -0.00  -0.00    -0.00   0.00   0.00
                     16                     17                     18
                        a                      a                      a 
 Frequencies --   832.4005               867.3342               891.4963
 Red. masses --     4.4529                 9.5890                 4.3973
 Frc consts  --     0.0000                 0.0000                 0.0000
 IR Inten    --     0.0942                 0.3381                 0.2394
 Raman Activ --     0.0000                 0.0000                 0.0000
 Depolar     --     0.0000                 0.0000                 0.0000
 Atom AN      X      Y      Z        X      Y      Z        X      Y      Z
   1   6     0.25  -0.12  -0.02    -0.07   0.28  -0.22    -0.04  -0.11   0.00
   2   6     0.00  -0.14   0.02    -0.29  -0.02  -0.14     0.02  -0.06  -0.38
   3   6    -0.23   0.09   0.03     0.06  -0.29   0.21    -0.10   0.07   0.19
   4   1     0.00  -0.01  -0.00     0.13   0.00   0.02     0.10  -0.01  -0.08
   5   6    -0.25  -0.10   0.05    -0.09  -0.33  -0.12    -0.02   0.11  -0.03
   6   1     0.09  -0.18   0.17    -0.01   0.03   0.01     0.13  -0.10   0.21
   7   1     0.12   0.08  -0.25    -0.05  -0.10   0.16     0.05   0.00  -0.21
   8   6     0.22   0.06  -0.05     0.06   0.33   0.11    -0.10  -0.01   0.20
   9   1    -0.01   0.03  -0.00    -0.16   0.00   0.01    -0.41   0.02   0.13
  10   1     0.01   0.08  -0.01    -0.02   0.00   0.01     0.34   0.02   0.21
  11   6     0.00   0.17  -0.03     0.37   0.02   0.13     0.07  -0.03  -0.15
  12   1    -0.12   0.15   0.20    -0.05   0.15   0.13     0.06  -0.07  -0.20
  13   1    -0.09  -0.22  -0.10    -0.01  -0.03   0.02     0.14   0.16   0.17
  14   1     0.13  -0.18  -0.23     0.04  -0.15  -0.15    -0.04   0.05  -0.01
  15   1     0.10   0.26   0.10     0.03   0.03  -0.01     0.13  -0.10   0.14
  16   1    -0.13  -0.10   0.28     0.04   0.09  -0.18    -0.03  -0.05  -0.00
  17   1    -0.09   0.23  -0.17     0.02  -0.03  -0.01     0.13   0.12   0.11
  18  35    -0.00   0.00  -0.00    -0.01   0.00   0.01     0.00   0.00   0.02
  19   6    -0.00   0.00   0.00     0.00  -0.00  -0.00     0.00  -0.00  -0.00
  20   8     0.00   0.00   0.00     0.00   0.00   0.00    -0.00  -0.00  -0.00
  21   1    -0.00  -0.00   0.00    -0.00  -0.00  -0.00     0.00  -0.00  -0.00
  22   1    -0.00  -0.00   0.00    -0.00   0.00   0.00     0.00  -0.00  -0.00
  23   1    -0.00  -0.00  -0.00     0.00  -0.00  -0.00     0.00  -0.00  -0.00
                     19                     20                     21
                        a                      a                      a 
 Frequencies --   933.5372               934.3726               960.4022
 Red. masses --     8.0054                 7.8098                 4.0497
 Frc consts  --     0.0000                 0.0000                 0.0000
 IR Inten    --     0.4006                 0.1422                 0.0575
 Raman Activ --     0.0000                 0.0000                 0.0000
 Depolar     --     0.0000                 0.0000                 0.0000
 Atom AN      X      Y      Z        X      Y      Z        X      Y      Z
   1   6     0.12   0.27  -0.07    -0.09   0.08  -0.31    -0.18   0.11   0.07
   2   6    -0.36  -0.06  -0.13     0.06  -0.26   0.06     0.00  -0.04   0.01
   3   6     0.14   0.26  -0.05    -0.11   0.09  -0.30    -0.27   0.06   0.11
   4   1    -0.10  -0.05  -0.02     0.01  -0.32   0.05     0.00   0.02  -0.00
   5   6     0.14  -0.22   0.10     0.05   0.25   0.25     0.18   0.07  -0.11
   6   1     0.03   0.03  -0.01     0.00   0.02  -0.05    -0.01  -0.24   0.13
   7   1     0.16   0.18   0.06    -0.11  -0.06  -0.19     0.08   0.04  -0.23
   8   6     0.16  -0.20   0.11     0.06   0.25   0.24     0.27   0.01  -0.13
   9   1    -0.18  -0.05   0.02     0.03  -0.32   0.05     0.01   0.06  -0.01
  10   1    -0.03   0.00   0.03     0.00   0.00  -0.01    -0.01  -0.33   0.05
  11   6    -0.37  -0.05  -0.09     0.06  -0.26   0.06     0.01   0.02  -0.00
  12   1     0.18  -0.14   0.17     0.05   0.05   0.16    -0.08   0.11   0.21
  13   1     0.03  -0.03   0.02    -0.01   0.04   0.04    -0.00  -0.27  -0.05
  14   1     0.20  -0.17   0.15     0.06   0.04   0.14    -0.14   0.16   0.10
  15   1     0.04  -0.02   0.02    -0.01   0.06   0.04     0.09  -0.30   0.08
  16   1     0.18   0.19   0.04    -0.12  -0.07  -0.17     0.15   0.12  -0.16
  17   1     0.04   0.03  -0.00    -0.00   0.03  -0.06    -0.10  -0.31   0.01
  18  35     0.01  -0.00  -0.01    -0.00  -0.00   0.00    -0.00   0.01  -0.00
  19   6    -0.00   0.01   0.01     0.00   0.00  -0.00    -0.00   0.01   0.01
  20   8     0.00  -0.00  -0.00     0.00   0.00  -0.00     0.00  -0.00  -0.00
  21   1     0.00  -0.00   0.00    -0.00  -0.00   0.00    -0.00  -0.00   0.00
  22   1     0.00  -0.00  -0.00    -0.00   0.00   0.00    -0.00  -0.00   0.00
  23   1     0.00  -0.00  -0.00     0.00  -0.00  -0.00     0.00  -0.00  -0.00
                     22                     23                     24
                        a                      a                      a 
 Frequencies --  1006.6917              1089.7586              1092.5374
 Red. masses --     7.4371                 4.0890                 6.1318
 Frc consts  --     0.0000                 0.0000                 0.0000
 IR Inten    --     0.1249                 0.2782                 0.2566
 Raman Activ --     0.0000                 0.0000                 0.0000
 Depolar     --     0.0000                 0.0000                 0.0000
 Atom AN      X      Y      Z        X      Y      Z        X      Y      Z
   1   6     0.17  -0.29   0.04     0.01  -0.10   0.07    -0.21  -0.14  -0.22
   2   6    -0.22  -0.02  -0.16    -0.04   0.23  -0.05     0.17   0.07   0.04
   3   6     0.14  -0.25   0.14     0.10   0.12  -0.08     0.21   0.19   0.20
   4   1    -0.01  -0.01  -0.06    -0.02  -0.34   0.07     0.06  -0.10  -0.04
   5   6     0.18   0.28  -0.05     0.09  -0.14   0.08    -0.18   0.01  -0.24
   6   1    -0.10   0.04  -0.10     0.20   0.17   0.11     0.13   0.11   0.11
   7   1    -0.05  -0.07   0.22    -0.05  -0.04  -0.08     0.20   0.18   0.17
   8   6     0.16   0.28   0.06    -0.18   0.18  -0.07     0.14  -0.04   0.24
   9   1    -0.15   0.00   0.01    -0.01   0.43  -0.06     0.08   0.10  -0.03
  10   1     0.02   0.00   0.03    -0.00  -0.11   0.02    -0.00  -0.03  -0.03
  11   6    -0.21  -0.02  -0.16     0.04  -0.27   0.04    -0.16  -0.07  -0.00
  12   1    -0.05   0.14   0.20    -0.05   0.04  -0.01     0.19  -0.11   0.22
  13   1    -0.10  -0.07  -0.08    -0.24   0.16  -0.21     0.03  -0.01   0.06
  14   1    -0.08   0.18   0.20     0.09  -0.08   0.04    -0.18   0.08  -0.24
  15   1    -0.11  -0.13  -0.10     0.21  -0.10   0.21    -0.03   0.05  -0.06
  16   1    -0.08  -0.10   0.24    -0.00  -0.01   0.08    -0.21  -0.18  -0.19
  17   1    -0.11   0.09  -0.14    -0.18  -0.11  -0.13    -0.13  -0.13  -0.11
  18  35     0.00   0.00   0.01     0.00  -0.01  -0.00    -0.00  -0.00   0.01
  19   6    -0.00   0.00   0.01     0.02  -0.03  -0.03    -0.01   0.02   0.02
  20   8     0.01  -0.00  -0.00    -0.01   0.02   0.02     0.01  -0.01  -0.02
  21   1    -0.00  -0.00  -0.00    -0.00   0.00  -0.00     0.00  -0.00   0.00
  22   1    -0.00   0.00   0.00     0.00   0.00  -0.00     0.00  -0.00   0.00
  23   1    -0.00   0.00   0.00    -0.00   0.01   0.01     0.00  -0.00  -0.00
                     25                     26                     27
                        a                      a                      a 
 Frequencies --  1115.0089              1119.8704              1139.6972
 Red. masses --     5.3345                 7.1090                 4.1697
 Frc consts  --     0.0000                 0.0000                 0.0000
 IR Inten    --     0.5232                 1.6340                 1.1307
 Raman Activ --     0.0000                 0.0000                 0.0000
 Depolar     --     0.0000                 0.0000                 0.0000
 Atom AN      X      Y      Z        X      Y      Z        X      Y      Z
   1   6    -0.23  -0.20  -0.05     0.10  -0.03  -0.20    -0.04  -0.04  -0.02
   2   6     0.02   0.37  -0.08    -0.11   0.09   0.19     0.03   0.03  -0.06
   3   6    -0.10  -0.02  -0.08    -0.20   0.08   0.16     0.05  -0.09  -0.14
   4   1    -0.04  -0.25   0.06     0.32  -0.06  -0.15    -0.07  -0.23   0.07
   5   6     0.20  -0.17   0.16     0.18  -0.09  -0.16    -0.04  -0.00   0.11
   6   1    -0.17  -0.19  -0.12    -0.13  -0.26   0.01     0.04   0.11  -0.03
   7   1     0.19   0.17   0.11     0.14   0.11  -0.09     0.09   0.09   0.16
   8   6     0.14   0.01   0.03    -0.15  -0.03   0.19     0.05  -0.05   0.09
   9   1    -0.02   0.05  -0.00     0.14  -0.01  -0.04    -0.04  -0.34   0.07
  10   1     0.02   0.37  -0.05    -0.16   0.06  -0.08     0.04  -0.05   0.02
  11   6    -0.01   0.00   0.01     0.12  -0.02  -0.09    -0.02   0.18  -0.02
  12   1    -0.22   0.17  -0.16     0.06  -0.08  -0.10    -0.12   0.07  -0.11
  13   1     0.19  -0.20   0.19    -0.05   0.19  -0.01    -0.02   0.03  -0.02
  14   1     0.08  -0.06   0.07     0.03   0.00   0.15    -0.27   0.16  -0.35
  15   1     0.03  -0.01   0.01    -0.10  -0.10  -0.15     0.13  -0.02   0.16
  16   1    -0.08  -0.07  -0.07    -0.00   0.02   0.11     0.26   0.23   0.21
  17   1    -0.00  -0.03   0.03    -0.08   0.06  -0.15    -0.10  -0.10  -0.07
  18  35    -0.00   0.01  -0.00     0.01   0.00   0.02    -0.00  -0.01  -0.00
  19   6    -0.04   0.07   0.08     0.12  -0.20  -0.25     0.10  -0.18  -0.22
  20   8     0.03  -0.06  -0.07    -0.10   0.16   0.21    -0.09   0.15   0.20
  21   1     0.00  -0.00   0.01    -0.01   0.00  -0.01    -0.01   0.01  -0.01
  22   1    -0.00  -0.00   0.01     0.00   0.01  -0.00     0.01   0.01  -0.02
  23   1     0.00  -0.01  -0.01    -0.01   0.01   0.02    -0.00   0.01   0.01
                     28                     29                     30
                        a                      a                      a 
 Frequencies --  1140.7713              1176.6518              1178.8716
 Red. masses --     9.7009                 5.5397                 4.5130
 Frc consts  --     0.0000                 0.0000                 0.0000
 IR Inten    --     2.2257                 0.0635                 0.8334
 Raman Activ --     0.0000                 0.0000                 0.0000
 Depolar     --     0.0000                 0.0000                 0.0000
 Atom AN      X      Y      Z        X      Y      Z        X      Y      Z
   1   6    -0.11   0.00   0.12     0.08   0.13   0.16     0.01  -0.01  -0.01
   2   6     0.07  -0.01  -0.11    -0.00  -0.18   0.02    -0.00   0.01   0.00
   3   6     0.08   0.01  -0.02     0.07   0.18   0.22    -0.00  -0.01  -0.01
   4   1    -0.15   0.13   0.05    -0.01  -0.36   0.06    -0.01   0.02   0.00
   5   6    -0.06   0.03   0.06    -0.08   0.08  -0.18     0.00  -0.00   0.01
   6   1    -0.02   0.02  -0.04     0.05  -0.03   0.10     0.00   0.01  -0.00
   7   1    -0.06  -0.04   0.02     0.23   0.20   0.12    -0.02  -0.01  -0.01
   8   6     0.12   0.01  -0.13    -0.06   0.10  -0.27    -0.00  -0.00   0.01
   9   1    -0.07   0.16   0.00    -0.00  -0.12   0.02     0.00   0.01  -0.00
  10   1     0.08   0.08   0.02     0.00  -0.05   0.01    -0.00  -0.01  -0.00
  11   6    -0.05  -0.08   0.04    -0.00  -0.33   0.05     0.00   0.02  -0.00
  12   1    -0.00   0.03   0.14    -0.23   0.17  -0.17     0.01  -0.01   0.00
  13   1     0.06  -0.15   0.01    -0.05  -0.06  -0.09     0.01   0.00   0.01
  14   1     0.12  -0.08   0.09    -0.04   0.04   0.00     0.00  -0.00  -0.00
  15   1    -0.03   0.08  -0.01    -0.19   0.09  -0.21     0.01  -0.01   0.01
  16   1    -0.16  -0.15  -0.21     0.04   0.04  -0.02     0.00   0.00   0.01
  17   1     0.10   0.01   0.14     0.20   0.14   0.18    -0.01  -0.00  -0.02
  18  35    -0.00   0.00  -0.01     0.00   0.00  -0.00     0.00  -0.00  -0.00
  19   6     0.20  -0.34  -0.43     0.01   0.04  -0.02    -0.26   0.24  -0.33
  20   8    -0.18   0.29   0.38    -0.00  -0.02   0.01     0.12  -0.11   0.18
  21   1    -0.01   0.01  -0.02    -0.01  -0.02   0.01    -0.06   0.11   0.51
  22   1     0.02   0.01  -0.03    -0.02   0.01   0.04     0.15  -0.10   0.23
  23   1     0.00   0.00   0.02     0.01  -0.04  -0.02     0.33  -0.39  -0.28
                     31                     32                     33
                        a                      a                      a 
 Frequencies --  1179.6747              1220.3689              1251.0205
 Red. masses --     4.5251                 3.6946                 3.4819
 Frc consts  --     0.0000                 0.0000                 0.0000
 IR Inten    --     0.8634                 0.4214                 0.2151
 Raman Activ --     0.0000                 0.0000                 0.0000
 Depolar     --     0.0000                 0.0000                 0.0000
 Atom AN      X      Y      Z        X      Y      Z        X      Y      Z
   1   6     0.00   0.01   0.01     0.16  -0.02  -0.13     0.07   0.04  -0.26
   2   6    -0.00  -0.01   0.00    -0.25   0.03   0.18     0.03  -0.07   0.11
   3   6    -0.00   0.01   0.02    -0.06   0.01   0.06     0.10  -0.05   0.05
   4   1    -0.00  -0.02   0.00    -0.60   0.05   0.29     0.11  -0.11  -0.05
   5   6     0.00   0.00  -0.02     0.17  -0.03  -0.13    -0.08   0.06  -0.08
   6   1     0.00  -0.00   0.01     0.14   0.06   0.14     0.14   0.17   0.09
   7   1     0.02   0.02   0.00     0.03   0.02  -0.04    -0.18  -0.17  -0.05
   8   6    -0.00   0.01  -0.01    -0.06   0.01   0.06     0.06  -0.04   0.09
   9   1     0.00  -0.01   0.00     0.08  -0.01  -0.03     0.08   0.22  -0.05
  10   1    -0.00   0.01  -0.00    -0.16  -0.00  -0.05    -0.04  -0.25   0.01
  11   6     0.00  -0.02   0.00     0.17  -0.01  -0.06    -0.27   0.09   0.04
  12   1    -0.02   0.01  -0.01     0.03  -0.03  -0.03    -0.26   0.17  -0.29
  13   1    -0.00  -0.00  -0.01     0.14  -0.02   0.15     0.32  -0.20   0.33
  14   1    -0.00   0.00   0.00    -0.15   0.12  -0.06     0.12  -0.07   0.13
  15   1    -0.01   0.00  -0.02     0.11  -0.20   0.07    -0.02   0.01  -0.02
  16   1     0.00   0.00  -0.00    -0.15  -0.13  -0.02     0.08   0.09   0.07
  17   1     0.01   0.01   0.01     0.11   0.21   0.01    -0.02   0.05  -0.10
  18  35     0.00   0.00  -0.00     0.00  -0.01  -0.04    -0.00   0.00   0.01
  19   6    -0.38  -0.30   0.08     0.01  -0.01  -0.01     0.02  -0.03  -0.03
  20   8     0.19   0.14  -0.05    -0.02   0.01   0.01    -0.02   0.03   0.04
  21   1     0.05   0.38   0.21     0.00  -0.01  -0.02     0.00  -0.01  -0.02
  22   1     0.36  -0.20  -0.46    -0.00   0.00  -0.01     0.01  -0.00  -0.02
  23   1     0.15   0.29   0.16    -0.00   0.00   0.00     0.00  -0.00  -0.00
                     34                     35                     36
                        a                      a                      a 
 Frequencies --  1251.5971              1252.4751              1299.1160
 Red. masses --     3.1907                 3.6966                 5.7313
 Frc consts  --     0.0000                 0.0000                 0.0000
 IR Inten    --     0.3921                 0.2028                 0.2206
 Raman Activ --     0.0000                 0.0000                 0.0000
 Depolar     --     0.0000                 0.0000                 0.0000
 Atom AN      X      Y      Z        X      Y      Z        X      Y      Z
   1   6     0.10   0.04   0.01     0.12   0.11  -0.09    -0.12   0.02   0.02
   2   6    -0.24   0.00   0.11     0.00  -0.16  -0.05     0.00  -0.04   0.01
   3   6     0.05  -0.02  -0.18    -0.02  -0.11  -0.06    -0.11  -0.19   0.10
   4   1     0.45  -0.06  -0.19    -0.12  -0.14   0.09    -0.01  -0.53   0.08
   5   6     0.07   0.00   0.06    -0.13   0.17   0.23     0.12   0.01  -0.03
   6   1    -0.01   0.04  -0.08    -0.29  -0.23  -0.23     0.13   0.11   0.14
   7   1     0.02   0.03   0.05     0.21   0.19   0.23    -0.11  -0.13  -0.05
   8   6     0.04  -0.06  -0.16    -0.09  -0.09   0.05     0.10  -0.22  -0.03
   9   1     0.01   0.05  -0.02    -0.04   0.39  -0.05     0.00   0.09  -0.01
  10   1    -0.12  -0.05  -0.01     0.03  -0.42   0.08     0.00   0.09  -0.01
  11   6    -0.13   0.04   0.13     0.18   0.12  -0.07     0.01   0.53  -0.08
  12   1    -0.00  -0.00   0.01     0.05  -0.07  -0.06     0.11  -0.11   0.09
  13   1     0.02  -0.07  -0.03     0.02   0.06   0.03    -0.13   0.08  -0.17
  14   1    -0.19   0.13  -0.18     0.00   0.01  -0.01     0.04  -0.00   0.10
  15   1     0.25  -0.18   0.27    -0.02   0.12   0.06    -0.14   0.02  -0.16
  16   1    -0.21  -0.18  -0.14    -0.07  -0.06  -0.06    -0.04  -0.03  -0.09
  17   1     0.26   0.26   0.18    -0.02   0.02  -0.07     0.14   0.06   0.14
  18  35    -0.01   0.00   0.03     0.00  -0.00  -0.01    -0.00  -0.01   0.00
  19   6     0.00  -0.00  -0.00    -0.01   0.00   0.01    -0.00   0.01   0.00
  20   8     0.00   0.00   0.00     0.01  -0.01  -0.01     0.00  -0.00  -0.00
  21   1    -0.00   0.00   0.00    -0.00   0.01   0.00    -0.00  -0.00   0.00
  22   1    -0.00   0.00   0.00    -0.00   0.00  -0.00     0.00  -0.00   0.00
  23   1    -0.00   0.00   0.00    -0.00   0.01   0.01    -0.00  -0.00  -0.00
                     37                     38                     39
                        a                      a                      a 
 Frequencies --  1332.9258              1348.9799              1349.7097
 Red. masses --     4.1355                 4.7973                 4.6978
 Frc consts  --     0.0000                 0.0000                 0.0000
 IR Inten    --     0.1285                 0.1172                 0.1051
 Raman Activ --     0.0000                 0.0000                 0.0000
 Depolar     --     0.0000                 0.0000                 0.0000
 Atom AN      X      Y      Z        X      Y      Z        X      Y      Z
   1   6     0.17   0.13   0.14     0.29   0.23   0.21    -0.00  -0.06   0.04
   2   6     0.01   0.27  -0.04    -0.08  -0.02  -0.10     0.05  -0.04   0.07
   3   6    -0.07  -0.15  -0.04     0.16   0.19   0.14     0.17   0.05   0.13
   4   1    -0.00  -0.00   0.00     0.00  -0.18   0.01    -0.00  -0.29   0.06
   5   6    -0.19   0.10  -0.20     0.12  -0.14   0.11    -0.24   0.12  -0.23
   6   1     0.09   0.07   0.07    -0.14  -0.13  -0.09    -0.17  -0.18  -0.12
   7   1     0.11   0.09   0.15    -0.23  -0.20  -0.19    -0.08  -0.07   0.05
   8   6     0.06  -0.13   0.07    -0.09  -0.06  -0.05    -0.23   0.14  -0.25
   9   1    -0.00  -0.41   0.06    -0.11  -0.09   0.03     0.06  -0.12   0.01
  10   1    -0.00  -0.20   0.03    -0.00   0.06  -0.02     0.01   0.15  -0.02
  11   6     0.00   0.08  -0.01    -0.07   0.06  -0.02     0.05   0.10  -0.00
  12   1    -0.10   0.04  -0.15    -0.02  -0.02  -0.13     0.25  -0.17   0.22
  13   1    -0.08   0.05  -0.08     0.08  -0.08   0.09     0.20  -0.15   0.19
  14   1     0.27  -0.18   0.25    -0.17   0.08  -0.22     0.14  -0.10   0.11
  15   1     0.13  -0.11   0.14    -0.10   0.04  -0.11     0.23  -0.16   0.24
  16   1    -0.26  -0.22  -0.16    -0.23  -0.20  -0.15     0.10   0.08   0.14
  17   1    -0.12  -0.13  -0.09    -0.26  -0.23  -0.21    -0.02  -0.04   0.00
  18  35     0.00  -0.00   0.00     0.00   0.00   0.00    -0.00   0.00  -0.00
  19   6    -0.00   0.00  -0.00     0.00  -0.00  -0.00     0.00  -0.01  -0.00
  20   8     0.00   0.00   0.00    -0.00   0.00   0.00    -0.01   0.01   0.01
  21   1    -0.00  -0.00   0.00    -0.00   0.00   0.00     0.00  -0.00  -0.01
  22   1     0.00  -0.00  -0.00     0.00  -0.00  -0.00     0.00  -0.00  -0.01
  23   1    -0.00  -0.00   0.00    -0.00   0.00   0.00     0.00   0.00   0.00
                     40                     41                     42
                        a                      a                      a 
 Frequencies --  1357.6700              1366.4930              1470.5722
 Red. masses --     5.0827                 5.2943                 1.9229
 Frc consts  --     0.0000                 0.0000                 0.0000
 IR Inten    --     0.0378                 0.0855                 0.0722
 Raman Activ --     0.0000                 0.0000                 0.0000
 Depolar     --     0.0000                 0.0000                 0.0000
 Atom AN      X      Y      Z        X      Y      Z        X      Y      Z
   1   6     0.05   0.22   0.07    -0.14  -0.02  -0.10    -0.02  -0.03   0.05
   2   6    -0.01  -0.47   0.07     0.03   0.01   0.09     0.04  -0.03   0.01
   3   6    -0.04  -0.11  -0.05     0.27   0.18   0.20    -0.01   0.06  -0.12
   4   1     0.00   0.05  -0.01    -0.15   0.00   0.03    -0.00   0.02  -0.00
   5   6    -0.03   0.18  -0.13    -0.15   0.00  -0.11     0.01  -0.04  -0.04
   6   1     0.05   0.09   0.02    -0.27  -0.22  -0.21     0.14  -0.24   0.16
   7   1     0.13   0.10   0.09    -0.19  -0.18  -0.12    -0.16  -0.03   0.26
   8   6     0.04  -0.10   0.08     0.26  -0.12   0.24     0.01   0.16   0.14
   9   1     0.00   0.25  -0.04     0.03   0.00   0.01    -0.07   0.02   0.04
  10   1     0.01   0.56  -0.09    -0.05   0.00  -0.03    -0.06   0.02  -0.06
  11   6    -0.00  -0.00   0.00    -0.07  -0.02  -0.15     0.00   0.02   0.00
  12   1    -0.13   0.07  -0.12    -0.19   0.14  -0.17     0.27  -0.19  -0.38
  13   1    -0.04   0.08  -0.04    -0.25   0.15  -0.25    -0.25  -0.47  -0.13
  14   1    -0.01   0.05   0.06     0.02  -0.04  -0.03    -0.08   0.07   0.11
  15   1     0.15  -0.14   0.15     0.15  -0.08   0.16     0.06   0.13   0.03
  16   1    -0.00   0.02  -0.08     0.02   0.03  -0.04     0.08   0.03  -0.12
  17   1    -0.17  -0.18  -0.11     0.14   0.11   0.11    -0.05   0.12  -0.06
  18  35     0.00  -0.00   0.00     0.00  -0.00  -0.01    -0.00   0.00  -0.00
  19   6    -0.00   0.00   0.00    -0.00   0.01   0.01    -0.01   0.03   0.04
  20   8     0.00  -0.00  -0.00     0.02  -0.02  -0.02    -0.02   0.04   0.05
  21   1    -0.00   0.00   0.00    -0.00   0.01   0.03    -0.00  -0.09  -0.11
  22   1    -0.00   0.00   0.00    -0.01   0.01   0.02     0.09  -0.05  -0.14
  23   1     0.00  -0.00  -0.00    -0.01   0.02   0.01     0.03  -0.12  -0.07
                     43                     44                     45
                        a                      a                      a 
 Frequencies --  1475.5955              1478.1206              1485.5865
 Red. masses --     1.9757                 2.0537                 2.0073
 Frc consts  --     0.0000                 0.0000                 0.0000
 IR Inten    --     0.1737                 0.3004                 0.0579
 Raman Activ --     0.0000                 0.0000                 0.0000
 Depolar     --     0.0000                 0.0000                 0.0000
 Atom AN      X      Y      Z        X      Y      Z        X      Y      Z
   1   6    -0.00  -0.02   0.05    -0.01  -0.01   0.03    -0.01   0.09  -0.14
   2   6    -0.18  -0.01  -0.03    -0.17   0.00  -0.03    -0.00  -0.01   0.00
   3   6     0.01   0.10  -0.13     0.01   0.00   0.03    -0.01   0.04  -0.05
   4   1     0.00   0.00  -0.01    -0.00  -0.00  -0.00     0.00   0.03  -0.00
   5   6     0.01  -0.01  -0.00    -0.02   0.05   0.04     0.01   0.17   0.13
   6   1     0.16  -0.32   0.19    -0.05   0.03  -0.04     0.07  -0.09   0.08
   7   1    -0.22  -0.06   0.31     0.02   0.00  -0.06    -0.06  -0.00   0.11
   8   6     0.01  -0.05  -0.01     0.01  -0.03   0.00     0.01   0.08   0.05
   9   1     0.35  -0.03  -0.20     0.35  -0.04  -0.20     0.01   0.03  -0.01
  10   1     0.31   0.05   0.28     0.31   0.04   0.28     0.01   0.02   0.01
  11   6    -0.01   0.01  -0.01    -0.00  -0.01  -0.01    -0.00  -0.02   0.01
  12   1    -0.06   0.04   0.06    -0.03   0.02   0.03     0.09  -0.06  -0.15
  13   1     0.04   0.10   0.02    -0.00   0.06  -0.01    -0.09  -0.18  -0.05
  14   1    -0.03   0.02   0.01     0.08  -0.07  -0.14     0.24  -0.19  -0.37
  15   1    -0.00   0.03  -0.01    -0.07  -0.15  -0.03    -0.22  -0.44  -0.11
  16   1     0.05   0.01  -0.12     0.03   0.01  -0.07    -0.19  -0.04   0.32
  17   1    -0.07   0.09  -0.07    -0.03   0.06  -0.04     0.17  -0.30   0.18
  18  35     0.00   0.00   0.00     0.00  -0.00  -0.00     0.00   0.00  -0.00
  19   6     0.03  -0.05  -0.08    -0.05   0.08   0.12     0.01  -0.01  -0.02
  20   8     0.03  -0.06  -0.08    -0.05   0.09   0.12     0.01  -0.01  -0.02
  21   1    -0.01   0.12   0.22     0.01  -0.20  -0.35    -0.01   0.02   0.07
  22   1    -0.13   0.07   0.22     0.22  -0.11  -0.32    -0.03   0.01   0.04
  23   1    -0.10   0.20   0.14     0.17  -0.31  -0.20    -0.05   0.05   0.04
                     46                     47                     48
                        a                      a                      a 
 Frequencies --  1488.1512              1501.5087              1511.8054
 Red. masses --     1.9097                 1.9629                 1.5665
 Frc consts  --     0.0000                 0.0000                 0.0000
 IR Inten    --     0.1102                 0.1357                 0.4470
 Raman Activ --     0.0000                 0.0000                 0.0000
 Depolar     --     0.0000                 0.0000                 0.0000
 Atom AN      X      Y      Z        X      Y      Z        X      Y      Z
   1   6     0.02   0.11  -0.13     0.00   0.10  -0.10     0.00  -0.01   0.00
   2   6     0.02  -0.00  -0.01    -0.14  -0.00  -0.04     0.00   0.00   0.00
   3   6     0.01   0.08  -0.11     0.00  -0.07   0.09    -0.00   0.00  -0.00
   4   1     0.00   0.00  -0.01    -0.01   0.00   0.01     0.00   0.00  -0.00
   5   6     0.02  -0.09  -0.05    -0.00  -0.12  -0.07    -0.00   0.00   0.00
   6   1     0.12  -0.28   0.15    -0.11   0.23  -0.14    -0.00  -0.00   0.00
   7   1    -0.18  -0.05   0.25     0.14   0.03  -0.22     0.00   0.00   0.00
   8   6     0.01  -0.08  -0.05     0.01   0.09   0.06    -0.00  -0.01  -0.01
   9   1    -0.08   0.01   0.03     0.26  -0.03  -0.15    -0.01   0.00   0.00
  10   1    -0.06  -0.00  -0.06     0.24   0.03   0.22    -0.01  -0.00  -0.01
  11   6     0.00  -0.01  -0.02    -0.00   0.00   0.01     0.00  -0.00  -0.00
  12   1    -0.13   0.10   0.16     0.12  -0.09  -0.19    -0.02   0.01   0.03
  13   1     0.09   0.25   0.04    -0.11  -0.25  -0.06     0.02   0.04   0.01
  14   1    -0.14   0.11   0.18    -0.16   0.12   0.22     0.00  -0.00  -0.00
  15   1     0.10   0.23   0.04     0.13   0.28   0.06     0.00  -0.00   0.00
  16   1    -0.21  -0.07   0.33    -0.17  -0.05   0.26     0.01   0.00  -0.01
  17   1     0.16  -0.33   0.18     0.13  -0.27   0.15    -0.01   0.01  -0.01
  18  35    -0.00   0.00  -0.00    -0.00  -0.00  -0.00    -0.00   0.00   0.00
  19   6    -0.03   0.04   0.06     0.03  -0.02  -0.03     0.10   0.18  -0.08
  20   8    -0.03   0.04   0.05     0.02  -0.01  -0.02     0.02   0.04  -0.01
  21   1     0.01  -0.10  -0.18    -0.01   0.05   0.12    -0.19  -0.50   0.38
  22   1     0.11  -0.05  -0.13    -0.06   0.03   0.03     0.31  -0.28  -0.19
  23   1     0.10  -0.13  -0.09    -0.09   0.05   0.03    -0.52   0.02   0.15
                     49                     50                     51
                        a                      a                      a 
 Frequencies --  1512.4831              2293.8214              2308.8954
 Red. masses --     1.5691                 1.5755                 1.5858
 Frc consts  --     0.0000                 0.0000                 0.0000
 IR Inten    --     0.4482                 1.0073                 0.9935
 Raman Activ --     0.0000                 0.0000                 0.0000
 Depolar     --     0.0000                 0.0000                 0.0000
 Atom AN      X      Y      Z        X      Y      Z        X      Y      Z
   1   6    -0.00   0.00  -0.00     0.00   0.00   0.00    -0.00   0.00   0.00
   2   6    -0.01  -0.00  -0.00    -0.00   0.00   0.00     0.00   0.00  -0.00
   3   6     0.00  -0.01   0.01    -0.00   0.00   0.00    -0.00   0.00  -0.00
   4   1    -0.00   0.00   0.00     0.00  -0.00   0.00    -0.00  -0.00   0.00
   5   6    -0.00  -0.00  -0.00     0.00   0.00   0.00    -0.00   0.00  -0.00
   6   1    -0.01   0.03  -0.02     0.00  -0.00  -0.00     0.00  -0.00   0.00
   7   1     0.02   0.00  -0.03    -0.00  -0.00   0.00    -0.00   0.00   0.00
   8   6     0.00   0.01   0.01    -0.00   0.00   0.00     0.00   0.00  -0.00
   9   1     0.01  -0.00  -0.01    -0.00  -0.00   0.00     0.00  -0.00  -0.00
  10   1     0.01   0.00   0.01     0.00  -0.00  -0.00    -0.00  -0.00   0.00
  11   6    -0.00  -0.00   0.00    -0.00  -0.00  -0.00     0.00  -0.00   0.00
  12   1     0.02  -0.01  -0.03     0.00  -0.00  -0.00     0.00   0.00  -0.00
  13   1    -0.02  -0.04  -0.01    -0.00  -0.00  -0.00    -0.00   0.00   0.00
  14   1    -0.01   0.00   0.01    -0.00   0.00  -0.00     0.00  -0.00   0.00
  15   1     0.01   0.01   0.00    -0.00   0.00   0.00    -0.00  -0.00  -0.00
  16   1    -0.01  -0.00   0.01    -0.00  -0.00  -0.00    -0.00  -0.00  -0.00
  17   1     0.01  -0.01   0.01    -0.00  -0.00  -0.00     0.00   0.00  -0.00
  18  35    -0.00   0.00  -0.00     0.00  -0.00  -0.00    -0.00   0.00   0.00
  19   6    -0.18   0.05  -0.12    -0.17  -0.15   0.03     0.13  -0.12   0.15
  20   8    -0.03   0.01  -0.02    -0.01  -0.01  -0.00     0.01  -0.01   0.01
  21   1     0.06  -0.34  -0.26     0.40  -0.22   0.12    -0.63   0.06  -0.03
  22   1     0.36  -0.22   0.50     0.38   0.69   0.06     0.16   0.02   0.11
  23   1     0.34   0.38   0.26    -0.17   0.07  -0.26    -0.00   0.37  -0.61
                     52                     53                     54
                        a                      a                      a 
 Frequencies --  2530.4969              2906.3845              2942.7699
 Red. masses --     1.1820                 1.7851                 1.6950
 Frc consts  --     0.0000                 0.0000                 0.0000
 IR Inten    --     0.6123                 0.2071                 0.2168
 Raman Activ --     0.0000                 0.0000                 0.0000
 Depolar     --     0.0000                 0.0000                 0.0000
 Atom AN      X      Y      Z        X      Y      Z        X      Y      Z
   1   6    -0.00   0.00   0.00     0.02  -0.01  -0.02     0.03  -0.01  -0.04
   2   6     0.00   0.00   0.00     0.00  -0.00  -0.01    -0.00   0.00   0.00
   3   6     0.00   0.00  -0.00     0.02  -0.01  -0.01    -0.00   0.02  -0.01
   4   1     0.00  -0.00  -0.00     0.02   0.01   0.04    -0.24  -0.08  -0.50
   5   6    -0.00   0.00   0.00    -0.00  -0.00   0.00    -0.00   0.00  -0.00
   6   1    -0.01  -0.00   0.00    -0.04   0.01   0.04    -0.04   0.01   0.04
   7   1     0.00  -0.00   0.00    -0.02   0.02  -0.01     0.07  -0.10   0.02
   8   6     0.00  -0.00  -0.00    -0.18   0.00   0.19    -0.10  -0.16  -0.00
   9   1    -0.00  -0.00  -0.00     0.01   0.00   0.01     0.00   0.00   0.01
  10   1    -0.00  -0.00  -0.00    -0.01   0.00   0.01     0.02  -0.00  -0.02
  11   6     0.00  -0.00   0.00    -0.02   0.00  -0.01     0.06   0.02   0.14
  12   1     0.00   0.00  -0.00     0.04   0.09   0.02     0.43   0.60  -0.03
  13   1    -0.02   0.01   0.01     0.63  -0.11  -0.70    -0.07  -0.01   0.06
  14   1    -0.00  -0.00  -0.00     0.00   0.01  -0.00     0.00   0.00   0.00
  15   1     0.00  -0.00  -0.00     0.01  -0.00  -0.01     0.00  -0.00  -0.00
  16   1    -0.00   0.00  -0.00    -0.01   0.03  -0.01     0.02  -0.01  -0.00
  17   1     0.00   0.00  -0.00    -0.09   0.01   0.10    -0.13   0.02   0.14
  18  35     0.00   0.00  -0.00     0.00  -0.00  -0.00    -0.00   0.00   0.00
  19   6    -0.02   0.01   0.03    -0.00   0.00   0.00     0.00  -0.00  -0.00
  20   8    -0.04   0.06   0.08    -0.00  -0.00  -0.00    -0.00   0.00   0.00
  21   1     0.56  -0.12   0.11     0.01  -0.00   0.00    -0.00   0.00  -0.00
  22   1    -0.29  -0.46  -0.02    -0.01  -0.01  -0.00     0.00   0.00   0.00
  23   1    -0.07   0.32  -0.50     0.00   0.01  -0.02     0.00  -0.00   0.00
                     55                     56                     57
                        a                      a                      a 
 Frequencies --  2946.1733              2947.5120              2949.9397
 Red. masses --     1.8085                 1.8707                 1.7595
 Frc consts  --     0.0000                 0.0000                 0.0000
 IR Inten    --     0.2720                 0.2516                 0.2501
 Raman Activ --     0.0000                 0.0000                 0.0000
 Depolar     --     0.0000                 0.0000                 0.0000
 Atom AN      X      Y      Z        X      Y      Z        X      Y      Z
   1   6     0.00   0.00  -0.01    -0.19   0.08   0.15    -0.00  -0.01   0.01
   2   6     0.01   0.00  -0.01     0.02  -0.01  -0.07     0.02  -0.01  -0.05
   3   6     0.15  -0.17  -0.01    -0.00   0.00   0.00     0.03   0.01  -0.05
   4   1     0.12   0.04   0.24    -0.01  -0.00  -0.01    -0.22  -0.07  -0.46
   5   6    -0.07   0.00   0.08     0.01   0.00  -0.01    -0.13  -0.02   0.12
   6   1    -0.14   0.01   0.18     0.01  -0.00  -0.01    -0.17   0.04   0.18
   7   1    -0.41   0.59  -0.16     0.01  -0.01   0.00     0.05  -0.07   0.01
   8   6    -0.03  -0.06  -0.02    -0.06  -0.04   0.03     0.05   0.09   0.01
   9   1     0.01  -0.00   0.01     0.06   0.01   0.10     0.05   0.01   0.07
  10   1    -0.04   0.01   0.04    -0.17   0.03   0.18    -0.13   0.02   0.14
  11   6    -0.03  -0.02  -0.07    -0.00  -0.00   0.00     0.07   0.02   0.12
  12   1     0.17   0.23  -0.01     0.13   0.18  -0.01    -0.23  -0.32   0.02
  13   1    -0.07   0.00   0.07     0.06  -0.02  -0.07     0.04   0.00  -0.04
  14   1     0.01   0.04   0.01    -0.01  -0.01  -0.00     0.09   0.14   0.01
  15   1     0.27  -0.06  -0.30    -0.02   0.00   0.03     0.40  -0.09  -0.44
  16   1     0.02  -0.02   0.00     0.13  -0.21   0.07    -0.03   0.04  -0.01
  17   1    -0.03   0.01   0.04     0.56  -0.08  -0.63     0.05  -0.01  -0.05
  18  35     0.00  -0.00  -0.00     0.00  -0.00  -0.00    -0.00   0.00   0.00
  19   6     0.00  -0.00  -0.00    -0.00   0.00   0.00     0.00  -0.00  -0.00
  20   8     0.00   0.00  -0.00    -0.00  -0.00   0.00    -0.00  -0.00  -0.00
  21   1    -0.00   0.00   0.00     0.00  -0.00   0.00    -0.00   0.00   0.00
  22   1     0.00   0.00   0.00    -0.00  -0.00   0.00     0.00   0.00   0.00
  23   1    -0.00  -0.00   0.00     0.00  -0.00  -0.00     0.00  -0.00   0.00
                     58                     59                     60
                        a                      a                      a 
 Frequencies --  2952.3583              2964.2198              2969.7291
 Red. masses --     1.8574                 1.8494                 1.7734
 Frc consts  --     0.0000                 0.0000                 0.0000
 IR Inten    --     0.3737                 0.3328                 0.3533
 Raman Activ --     0.0000                 0.0000                 0.0000
 Depolar     --     0.0000                 0.0000                 0.0000
 Atom AN      X      Y      Z        X      Y      Z        X      Y      Z
   1   6    -0.02   0.00   0.03     0.05  -0.03  -0.04    -0.04   0.03   0.02
   2   6    -0.02   0.01   0.06     0.05  -0.03  -0.22    -0.02   0.02   0.14
   3   6     0.11  -0.12  -0.00    -0.05  -0.03   0.11    -0.10  -0.00   0.15
   4   1    -0.21  -0.06  -0.43    -0.05  -0.02  -0.11    -0.06  -0.02  -0.14
   5   6     0.12   0.02  -0.09     0.04   0.02  -0.03    -0.06   0.01   0.07
   6   1    -0.10   0.01   0.12     0.33  -0.07  -0.36     0.48  -0.10  -0.53
   7   1    -0.29   0.42  -0.11    -0.14   0.19  -0.03    -0.10   0.12  -0.01
   8   6     0.03   0.06   0.01     0.01   0.01  -0.00    -0.01   0.01   0.01
   9   1    -0.06  -0.01  -0.09     0.22   0.05   0.36    -0.17  -0.04  -0.29
  10   1     0.13  -0.02  -0.14    -0.40   0.07   0.42     0.22  -0.04  -0.23
  11   6     0.06   0.02   0.12     0.01   0.00   0.03     0.01   0.00   0.04
  12   1    -0.15  -0.22   0.01    -0.03  -0.04   0.00    -0.01  -0.01   0.00
  13   1     0.04   0.00  -0.04    -0.00   0.00   0.01     0.05  -0.01  -0.05
  14   1    -0.10  -0.16   0.00    -0.08  -0.11   0.01    -0.01   0.00   0.01
  15   1    -0.31   0.07   0.34    -0.06   0.02   0.07     0.22  -0.04  -0.24
  16   1    -0.01   0.01   0.00    -0.05   0.08  -0.02     0.07  -0.10   0.03
  17   1     0.08  -0.02  -0.09    -0.13   0.02   0.15     0.07  -0.01  -0.08
  18  35    -0.00   0.00   0.00    -0.00  -0.00   0.00    -0.00  -0.00   0.00
  19   6     0.00   0.00   0.00    -0.00   0.00   0.00    -0.00   0.00   0.00
  20   8    -0.00  -0.00  -0.00    -0.00   0.00  -0.00    -0.00   0.00   0.00
  21   1     0.00  -0.00   0.00     0.00  -0.00  -0.00     0.00  -0.00  -0.00
  22   1    -0.00  -0.00   0.00    -0.00  -0.00  -0.00    -0.00  -0.00  -0.00
  23   1     0.00   0.00  -0.00     0.00   0.00  -0.00     0.00   0.00  -0.00
                     61                     62                     63
                        a                      a                      a 
 Frequencies --  2971.7095              2977.2753              2983.5554
 Red. masses --     1.5081                 1.6020                 1.5999
 Frc consts  --     0.0000                 0.0000                 0.0000
 IR Inten    --     0.2118                 0.4051                 0.3090
 Raman Activ --     0.0000                 0.0000                 0.0000
 Depolar     --     0.0000                 0.0000                 0.0000
 Atom AN      X      Y      Z        X      Y      Z        X      Y      Z
   1   6    -0.04   0.11  -0.06    -0.07   0.14  -0.07     0.04  -0.07   0.03
   2   6     0.15   0.00   0.03    -0.06   0.00  -0.03     0.11   0.01   0.05
   3   6     0.01  -0.01  -0.01     0.00   0.02  -0.02     0.00   0.02  -0.02
   4   1    -0.01  -0.00  -0.02     0.00   0.00   0.01     0.02   0.01   0.03
   5   6    -0.01  -0.06  -0.02     0.06   0.13   0.02     0.08   0.15   0.02
   6   1    -0.03   0.01   0.04    -0.06   0.01   0.06    -0.05   0.01   0.06
   7   1    -0.01   0.02  -0.01     0.05  -0.07   0.02     0.06  -0.08   0.02
   8   6     0.01   0.02  -0.00     0.01   0.02  -0.00    -0.01  -0.01  -0.00
   9   1    -0.25  -0.07  -0.50     0.12   0.04   0.23    -0.22  -0.06  -0.42
  10   1    -0.30   0.06   0.37     0.10  -0.02  -0.12    -0.19   0.04   0.23
  11   6     0.00   0.00   0.00    -0.00  -0.00  -0.00    -0.01  -0.00  -0.01
  12   1    -0.03  -0.05   0.00    -0.05  -0.07   0.00     0.03   0.04  -0.00
  13   1    -0.00   0.00   0.00     0.00   0.00  -0.00    -0.00  -0.00   0.00
  14   1     0.16   0.21  -0.02    -0.34  -0.45   0.05    -0.40  -0.54   0.05
  15   1    -0.10   0.01   0.11     0.12  -0.00  -0.12     0.12   0.00  -0.11
  16   1     0.30  -0.42   0.09     0.38  -0.53   0.11    -0.20   0.28  -0.06
  17   1    -0.15   0.04   0.14    -0.14   0.04   0.13     0.06  -0.02  -0.05
  18  35    -0.00   0.00   0.00    -0.00   0.00   0.00     0.00  -0.00  -0.00
  19   6    -0.00  -0.00  -0.00     0.00  -0.00   0.00     0.00  -0.00  -0.00
  20   8     0.00  -0.00  -0.00     0.00  -0.00  -0.00    -0.00   0.00   0.00
  21   1     0.00  -0.00   0.00    -0.00   0.00  -0.00    -0.00   0.00  -0.00
  22   1     0.00   0.00   0.00    -0.00   0.00  -0.00     0.00   0.00   0.00
  23   1    -0.00   0.00  -0.00    -0.00   0.00  -0.00     0.00  -0.00   0.00
