
                                 *****************
                                 * O   R   C   A *
                                 *****************

           --- An Ab Initio, DFT and Semiempirical electronic structure package ---

                  #######################################################
                  #                        -***-                        #
                  #          Department of theory and spectroscopy      #
                  #               Directorship: Frank Neese             #
                  #        Max Planck Institute fuer Kohlenforschung    #
                  #                Kaiser Wilhelm Platz 1               #
                  #                 D-45470 Muelheim/Ruhr               #
                  #                      Germany                        #
                  #                                                     #
                  #                  All rights reserved                #
                  #                        -***-                        #
                  #######################################################


                         Program Version 4.2.1 -  RELEASE  -


 With contributions from (in alphabetic order):
   Daniel Aravena         : Magnetic Suceptibility
   Michael Atanasov       : Ab Initio Ligand Field Theory (pilot matlab implementation)
   Alexander A. Auer      : GIAO ZORA, VPT2
   Ute Becker             : Parallelization
   Giovanni Bistoni       : ED, misc. LED, open-shell LED, HFLD
   Martin Brehm           : Molecular dynamics
   Dmytro Bykov           : SCF Hessian
   Vijay G. Chilkuri      : MRCI spin determinant printing, contributions to CSF-ICE
   Dipayan Datta          : RHF DLPNO-CCSD density
   Achintya Kumar Dutta   : EOM-CC, STEOM-CC
   Dmitry Ganyushin       : Spin-Orbit,Spin-Spin,Magnetic field MRCI
   Miquel Garcia          : C-PCM Hessian, Gaussian charge scheme
   Yang Guo               : DLPNO-NEVPT2, CIM, IAO-localization
   Andreas Hansen         : Spin unrestricted coupled pair/coupled cluster methods
   Benjamin Helmich-Paris : CASSCF linear response (MC-RPA)
   Lee Huntington         : MR-EOM, pCC
   Robert Izsak           : Overlap fitted RIJCOSX, COSX-SCS-MP3, EOM
   Christian Kollmar      : KDIIS, OOCD, Brueckner-CCSD(T), CCSD density
   Simone Kossmann        : Meta GGA functionals, TD-DFT gradient, OOMP2, MP2 Hessian
   Martin Krupicka        : AUTO-CI
   Lucas Lang             : DCDCAS
   Dagmar Lenk            : GEPOL surface, SMD
   Dimitrios Liakos       : Extrapolation schemes; Compound Job, initial MDCI parallelization
   Dimitrios Manganas     : Further ROCIS development; embedding schemes
   Dimitrios Pantazis     : SARC Basis sets
   Taras Petrenko         : DFT Hessian,TD-DFT gradient, ASA, ECA, R-Raman, ABS, FL, XAS/XES, NRVS
   Peter Pinski           : DLPNO-MP2, DLPNO-MP2 Gradient
   Christoph Reimann      : Effective Core Potentials
   Marius Retegan         : Local ZFS, SOC
   Christoph Riplinger    : Optimizer, TS searches, QM/MM, DLPNO-CCSD(T), (RO)-DLPNO pert. Triples
   Tobias Risthaus        : Range-separated hybrids, TD-DFT gradient, RPA, STAB
   Michael Roemelt        : Original ROCIS implementation
   Masaaki Saitow         : Open-shell DLPNO-CCSD energy and density
   Barbara Sandhoefer     : DKH picture change effects
   Avijit Sen             : IP-ROCIS
   Kantharuban Sivalingam : CASSCF convergence, NEVPT2, FIC-MRCI
   Bernardo de Souza      : ESD, SOC TD-DFT
   Georgi Stoychev        : AutoAux, RI-MP2 NMR
   Willem Van den Heuvel  : Paramagnetic NMR
   Boris Wezisla          : Elementary symmetry handling
   Frank Wennmohs         : Technical directorship


 We gratefully acknowledge several colleagues who have allowed us to
 interface, adapt or use parts of their codes:
   Stefan Grimme, W. Hujo, H. Kruse,             : VdW corrections, initial TS optimization,
                  C. Bannwarth                     DFT functionals, gCP, sTDA/sTD-DF
   Ed Valeev, F. Pavosevic, A. Kumar             : LibInt (2-el integral package), F12 methods
   Garnet Chan, S. Sharma, J. Yang, R. Olivares  : DMRG
   Ulf Ekstrom                                   : XCFun DFT Library
   Mihaly Kallay                                 : mrcc  (arbitrary order and MRCC methods)
   Andreas Klamt, Michael Diedenhofen            : otool_cosmo (COSMO solvation model)
   Jiri Pittner, Ondrej Demel                    : Mk-CCSD
   Frank Weinhold                                : gennbo (NPA and NBO analysis)
   Christopher J. Cramer and Donald G. Truhlar   : smd solvation model
   Lars Goerigk                                  : TD-DFT with DH, B97 family of functionals
   V. Asgeirsson, H. Jonsson                     : NEB implementation
   FAccTs GmbH                                   : IRC, NEB, NEB-TS, Multilevel, MM, QM/MM, CI optimization
   S Lehtola, MJT Oliveira, MAL Marques          : LibXC Library


 Your calculation uses the libint2 library for the computation of 2-el integrals
 For citations please refer to: http://libint.valeyev.net

 Your ORCA version has been built with support for libXC version: 4.2.3
 For citations please refer to: https://tddft.org/programs/libxc/

 This ORCA versions uses:
   CBLAS   interface :  Fast vector & matrix operations
   LAPACKE interface :  Fast linear algebra routines
   SCALAPACK package :  Parallel linear algebra routines




***************************************
The coordinates will be read from file: init.xyz
***************************************


Your calculation utilizes the SMD solvation module
Please cite in your paper:
A.V. Marenich, C.J. Cramer, D.G. Truhlar J. Phys. Chem. B, 113, (2009), 6378 

Your calculation utilizes the semiempirical GFN2-xTB method
Please cite in your paper:
C. Bannwarth, Ehlert S., S. Grimme,  J. Chem. Theory Comput., 15, (2019), 1652.
   

----- Orbital basis set information -----
Your calculation utilizes the basis: def2-SVP
   F. Weigend and R. Ahlrichs, Phys. Chem. Chem. Phys. 7, 3297 (2005).

================================================================================
                                        WARNINGS
                       Please study these warnings very carefully!
================================================================================


WARNING: The environment variable RSH_COMMAND is not set!
  ===> : All Displacements for the Numerical Hessian calculation
         will be started on localhost

WARNING: Geometry Optimization
  ===> : Switching off AutoStart
         For restart on a previous wavefunction, please use MOREAD

WARNING: Found dipole moment calculation with XTB calculation
  ===> : Switching off dipole moment calculation


INFO   : the flag for use of LIBINT has been found!

================================================================================
                                       INPUT FILE
================================================================================
NAME = opt+numfreq.inp
|  1> ! xTB2 Opt NumFreq
|  2> 
|  3> *xyzfile -1 1 init.xyz
|  4> 
|  5> %cpcm
|  6>  smd true
|  7>  SMDsolvent "METHANOL"
|  8> end
|  9> 
| 10> %pal
| 11>  nprocs 4
| 12> end
| 13> 
| 14>                          ****END OF INPUT****
================================================================================

                       *****************************
                       * Geometry Optimization Run *
                       *****************************

Geometry optimization settings:
Update method            Update   .... BFGS
Choice of coordinates    CoordSys .... Z-matrix Internals
Initial Hessian          InHess   .... Almoef's Model

Convergence Tolerances:
Energy Change            TolE     ....  5.0000e-06 Eh
Max. Gradient            TolMAXG  ....  3.0000e-04 Eh/bohr
RMS Gradient             TolRMSG  ....  1.0000e-04 Eh/bohr
Max. Displacement        TolMAXD  ....  4.0000e-03 bohr
RMS Displacement         TolRMSD  ....  2.0000e-03 bohr
Strict Convergence                ....  False
------------------------------------------------------------------------------
                        ORCA OPTIMIZATION COORDINATE SETUP
------------------------------------------------------------------------------

The optimization will be done in new redundant internal coordinates
Making redundant internal coordinates   ...  (new redundants) done
Evaluating the initial hessian          ...  (Almloef) done
Evaluating the coordinates              ...  done
Calculating the B-matrix                .... done
Calculating the G-matrix                .... done
Diagonalizing the G-matrix              .... done
The first mode is                       ....   82
The number of degrees of freedom        ....   63

    -----------------------------------------------------------------
                    Redundant Internal Coordinates


    -----------------------------------------------------------------
         Definition                    Initial Value    Approx d2E/dq
    -----------------------------------------------------------------
      1. B(C   1,C   0)                  1.5254         0.379966   
      2. B(C   4,C   2)                  1.5230         0.383355   
      3. B(C   4,C   1)                  1.5256         0.379714   
      4. B(H   5,C   2)                  1.0952         0.353298   
      5. B(H   6,C   2)                  1.0947         0.353923   
      6. B(C   7,C   0)                  1.5228         0.383543   
      7. B(H   8,C   1)                  1.0912         0.358484   
      8. B(H   9,C   1)                  1.0932         0.355895   
      9. B(C  10,C   7)                  1.5165         0.392581   
     10. B(C  10,H   3)                  1.0910         0.358719   
     11. B(C  10,C   2)                  1.5163         0.392925   
     12. B(H  11,C   7)                  1.0955         0.352857   
     13. B(H  12,C   7)                  1.0958         0.352471   
     14. B(H  13,C   4)                  1.0914         0.358266   
     15. B(H  14,C   4)                  1.0939         0.354995   
     16. B(H  15,C   0)                  1.0918         0.357771   
     17. B(H  16,C   0)                  1.0938         0.355130   
     18. B(Br 17,C  10)                  1.9450         0.273360   
     19. B(C  18,H   3)                  2.6658         0.001102   
     20. B(C  18,H  12)                  2.8736         0.000514   
     21. B(O  19,H  12)                  2.3441         0.003219   
     22. B(O  19,C  10)                  2.8763         0.002380   
     23. B(O  19,H   5)                  2.2308         0.004881   
     24. B(O  19,H   3)                  2.3728         0.002897   
     25. B(O  19,C  18)                  1.3108         0.748443   
     26. B(H  20,H  12)                  2.5314         0.000346   
     27. B(H  20,H   3)                  2.7419         0.000160   
     28. B(H  20,C  18)                  1.1382         0.301669   
     29. B(H  21,H   3)                  2.5848         0.000284   
     30. B(H  21,C  18)                  1.1394         0.300367   
     31. B(H  22,C  18)                  1.1306         0.310236   
     32. A(C   7,C   0,H  15)          109.2457         0.325378   
     33. A(H  15,C   0,H  16)          108.1558         0.289910   
     34. A(C   1,C   0,C   7)          110.0810         0.366053   
     35. A(C   7,C   0,H  16)          109.1185         0.324982   
     36. A(C   1,C   0,H  16)          109.7063         0.324482   
     37. A(C   1,C   0,H  15)          110.4948         0.324877   
     38. A(C   0,C   1,H   8)          109.9736         0.324984   
     39. A(H   8,C   1,H   9)          108.6456         0.290099   
     40. A(C   4,C   1,H   8)          110.0149         0.324948   
     41. A(C   0,C   1,C   4)          110.0398         0.365425   
     42. A(C   4,C   1,H   9)          109.0810         0.324562   
     43. A(C   0,C   1,H   9)          109.0553         0.324597   
     44. A(C   4,C   2,H   5)          111.3247         0.324680   
     45. A(C   4,C   2,C  10)          111.9689         0.368133   
     46. A(H   5,C   2,H   6)          107.5409         0.289185   
     47. A(H   6,C   2,C  10)          109.9343         0.326094   
     48. A(H   5,C   2,C  10)          104.8970         0.325999   
     49. A(C   4,C   2,H   6)          110.9246         0.324774   
     50. A(H  13,C   4,H  14)          108.2042         0.289956   
     51. A(C   1,C   4,H  14)          109.5715         0.324427   
     52. A(C   2,C   4,H  13)          109.1782         0.325426   
     53. A(C   1,C   4,H  13)          110.3639         0.324916   
     54. A(C   1,C   4,C   2)          110.3717         0.365981   
     55. A(C   2,C   4,H  14)          109.1090         0.324936   
     56. A(C  10,C   7,H  12)          105.2211         0.325826   
     57. A(C  10,C   7,H  11)          110.1054         0.325885   
     58. A(C   0,C   7,H  11)          110.9753         0.324639   
     59. A(H  11,C   7,H  12)          107.7032         0.288942   
     60. A(C   0,C   7,H  12)          110.6713         0.324581   
     61. A(C   0,C   7,C  10)          111.9332         0.368109   
     62. A(C   2,C  10,H   3)          109.7629         0.326817   
     63. A(Br 17,C  10,O  19)          157.3367         0.176585   
     64. A(C   7,C  10,O  19)           83.4714         0.176618   
     65. A(H   3,C  10,O  19)           52.3550         0.163249   
     66. A(C   2,C  10,O  19)           80.3375         0.176636   
     67. A(H   3,C  10,C   7)          110.0412         0.326770   
     68. A(C   7,C  10,Br 17)          109.5552         0.369478   
     69. A(H   3,C  10,Br 17)          105.0589         0.326680   
     70. A(C   2,C  10,Br 17)          109.8440         0.369534   
     71. A(C   2,C  10,C   7)          112.3256         0.369640   
     72. A(H  21,C  18,H  22)          104.5304         0.276295   
     73. A(H  20,C  18,H  22)          104.5007         0.276478   
     74. A(O  19,C  18,H  22)          113.7873         0.353071   
     75. A(H  20,C  18,H  21)          103.8715         0.275112   
     76. A(O  19,C  18,H  21)          114.4462         0.351146   
     77. A(O  19,C  18,H  20)          114.5107         0.351403   
     78. A(C  10,O  19,C  18)          104.8660         0.189562   
     79. D(H   9,C   1,C   0,H  15)     60.2840         0.011507   
     80. D(C   4,C   1,C   0,H  16)    -60.9443         0.011507   
     81. D(H   8,C   1,C   0,C   7)   -179.5084         0.011507   
     82. D(H   9,C   1,C   0,H  16)    179.4429         0.011507   
     83. D(H   8,C   1,C   0,H  15)    -58.7569         0.011507   
     84. D(C   4,C   1,C   0,C   7)     59.1454         0.011507   
     85. D(C   4,C   1,C   0,H  15)    179.8968         0.011507   
     86. D(H   9,C   1,C   0,C   7)    -60.4674         0.011507   
     87. D(H   8,C   1,C   0,H  16)     60.4019         0.011507   
     88. D(C   2,C   4,C   1,C   0)    -58.8806         0.011492   
     89. D(H  13,C   4,C   2,H   6)    -60.1168         0.011702   
     90. D(H  13,C   4,C   2,C  10)    176.6646         0.011702   
     91. D(H  13,C   4,C   1,C   0)   -179.6523         0.011492   
     92. D(H  13,C   4,C   1,H   8)     59.0261         0.011492   
     93. D(H  14,C   4,C   2,C  10)    -65.2654         0.011702   
     94. D(C   1,C   4,C   2,H   6)    178.4056         0.011702   
     95. D(H  14,C   4,C   2,H   5)    177.6656         0.011702   
     96. D(C   1,C   4,C   2,H   5)    -61.8820         0.011702   
     97. D(H  14,C   4,C   1,H   9)   -179.1087         0.011492   
     98. D(C   1,C   4,C   2,C  10)     55.1870         0.011702   
     99. D(H  13,C   4,C   2,H   5)     59.5956         0.011702   
    100. D(H  14,C   4,C   2,H   6)     57.9533         0.011702   
    101. D(C   2,C   4,C   1,H   9)     60.7166         0.011492   
    102. D(H  14,C   4,C   1,H   8)    -60.0274         0.011492   
    103. D(H  14,C   4,C   1,C   0)     61.2942         0.011492   
    104. D(C   2,C   4,C   1,H   8)    179.7979         0.011492   
    105. D(H  13,C   4,C   1,H   9)    -60.0551         0.011492   
    106. D(H  11,C   7,C   0,C   1)   -179.3175         0.011713   
    107. D(C  10,C   7,C   0,H  16)     64.5794         0.011713   
    108. D(C  10,C   7,C   0,C   1)    -55.8652         0.011713   
    109. D(C  10,C   7,C   0,H  15)   -177.3643         0.011713   
    110. D(H  12,C   7,C   0,H  16)   -178.3923         0.011713   
    111. D(H  12,C   7,C   0,H  15)    -60.3360         0.011713   
    112. D(H  12,C   7,C   0,C   1)     61.1631         0.011713   
    113. D(H  11,C   7,C   0,H  16)    -58.8728         0.011713   
    114. D(H  11,C   7,C   0,H  15)     59.1835         0.011713   
    115. D(O  19,C  10,C   7,H  12)      8.8276         0.012992   
    116. D(O  19,C  10,C   7,C   0)    129.0891         0.012992   
    117. D(Br 17,C  10,C   7,H  12)    169.7386         0.012992   
    118. D(Br 17,C  10,C   7,H  11)     53.9411         0.012992   
    119. D(H   3,C  10,C   7,H  12)     54.7106         0.012992   
    120. D(H   3,C  10,C   7,H  11)    -61.0868         0.012992   
    121. D(H   3,C  10,C   7,C   0)    174.9721         0.012992   
    122. D(C   2,C  10,C   7,H  12)    -67.8974         0.012992   
    123. D(C   2,C  10,C   7,H  11)    176.3051         0.012992   
    124. D(C   2,C  10,C   7,C   0)     52.3641         0.012992   
    125. D(O  19,C  10,C   2,H   6)    105.4903         0.013014   
    126. D(O  19,C  10,C   2,H   5)     -9.8647         0.013014   
    127. D(O  19,C  10,C   2,C   4)   -130.7336         0.013014   
    128. D(Br 17,C  10,C   2,H   6)    -53.5306         0.013014   
    129. D(Br 17,C  10,C   2,H   5)   -168.8856         0.013014   
    130. D(Br 17,C  10,C   2,C   4)     70.2454         0.013014   
    131. D(C   7,C  10,C   2,H   6)   -175.7310         0.013014   
    132. D(Br 17,C  10,C   7,C   0)    -69.9999         0.012992   
    133. D(C   7,C  10,C   2,H   5)     68.9140         0.013014   
    134. D(C   7,C  10,C   2,C   4)    -51.9549         0.013014   
    135. D(H   3,C  10,C   2,H   6)     61.5039         0.013014   
    136. D(O  19,C  10,C   7,H  11)   -106.9699         0.012992   
    137. D(H   3,C  10,C   2,H   5)    -53.8511         0.013014   
    138. D(H   3,C  10,C   2,C   4)   -174.7200         0.013014   
    139. D(C  18,O  19,C  10,C   7)     83.7362         0.001501   
    140. D(C  18,O  19,C  10,H   3)    -37.8580         0.001501   
    141. D(C  18,O  19,C  10,C   2)   -162.2262         0.001501   
    142. D(C  10,O  19,C  18,H  22)   -172.7142         0.065803   
    143. D(C  10,O  19,C  18,H  21)     67.1821         0.065803   
    144. D(C  10,O  19,C  18,H  20)    -52.6004         0.065803   
    145. D(C  18,O  19,C  10,Br 17)    -43.1534         0.001501   
    -----------------------------------------------------------------

Number of atoms                         .... 23
Number of degrees of freedom            .... 145

         *************************************************************
         *                GEOMETRY OPTIMIZATION CYCLE   1            *
         *************************************************************
      -----------------------------------------------------------      
     |                   =====================                   |     
     |                           x T B                           |     
     |                   =====================                   |     
     |                         S. Grimme                         |     
     |          Mulliken Center for Theoretical Chemistry        |     
     |                    University of Bonn                     |     
      -----------------------------------------------------------      

   * xtb version 6.3.2 (30e43eb) compiled by 'schneider@apollo14' on 2020-08-08

   xtb is free software: you can redistribute it and/or modify it under
   the terms of the GNU Lesser General Public License as published by
   the Free Software Foundation, either version 3 of the License, or
   (at your option) any later version.
   
   xtb is distributed in the hope that it will be useful,
   but WITHOUT ANY WARRANTY; without even the implied warranty of
   MERCHANTABILITY or FITNESS FOR A PARTICULAR PURPOSE.  See the
   GNU Lesser General Public License for more details.
   
   Cite this work as:
   * S. Grimme, C. Bannwarth, P. Shushkov, J. Chem. Theory Comput., 2017,
     13, 1989-2009. DOI: 10.1021/acs.jctc.7b00118
   * C. Bannwarth, S. Ehlert and S. Grimme., J. Chem. Theory Comput., 2019,
     15, 1652-1671. DOI: 10.1021/acs.jctc.8b01176
   * P. Pracht, E. Caldeweyher, S. Ehlert, S. Grimme, ChemRxiv, 2019, preprint.
     DOI: 10.26434/chemrxiv.8326202.v1
   
   for GFN-FF:
   * S. Spicher and S. Grimme, Angew. Chem. Int. Ed., 2020,
     DOI: 10.1002/anie.202004239
   
   for DFT-D4:
   * E. Caldeweyher, C. Bannwarth and S. Grimme, J. Chem. Phys., 2017,
     147, 034112. DOI: 10.1063/1.4993215
   * E. Caldeweyher, S. Ehlert, A. Hansen, H. Neugebauer, S. Spicher,
     C. Bannwarth and S. Grimme, J. Chem. Phys., 2019, 150, 154122.
     DOI: 10.1063/1.5090222
   
   for sTDA-xTB:
   * S. Grimme and C. Bannwarth, J. Chem. Phys., 2016, 145, 054103.
     DOI: 10.1063/1.4959605
   
   in the mass-spec context:
   * V. Asgeirsson, C. Bauer and S. Grimme, Chem. Sci., 2017, 8, 4879.
     DOI: 10.1039/c7sc00601b
   * J. Koopman and S. Grimme, ACS Omega 2019, 4, 12, 15120-15133.
     DOI: 10.1021/acsomega.9b02011
   
   for metadynamics refer to:
   * S. Grimme, J. Chem. Theory Comput., 2019, 155, 2847-2862
     DOI: 10.1021/acs.jctc.9b00143
   
   with help from (in alphabetical order)
   C. Bannwarth, F. Bohle, G. Brandenburg, E. Caldeweyher, M. Checinski,
   S. Dohm, S. Ehlert, S. Ehrlich, F. März, H. Neugebauer, J. Pisarek,
   P. Pracht, P. Shushkov, and S. Spicher.
   
 * started run on 2021/11/10 at 03:24:02.126     

           -------------------------------------------------
          |                Calculation Setup                |
           -------------------------------------------------

          program call               : /opt/orca/otool_xtb opt+numfreq_XTB.xyz --grad -c -1 -u 0 -P 4 --namespace opt+numfreq --gbsa methanol
          calculation namespace      : opt+numfreq
          coordinate file            : opt+numfreq_XTB.xyz
          omp threads                :                     4
          number of atoms            :                    23
          number of electrons        :                    56
          charge                     :                    -1
          spin                       :                   0.0
          first test random number   :      0.34681889239049

   ID    Z sym.   atoms
    1    6 C      1-3, 5, 8, 11, 19
    2    1 H      4, 6, 7, 9, 10, 12-17, 21-23
    3   35 Br     18
    4    8 O      20

molecular fragmentation (1/2 indicates fragments):
11111111111111111122222
# atoms in fragment 1/2:    18     5
 fragment masses (1/2) :      163.06       31.03
CMA distance (Bohr)    :   7.820
constraining FC (au)   :  0.0500
########################################################################
[WARNING] Please study the warnings concerning your input carefully
-1- prog_main_parseArguments: Process number higher than OMP_NUM_THREADS, I hope you know what you are doing.
########################################################################

           -------------------------------------------------
          |                 G F N 2 - x T B                 |
           -------------------------------------------------

        Reference                      10.1021/acs.jctc.8b01176
      * Hamiltonian:
        H0-scaling (s, p, d)           1.850000    2.230000    2.230000
        zeta-weighting                 0.500000
      * Dispersion:
        s8                             2.700000
        a1                             0.520000
        a2                             5.000000
        s9                             5.000000
      * Repulsion:
        kExp                           1.500000    1.000000
        rExp                           1.000000
      * Coulomb:
        alpha                          2.000000
        third order                    shell-resolved
        anisotropic                    true
        a3                             3.000000
        a5                             4.000000
        cn-shift                       1.200000
        cn-exp                         4.000000
        max-rad                        5.000000

      * Solvation model:               GBSA
        Solvent                        methanol
        Parameter file                 internal GFN2-xTB/GBSA
        Dielectric constant                3.2700E+01
        Reference state                gsolv [1 M gas/solution]
        Free energy shift                  3.3569E-03 Eh       2.1065E+00 kcal/mol
        Temperature                        2.9815E+02 K
        Density                            7.9200E-01 kg/L
        Solvent mass                       3.2040E+01 g/mol
        Interaction kernel             Still
        Born radius scaling (c1)           1.6087E+00
        Born radii integrator          GBOBC
        Born offset                        5.6550E-04 a0       1.0686E-03 AA
        H-bond correction              true
        Ion screening                  false
        Surface tension                    1.0000E-05 Eh       1.5569E+01 dyn/cm
        Grid points                               230 per atom

          ...................................................
          :                      SETUP                      :
          :.................................................:
          :  # basis functions                  56          :
          :  # atomic orbitals                  55          :
          :  # shells                           33          :
          :  # electrons                        56          :
          :  max. iterations                   250          :
          :  Hamiltonian                  GFN2-xTB          :
          :  restarted?                      false          :
          :  GBSA solvation                   true          :
          :  PC potential                    false          :
          :  electronic temp.          300.0000000     K    :
          :  accuracy                    1.0000000          :
          :  -> integral cutoff          0.2500000E+02      :
          :  -> integral neglect         0.1000000E-07      :
          :  -> SCF convergence          0.1000000E-05 Eh   :
          :  -> wf. convergence          0.1000000E-03 e    :
          :  Broyden damping             0.4000000          :
          ...................................................

 iter      E             dE          RMSdq      gap      omega  full diag
   1    -30.7746183 -0.307746E+02  0.442E+00    5.98       0.0  T
   2    -30.8843225 -0.109704E+00  0.269E+00    4.29       1.0  T
   3    -30.8929042 -0.858174E-02  0.121E+00    3.29       1.0  T
   4    -30.8960174 -0.311323E-02  0.857E-01    2.88       1.0  T
   5    -30.8975956 -0.157817E-02  0.539E-01    2.97       1.0  T
   6    -30.8986196 -0.102397E-02  0.301E-01    3.08       1.0  T
   7    -30.8989752 -0.355601E-03  0.683E-02    3.02       1.0  T
   8    -30.8989908 -0.156311E-04  0.339E-02    2.99       1.0  T
   9    -30.8989928 -0.196494E-05  0.917E-03    2.97       2.3  T
  10    -30.8989930 -0.284579E-06  0.385E-03    2.97       5.4  T
  11    -30.8989931 -0.253456E-07  0.209E-03    2.97      10.0  T
  12    -30.8989931 -0.116521E-07  0.114E-03    2.97      18.3  T
  13    -30.8989931 -0.366085E-08  0.426E-04    2.97      48.9  T
  14    -30.8989931 -0.432554E-09  0.186E-04    2.97     112.0  T

   *** convergence criteria satisfied after 14 iterations ***

         #    Occupation            Energy/Eh            Energy/eV
      -------------------------------------------------------------
         1        2.0000           -0.8344078             -22.7054
       ...           ...                  ...                  ...
        22        2.0000           -0.4244912             -11.5510
        23        2.0000           -0.4232852             -11.5182
        24        2.0000           -0.4208278             -11.4513
        25        2.0000           -0.4019311             -10.9371
        26        2.0000           -0.3994515             -10.8696
        27        2.0000           -0.3164792              -8.6118
        28        2.0000           -0.3150999              -8.5743 (HOMO)
        29                         -0.2059804              -5.6050 (LUMO)
        30                          0.0382486               1.0408
        31                          0.0384009               1.0449
        32                          0.0468731               1.2755
        33                          0.0580744               1.5803
       ...                                ...                  ...
        55                          0.4216318              11.4732
      -------------------------------------------------------------
                  HL-Gap            0.1091195 Eh            2.9693 eV
             Fermi-level           -0.2605401 Eh           -7.0897 eV

 SCC (total)                   0 d,  0 h,  0 min,  0.028 sec
 SCC setup                      ...        0 min,  0.001 sec (  4.128%)
 Dispersion                     ...        0 min,  0.000 sec (  0.796%)
 classical contributions        ...        0 min,  0.000 sec (  0.257%)
 integral evaluation            ...        0 min,  0.004 sec ( 15.032%)
 iterations                     ...        0 min,  0.017 sec ( 60.031%)
 molecular gradient             ...        0 min,  0.005 sec ( 19.195%)
 printout                       ...        0 min,  0.000 sec (  0.508%)

         :::::::::::::::::::::::::::::::::::::::::::::::::::::
         ::                     SUMMARY                     ::
         :::::::::::::::::::::::::::::::::::::::::::::::::::::
         :: total energy             -30.576581990321 Eh    ::
         :: total w/o Gsasa/hb       -30.566127008643 Eh    ::
         :: gradient norm              0.003779586460 Eh/a0 ::
         :: HOMO-LUMO gap              2.969293374560 eV    ::
         ::.................................................::
         :: SCC energy               -30.898993090126 Eh    ::
         :: -> isotropic ES            0.215695315491 Eh    ::
         :: -> anisotropic ES         -0.018145802072 Eh    ::
         :: -> anisotropic XC         -0.014795330286 Eh    ::
         :: -> dispersion             -0.020274686179 Eh    ::
         :: -> Gsolv                  -0.114333809747 Eh    ::
         ::    -> Gborn               -0.103878828069 Eh    ::
         ::    -> Gsasa               -0.011561639645 Eh    ::
         ::    -> Ghb                 -0.002250271555 Eh    ::
         ::    -> Gshift               0.003356929523 Eh    ::
         :: repulsion energy           0.322272409076 Eh    ::
         :: add. restraining           0.000000000000 Eh    ::
         :: total charge              -1.000000000000 e     ::
         :::::::::::::::::::::::::::::::::::::::::::::::::::::

           -------------------------------------------------
          |                Property Printout                |
           -------------------------------------------------

    * Orbital Energies and Occupations

         #    Occupation            Energy/Eh            Energy/eV
      -------------------------------------------------------------
         1        2.0000           -0.8344078             -22.7054
       ...           ...                  ...                  ...
        16        2.0000           -0.4810024             -13.0887
        17        2.0000           -0.4759822             -12.9521
        18        2.0000           -0.4713060             -12.8249
        19        2.0000           -0.4498650             -12.2415
        20        2.0000           -0.4435609             -12.0699
        21        2.0000           -0.4374974             -11.9049
        22        2.0000           -0.4244912             -11.5510
        23        2.0000           -0.4232852             -11.5182
        24        2.0000           -0.4208278             -11.4513
        25        2.0000           -0.4019311             -10.9371
        26        2.0000           -0.3994515             -10.8696
        27        2.0000           -0.3164792              -8.6118
        28        2.0000           -0.3150999              -8.5743 (HOMO)
        29                         -0.2059804              -5.6050 (LUMO)
        30                          0.0382486               1.0408
        31                          0.0384009               1.0449
        32                          0.0468731               1.2755
        33                          0.0580744               1.5803
        34                          0.0839483               2.2843
        35                          0.0948071               2.5798
        36                          0.0992809               2.7016
        37                          0.1064006               2.8953
        38                          0.1148963               3.1265
        39                          0.1170642               3.1855
       ...                                ...                  ...
        55                          0.4216318              11.4732
      -------------------------------------------------------------
                  HL-Gap            0.1091195 Eh            2.9693 eV
             Fermi-level           -0.2605401 Eh           -7.0897 eV

     #   Z          covCN         q      C6AA      α(0)
     1   6 C        3.806    -0.055    21.560     6.610
     2   6 C        3.806    -0.056    21.573     6.612
     3   6 C        3.886    -0.042    21.273     6.557
     4   1 H        0.926     0.010     2.893     2.660
     5   6 C        3.806    -0.056    21.574     6.612
     6   1 H        0.924     0.046     2.374     2.410
     7   1 H        0.924     0.022     2.709     2.574
     8   6 C        3.889    -0.033    21.115     6.533
     9   1 H        0.924     0.046     2.374     2.410
    10   1 H        0.924     0.024     2.666     2.553
    11   6 C        3.796     0.084    19.200     6.239
    12   1 H        0.924     0.014     2.829     2.630
    13   1 H        0.924     0.032     2.560     2.502
    14   1 H        0.924     0.035     2.512     2.479
    15   1 H        0.924     0.052     2.297     2.370
    16   1 H        0.924     0.033     2.547     2.496
    17   1 H        0.924     0.052     2.294     2.369
    18  35 Br       1.080    -0.220   191.180    22.294
    19   6 C        3.602     0.209    17.793     6.099
    20   8 O        0.855    -0.828    32.439     7.636
    21   1 H        0.915    -0.122     6.417     3.962
    22   1 H        0.915    -0.129     6.695     4.047
    23   1 H        0.917    -0.117     6.209     3.897

 Mol. C6AA /au·bohr⁶  :       5814.921403
 Mol. C8AA /au·bohr⁸  :     154324.919404
 Mol. α(0) /au        :        114.551083


Wiberg/Mayer (AO) data.
largest (>0.10) Wiberg bond orders for each atom

 ---------------------------------------------------------------------------
     #   Z sym  total        # sym  WBO       # sym  WBO       # sym  WBO
 ---------------------------------------------------------------------------
     1   6 C    3.996 --     2 C    1.009     8 C    1.009    16 H    0.977
                            17 H    0.973
     2   6 C    3.998 --     1 C    1.009     5 C    1.009    10 H    0.978
                             9 H    0.976
     3   6 C    3.993 --    11 C    1.012     5 C    1.009     7 H    0.976
                             6 H    0.958
     4   1 H    1.000 --    11 C    0.973
     5   6 C    3.996 --     3 C    1.009     2 C    1.009    14 H    0.977
                            15 H    0.973
     6   1 H    0.998 --     3 C    0.958
     7   1 H    1.000 --     3 C    0.976
     8   6 C    3.995 --    11 C    1.012     1 C    1.009    12 H    0.977
                            13 H    0.960
     9   1 H    0.998 --     2 C    0.976
    10   1 H    0.999 --     2 C    0.978
    11   6 C    3.941 --     8 C    1.012     3 C    1.012     4 H    0.973
                            18 Br   0.901
    12   1 H    1.000 --     8 C    0.977
    13   1 H    0.999 --     8 C    0.960
    14   1 H    0.999 --     5 C    0.977
    15   1 H    0.997 --     5 C    0.973
    16   1 H    0.999 --     1 C    0.977
    17   1 H    0.997 --     1 C    0.973
    18  35 Br   0.972 --    11 C    0.901
    19   6 C    3.976 --    20 O    1.175    23 H    0.936    21 H    0.931
                            22 H    0.930
    20   8 O    1.356 --    19 C    1.175
    21   1 H    0.985 --    19 C    0.931
    22   1 H    0.983 --    19 C    0.930
    23   1 H    0.986 --    19 C    0.936
 ---------------------------------------------------------------------------

Topologies differ in total number of bonds
Writing topology from bond orders to xtbtopo.mol

molecular dipole:
                 x           y           z       tot (Debye)
 q only:       -0.367       0.701       4.856
   full:        0.755       0.382       3.549       9.273
molecular quadrupole (traceless):
                xx          xy          yy          xz          yz          zz
 q only:        3.666       0.110      15.105      12.000      -4.498     -18.772
  q+dip:       -9.223      -1.120      21.390      20.011      -2.476     -12.167
   full:       -8.794      -0.918      21.232      19.865      -2.195     -12.438


           -------------------------------------------------
          | TOTAL ENERGY              -30.576581990321 Eh   |
          | GRADIENT NORM               0.003779586460 Eh/α |
          | HOMO-LUMO GAP               2.969293374560 eV   |
           -------------------------------------------------

------------------------------------------------------------------------
 * finished run on 2021/11/10 at 03:24:02.166     
------------------------------------------------------------------------
 total:
 * wall-time:     0 d,  0 h,  0 min,  0.040 sec
 *  cpu-time:     0 d,  0 h,  0 min,  0.291 sec
 * ratio c/w:     7.242 speedup
 SCF:
 * wall-time:     0 d,  0 h,  0 min,  0.028 sec
 *  cpu-time:     0 d,  0 h,  0 min,  0.198 sec
 * ratio c/w:     7.039 speedup


-------------------------   --------------------
FINAL SINGLE POINT ENERGY       -30.576581990320
-------------------------   --------------------

------------------------------------------------------------------------------
                         ORCA GEOMETRY RELAXATION STEP
------------------------------------------------------------------------------

Reading the OPT-File                    .... done
Getting information on internals        .... done
Copying old internal coords+grads       .... done
Making the new internal coordinates     .... (new redundants).... done
Validating the new internal coordinates .... (new redundants).... done
Calculating the B-matrix                .... done
Calculating the G,G- and P matrices     .... done
Transforming gradient to internals      .... done
Projecting the internal gradient        .... done
Number of atoms                         ....  23
Number of internal coordinates          .... 145
Current Energy                          ....   -30.576581990 Eh
Current gradient norm                   ....     0.003779586 Eh/bohr
Maximum allowed component of the step   ....  0.300
Current trust radius                    ....  0.300
Evaluating the initial hessian          ....  (Almloef) done
Projecting the Hessian                  .... done
Forming the augmented Hessian           .... done
Diagonalizing the augmented Hessian     .... done
Last element of RFO vector              ....  0.828245477
Lowest eigenvalues of augmented Hessian:
 -0.001691461  0.000802656  0.002905140  0.009465968  0.011705476
Length of the computed step             ....  0.676569277
Warning: the length of the step is outside the trust region - taking restricted step instead
The input lambda is                     ....    -0.001691
   iter:   1  x=   -0.002962  g=  289.332177 f(x)=     0.367746
   iter:   2  x=   -0.004376  g=  103.012760 f(x)=     0.145595
   iter:   3  x=   -0.005451  g=   45.091011 f(x)=     0.048467
   iter:   4  x=   -0.005837  g=   27.397910 f(x)=     0.010573
   iter:   5  x=   -0.005871  g=   23.361147 f(x)=     0.000807
   iter:   6  x=   -0.005871  g=   23.040128 f(x)=     0.000006
   iter:   7  x=   -0.005871  g=   23.037906 f(x)=     0.000000
   iter:   8  x=   -0.005871  g=   23.037906 f(x)=    -0.000000
The output lambda is                    ....    -0.005871 (8 iterations)
The final length of the internal step   ....  0.300000000
Converting the step to cartesian space:
 Initial RMS(Int)=    0.0249136440
Transforming coordinates:
 Iter   0:  RMS(Cart)=    0.0308751209 RMS(Int)=    0.0250277166
 Iter   1:  RMS(Cart)=    0.0003096575 RMS(Int)=    0.0002245852
 Iter   2:  RMS(Cart)=    0.0000047502 RMS(Int)=    0.0000030808
 Iter   3:  RMS(Cart)=    0.0000000900 RMS(Int)=    0.0000000472
done
Storing new coordinates                 .... done

                                .--------------------.
          ----------------------|Geometry convergence|-------------------------
          Item                value                   Tolerance       Converged
          ---------------------------------------------------------------------
          RMS gradient        0.0004636922            0.0001000000      NO
          MAX gradient        0.0021388691            0.0003000000      NO
          RMS step            0.0249136440            0.0020000000      NO
          MAX step            0.1397852826            0.0040000000      NO
          ........................................................
          Max(Bonds)      0.0740      Max(Angles)    0.46
          Max(Dihed)        1.94      Max(Improp)    0.00
          ---------------------------------------------------------------------

The optimization has not yet converged - more geometry cycles are needed


    ---------------------------------------------------------------------------
                         Redundant Internal Coordinates
                            (Angstroem and degrees)

        Definition                    Value    dE/dq     Step     New-Value
    ----------------------------------------------------------------------------
     1. B(C   1,C   0)                1.5254  0.000002 -0.0001    1.5253   
     2. B(C   4,C   2)                1.5230 -0.001147  0.0015    1.5245   
     3. B(C   4,C   1)                1.5256  0.000113 -0.0003    1.5252   
     4. B(H   5,C   2)                1.0952 -0.000250  0.0004    1.0956   
     5. B(H   6,C   2)                1.0947 -0.000090  0.0001    1.0948   
     6. B(C   7,C   0)                1.5228 -0.001239  0.0018    1.5246   
     7. B(H   8,C   1)                1.0912 -0.000263  0.0004    1.0916   
     8. B(H   9,C   1)                1.0932  0.000061 -0.0001    1.0931   
     9. B(C  10,C   7)                1.5165  0.000602 -0.0011    1.5153   
    10. B(C  10,H   3)                1.0910 -0.000638  0.0015    1.0926   
    11. B(C  10,C   2)                1.5163  0.000435 -0.0005    1.5158   
    12. B(H  11,C   7)                1.0955  0.000044 -0.0001    1.0955   
    13. B(H  12,C   7)                1.0958 -0.000177  0.0007    1.0966   
    14. B(H  13,C   4)                1.0914 -0.000051  0.0001    1.0915   
    15. B(H  14,C   4)                1.0939 -0.000193  0.0003    1.0942   
    16. B(H  15,C   0)                1.0918  0.000008 -0.0000    1.0918   
    17. B(H  16,C   0)                1.0938 -0.000161  0.0002    1.0940   
    18. B(Br 17,C  10)                1.9450 -0.000582  0.0011    1.9461   
    19. B(C  18,H   3)                2.6658 -0.000940  0.0511    2.7170   
    20. B(C  18,H  12)                2.8736 -0.000912  0.0498    2.9233   
    21. B(O  19,H  12)                2.3441  0.000208  0.0355    2.3795   
    22. B(O  19,C  10)                2.8763 -0.002094  0.0740    2.9503   
    23. B(O  19,H   5)                2.2308 -0.001142  0.0564    2.2872   
    24. B(O  19,H   3)                2.3728 -0.000836  0.0623    2.4351   
    25. B(O  19,C  18)                1.3108 -0.001190  0.0007    1.3115   
    26. B(H  20,H  12)                2.5314 -0.000556  0.0524    2.5837   
    27. B(H  20,H   3)                2.7419  0.000100  0.0251    2.7670   
    28. B(H  20,C  18)                1.1382  0.000243 -0.0006    1.1376   
    29. B(H  21,H   3)                2.5848 -0.000124  0.0428    2.6276   
    30. B(H  21,C  18)                1.1394  0.000056 -0.0002    1.1392   
    31. B(H  22,C  18)                1.1306 -0.001180  0.0020    1.1325   
    32. A(C   7,C   0,H  15)          109.25 -0.000112   -0.01    109.23   
    33. A(H  15,C   0,H  16)          108.16  0.000091   -0.05    108.10   
    34. A(C   1,C   0,C   7)          110.08  0.000133    0.10    110.18   
    35. A(C   7,C   0,H  16)          109.12 -0.000261    0.08    109.20   
    36. A(C   1,C   0,H  16)          109.71  0.000014   -0.05    109.66   
    37. A(C   1,C   0,H  15)          110.49  0.000128   -0.06    110.43   
    38. A(C   0,C   1,H   8)          109.97 -0.000145    0.05    110.02   
    39. A(H   8,C   1,H   9)          108.65  0.000027   -0.02    108.63   
    40. A(C   4,C   1,H   8)          110.01 -0.000077    0.05    110.06   
    41. A(C   0,C   1,C   4)          110.04 -0.000108   -0.03    110.01   
    42. A(C   4,C   1,H   9)          109.08  0.000162   -0.04    109.04   
    43. A(C   0,C   1,H   9)          109.06  0.000146   -0.01    109.04   
    44. A(C   4,C   2,H   5)          111.32 -0.000389    0.09    111.42   
    45. A(C   4,C   2,C  10)          111.97 -0.000669    0.20    112.17   
    46. A(H   5,C   2,H   6)          107.54 -0.000321    0.08    107.62   
    47. A(H   6,C   2,C  10)          109.93  0.000008    0.01    109.95   
    48. A(H   5,C   2,C  10)          104.90  0.000962   -0.32    104.58   
    49. A(C   4,C   2,H   6)          110.92  0.000437   -0.08    110.85   
    50. A(H  13,C   4,H  14)          108.20  0.000161   -0.05    108.15   
    51. A(C   1,C   4,H  14)          109.57 -0.000123    0.00    109.57   
    52. A(C   2,C   4,H  13)          109.18 -0.000251   -0.00    109.18   
    53. A(C   1,C   4,H  13)          110.36  0.000121   -0.06    110.30   
    54. A(C   1,C   4,C   2)          110.37  0.000366   -0.01    110.36   
    55. A(C   2,C   4,H  14)          109.11 -0.000285    0.12    109.23   
    56. A(C  10,C   7,H  12)          105.22  0.000926   -0.43    104.79   
    57. A(C  10,C   7,H  11)          110.11 -0.000050    0.02    110.13   
    58. A(C   0,C   7,H  11)          110.98  0.000287   -0.05    110.93   
    59. A(H  11,C   7,H  12)          107.70 -0.000116    0.01    107.71   
    60. A(C   0,C   7,H  12)          110.67 -0.000551    0.21    110.89   
    61. A(C   0,C   7,C  10)          111.93 -0.000464    0.21    112.14   
    62. A(C   2,C  10,H   3)          109.76 -0.000293   -0.01    109.76   
    63. A(Br 17,C  10,O  19)          157.34  0.000329   -0.16    157.18   
    64. A(C   7,C  10,O  19)           83.47 -0.000098   -0.22     83.25   
    65. A(H   3,C  10,O  19)           52.36  0.000472   -0.34     52.02   
    66. A(C   2,C  10,O  19)           80.34 -0.000413    0.31     80.65   
    67. A(H   3,C  10,C   7)          110.04 -0.000002   -0.12    109.92   
    68. A(C   7,C  10,Br 17)          109.56 -0.000136    0.13    109.68   
    69. A(H   3,C  10,Br 17)          105.06 -0.000143    0.16    105.22   
    70. A(C   2,C  10,Br 17)          109.84  0.000122    0.02    109.86   
    71. A(C   2,C  10,C   7)          112.33  0.000415   -0.16    112.17   
    72. A(H  21,C  18,H  22)          104.53  0.001028   -0.13    104.40   
    73. A(H  20,C  18,H  22)          104.50  0.000713   -0.04    104.46   
    74. A(O  19,C  18,H  22)          113.79 -0.002139    0.43    114.22   
    75. A(H  20,C  18,H  21)          103.87 -0.000389    0.02    103.89   
    76. A(O  19,C  18,H  21)          114.45  0.000456   -0.15    114.30   
    77. A(O  19,C  18,H  20)          114.51  0.000526   -0.16    114.35   
    78. A(C  10,O  19,C  18)          104.87  0.000222   -0.46    104.41   
    79. D(H   9,C   1,C   0,H  15)     60.28 -0.000015   -0.16     60.13   
    80. D(C   4,C   1,C   0,H  16)    -60.94  0.000408   -0.36    -61.30   
    81. D(H   8,C   1,C   0,C   7)   -179.51 -0.000081   -0.16   -179.67   
    82. D(H   9,C   1,C   0,H  16)    179.44  0.000185   -0.29    179.15   
    83. D(H   8,C   1,C   0,H  15)    -58.76 -0.000051   -0.15    -58.91   
    84. D(C   4,C   1,C   0,C   7)     59.15  0.000179   -0.23     58.91   
    85. D(C   4,C   1,C   0,H  15)    179.90  0.000208   -0.23    179.67   
    86. D(H   9,C   1,C   0,C   7)    -60.47 -0.000045   -0.16    -60.63   
    87. D(H   8,C   1,C   0,H  16)     60.40  0.000149   -0.29     60.11   
    88. D(C   2,C   4,C   1,C   0)    -58.88 -0.000241    0.13    -58.75   
    89. D(H  13,C   4,C   2,H   6)    -60.12  0.000060    0.08    -60.04   
    90. D(H  13,C   4,C   2,C  10)    176.66  0.000212   -0.02    176.64   
    91. D(H  13,C   4,C   1,C   0)   -179.65 -0.000246    0.18   -179.47   
    92. D(H  13,C   4,C   1,H   8)     59.03  0.000054    0.11     59.13   
    93. D(H  14,C   4,C   2,C  10)    -65.27  0.000097   -0.02    -65.28   
    94. D(C   1,C   4,C   2,H   6)    178.41 -0.000161    0.16    178.57   
    95. D(H  14,C   4,C   2,H   5)    177.67 -0.000426    0.20    177.86   
    96. D(C   1,C   4,C   2,H   5)    -61.88 -0.000532    0.27    -61.61   
    97. D(H  14,C   4,C   1,H   9)   -179.11 -0.000228    0.23   -178.88   
    98. D(C   1,C   4,C   2,C  10)     55.19 -0.000009    0.06     55.25   
    99. D(H  13,C   4,C   2,H   5)     59.60 -0.000311    0.19     59.78   
   100. D(H  14,C   4,C   2,H   6)     57.95 -0.000055    0.09     58.04   
   101. D(C   2,C   4,C   1,H   9)     60.72 -0.000027    0.08     60.80   
   102. D(H  14,C   4,C   1,H   8)    -60.03 -0.000142    0.21    -59.82   
   103. D(H  14,C   4,C   1,C   0)     61.29 -0.000442    0.28     61.57   
   104. D(C   2,C   4,C   1,H   8)    179.80  0.000060    0.06    179.86   
   105. D(H  13,C   4,C   1,H   9)    -60.06 -0.000032    0.13    -59.93   
   106. D(H  11,C   7,C   0,C   1)   -179.32  0.000092    0.05   -179.27   
   107. D(C  10,C   7,C   0,H  16)     64.58 -0.000163    0.24     64.82   
   108. D(C  10,C   7,C   0,C   1)    -55.87 -0.000099    0.19    -55.68   
   109. D(C  10,C   7,C   0,H  15)   -177.36 -0.000270    0.21   -177.15   
   110. D(H  12,C   7,C   0,H  16)   -178.39  0.000347   -0.03   -178.42   
   111. D(H  12,C   7,C   0,H  15)    -60.34  0.000240   -0.05    -60.39   
   112. D(H  12,C   7,C   0,C   1)     61.16  0.000411   -0.08     61.09   
   113. D(H  11,C   7,C   0,H  16)    -58.87  0.000028    0.09    -58.78   
   114. D(H  11,C   7,C   0,H  15)     59.18 -0.000079    0.07     59.25   
   115. D(O  19,C  10,C   7,H  12)      8.83  0.000054   -0.09      8.73   
   116. D(O  19,C  10,C   7,C   0)    129.09 -0.000289    0.01    129.10   
   117. D(Br 17,C  10,C   7,H  12)    169.74  0.000301   -0.38    169.36   
   118. D(Br 17,C  10,C   7,H  11)     53.94 -0.000038   -0.17     53.77   
   119. D(H   3,C  10,C   7,H  12)     54.71  0.000553   -0.57     54.14   
   120. D(H   3,C  10,C   7,H  11)    -61.09  0.000213   -0.36    -61.45   
   121. D(H   3,C  10,C   7,C   0)    174.97  0.000210   -0.46    174.51   
   122. D(C   2,C  10,C   7,H  12)    -67.90  0.000642   -0.37    -68.26   
   123. D(C   2,C  10,C   7,H  11)    176.31  0.000303   -0.16    176.15   
   124. D(C   2,C  10,C   7,C   0)     52.36  0.000299   -0.26     52.11   
   125. D(O  19,C  10,C   2,H   6)    105.49  0.000185    0.13    105.62   
   126. D(O  19,C  10,C   2,H   5)     -9.86  0.000046    0.19     -9.67   
   127. D(O  19,C  10,C   2,C   4)   -130.73  0.000281    0.17   -130.56   
   128. D(Br 17,C  10,C   2,H   6)    -53.53 -0.000020    0.13    -53.40   
   129. D(Br 17,C  10,C   2,H   5)   -168.89 -0.000159    0.20   -168.69   
   130. D(Br 17,C  10,C   2,C   4)     70.25  0.000076    0.18     70.42   
   131. D(C   7,C  10,C   2,H   6)   -175.73 -0.000216    0.06   -175.67   
   132. D(Br 17,C  10,C   7,C   0)    -70.00 -0.000041   -0.27    -70.27   
   133. D(C   7,C  10,C   2,H   5)     68.91 -0.000355    0.12     69.04   
   134. D(C   7,C  10,C   2,C   4)    -51.95 -0.000120    0.10    -51.85   
   135. D(H   3,C  10,C   2,H   6)     61.50 -0.000290    0.33     61.83   
   136. D(O  19,C  10,C   7,H  11)   -106.97 -0.000286    0.12   -106.85   
   137. D(H   3,C  10,C   2,H   5)    -53.85 -0.000429    0.39    -53.46   
   138. D(H   3,C  10,C   2,C   4)   -174.72 -0.000194    0.37   -174.35   
   139. D(C  18,O  19,C  10,C   7)     83.74 -0.000241    1.42     85.16   
   140. D(C  18,O  19,C  10,H   3)    -37.86 -0.000046    1.17    -36.69   
   141. D(C  18,O  19,C  10,C   2)   -162.23  0.000294    1.25   -160.97   
   142. D(C  10,O  19,C  18,H  22)   -172.71  0.000196   -0.08   -172.79   
   143. D(C  10,O  19,C  18,H  21)     67.18  0.000133   -0.13     67.05   
   144. D(C  10,O  19,C  18,H  20)    -52.60 -0.000113    0.08    -52.52   
   145. D(C  18,O  19,C  10,Br 17)    -43.15 -0.000081    1.94    -41.22   
    ----------------------------------------------------------------------------

         *************************************************************
         *                GEOMETRY OPTIMIZATION CYCLE   2            *
         *************************************************************
      -----------------------------------------------------------      
     |                   =====================                   |     
     |                           x T B                           |     
     |                   =====================                   |     
     |                         S. Grimme                         |     
     |          Mulliken Center for Theoretical Chemistry        |     
     |                    University of Bonn                     |     
      -----------------------------------------------------------      

   * xtb version 6.3.2 (30e43eb) compiled by 'schneider@apollo14' on 2020-08-08

   xtb is free software: you can redistribute it and/or modify it under
   the terms of the GNU Lesser General Public License as published by
   the Free Software Foundation, either version 3 of the License, or
   (at your option) any later version.
   
   xtb is distributed in the hope that it will be useful,
   but WITHOUT ANY WARRANTY; without even the implied warranty of
   MERCHANTABILITY or FITNESS FOR A PARTICULAR PURPOSE.  See the
   GNU Lesser General Public License for more details.
   
   Cite this work as:
   * S. Grimme, C. Bannwarth, P. Shushkov, J. Chem. Theory Comput., 2017,
     13, 1989-2009. DOI: 10.1021/acs.jctc.7b00118
   * C. Bannwarth, S. Ehlert and S. Grimme., J. Chem. Theory Comput., 2019,
     15, 1652-1671. DOI: 10.1021/acs.jctc.8b01176
   * P. Pracht, E. Caldeweyher, S. Ehlert, S. Grimme, ChemRxiv, 2019, preprint.
     DOI: 10.26434/chemrxiv.8326202.v1
   
   for GFN-FF:
   * S. Spicher and S. Grimme, Angew. Chem. Int. Ed., 2020,
     DOI: 10.1002/anie.202004239
   
   for DFT-D4:
   * E. Caldeweyher, C. Bannwarth and S. Grimme, J. Chem. Phys., 2017,
     147, 034112. DOI: 10.1063/1.4993215
   * E. Caldeweyher, S. Ehlert, A. Hansen, H. Neugebauer, S. Spicher,
     C. Bannwarth and S. Grimme, J. Chem. Phys., 2019, 150, 154122.
     DOI: 10.1063/1.5090222
   
   for sTDA-xTB:
   * S. Grimme and C. Bannwarth, J. Chem. Phys., 2016, 145, 054103.
     DOI: 10.1063/1.4959605
   
   in the mass-spec context:
   * V. Asgeirsson, C. Bauer and S. Grimme, Chem. Sci., 2017, 8, 4879.
     DOI: 10.1039/c7sc00601b
   * J. Koopman and S. Grimme, ACS Omega 2019, 4, 12, 15120-15133.
     DOI: 10.1021/acsomega.9b02011
   
   for metadynamics refer to:
   * S. Grimme, J. Chem. Theory Comput., 2019, 155, 2847-2862
     DOI: 10.1021/acs.jctc.9b00143
   
   with help from (in alphabetical order)
   C. Bannwarth, F. Bohle, G. Brandenburg, E. Caldeweyher, M. Checinski,
   S. Dohm, S. Ehlert, S. Ehrlich, F. März, H. Neugebauer, J. Pisarek,
   P. Pracht, P. Shushkov, and S. Spicher.
   
 * started run on 2021/11/10 at 03:24:02.486     

           -------------------------------------------------
          |                Calculation Setup                |
           -------------------------------------------------

          program call               : /opt/orca/otool_xtb opt+numfreq_XTB.xyz --grad -c -1 -u 0 -P 4 --namespace opt+numfreq --gbsa methanol
          calculation namespace      : opt+numfreq
          coordinate file            : opt+numfreq_XTB.xyz
          omp threads                :                     4
          number of atoms            :                    23
          number of electrons        :                    56
          charge                     :                    -1
          spin                       :                   0.0
          first test random number   :      0.80889512604283

   ID    Z sym.   atoms
    1    6 C      1-3, 5, 8, 11, 19
    2    1 H      4, 6, 7, 9, 10, 12-17, 21-23
    3   35 Br     18
    4    8 O      20

molecular fragmentation (1/2 indicates fragments):
11111111111111111122222
# atoms in fragment 1/2:    18     5
 fragment masses (1/2) :      163.06       31.03
CMA distance (Bohr)    :   7.945
constraining FC (au)   :  0.0500
########################################################################
[WARNING] Please study the warnings concerning your input carefully
-1- prog_main_parseArguments: Process number higher than OMP_NUM_THREADS, I hope you know what you are doing.
########################################################################

           -------------------------------------------------
          |                 G F N 2 - x T B                 |
           -------------------------------------------------

        Reference                      10.1021/acs.jctc.8b01176
      * Hamiltonian:
        H0-scaling (s, p, d)           1.850000    2.230000    2.230000
        zeta-weighting                 0.500000
      * Dispersion:
        s8                             2.700000
        a1                             0.520000
        a2                             5.000000
        s9                             5.000000
      * Repulsion:
        kExp                           1.500000    1.000000
        rExp                           1.000000
      * Coulomb:
        alpha                          2.000000
        third order                    shell-resolved
        anisotropic                    true
        a3                             3.000000
        a5                             4.000000
        cn-shift                       1.200000
        cn-exp                         4.000000
        max-rad                        5.000000

      * Solvation model:               GBSA
        Solvent                        methanol
        Parameter file                 internal GFN2-xTB/GBSA
        Dielectric constant                3.2700E+01
        Reference state                gsolv [1 M gas/solution]
        Free energy shift                  3.3569E-03 Eh       2.1065E+00 kcal/mol
        Temperature                        2.9815E+02 K
        Density                            7.9200E-01 kg/L
        Solvent mass                       3.2040E+01 g/mol
        Interaction kernel             Still
        Born radius scaling (c1)           1.6087E+00
        Born radii integrator          GBOBC
        Born offset                        5.6550E-04 a0       1.0686E-03 AA
        H-bond correction              true
        Ion screening                  false
        Surface tension                    1.0000E-05 Eh       1.5569E+01 dyn/cm
        Grid points                               230 per atom

          ...................................................
          :                      SETUP                      :
          :.................................................:
          :  # basis functions                  56          :
          :  # atomic orbitals                  55          :
          :  # shells                           33          :
          :  # electrons                        56          :
          :  max. iterations                   250          :
          :  Hamiltonian                  GFN2-xTB          :
          :  restarted?                      false          :
          :  GBSA solvation                   true          :
          :  PC potential                    false          :
          :  electronic temp.          300.0000000     K    :
          :  accuracy                    1.0000000          :
          :  -> integral cutoff          0.2500000E+02      :
          :  -> integral neglect         0.1000000E-07      :
          :  -> SCF convergence          0.1000000E-05 Eh   :
          :  -> wf. convergence          0.1000000E-03 e    :
          :  Broyden damping             0.4000000          :
          ...................................................

 iter      E             dE          RMSdq      gap      omega  full diag
   1    -30.7738083 -0.307738E+02  0.442E+00    5.98       0.0  T
   2    -30.8841683 -0.110360E+00  0.270E+00    4.28       1.0  T
   3    -30.8927672 -0.859893E-02  0.120E+00    3.28       1.0  T
   4    -30.8959137 -0.314646E-02  0.852E-01    2.85       1.0  T
   5    -30.8974635 -0.154986E-02  0.536E-01    2.94       1.0  T
   6    -30.8984708 -0.100732E-02  0.299E-01    3.05       1.0  T
   7    -30.8988217 -0.350861E-03  0.697E-02    3.00       1.0  T
   8    -30.8988384 -0.166993E-04  0.342E-02    2.96       1.0  T
   9    -30.8988404 -0.195531E-05  0.941E-03    2.94       2.2  T
  10    -30.8988406 -0.293639E-06  0.388E-03    2.94       5.4  T
  11    -30.8988407 -0.256749E-07  0.208E-03    2.94      10.0  T
  12    -30.8988407 -0.119816E-07  0.115E-03    2.94      18.1  T
  13    -30.8988407 -0.371820E-08  0.430E-04    2.94      48.5  T
  14    -30.8988407 -0.432422E-09  0.191E-04    2.94     109.2  T

   *** convergence criteria satisfied after 14 iterations ***

         #    Occupation            Energy/Eh            Energy/eV
      -------------------------------------------------------------
         1        2.0000           -0.8346534             -22.7121
       ...           ...                  ...                  ...
        22        2.0000           -0.4251056             -11.5677
        23        2.0000           -0.4237426             -11.5306
        24        2.0000           -0.4214869             -11.4692
        25        2.0000           -0.4023289             -10.9479
        26        2.0000           -0.3999867             -10.8842
        27        2.0000           -0.3158540              -8.5948
        28        2.0000           -0.3149533              -8.5703 (HOMO)
        29                         -0.2068557              -5.6288 (LUMO)
        30                          0.0377143               1.0263
        31                          0.0380376               1.0351
        32                          0.0466819               1.2703
        33                          0.0575728               1.5666
       ...                                ...                  ...
        55                          0.4186303              11.3915
      -------------------------------------------------------------
                  HL-Gap            0.1080977 Eh            2.9415 eV
             Fermi-level           -0.2609045 Eh           -7.0996 eV

 SCC (total)                   0 d,  0 h,  0 min,  0.029 sec
 SCC setup                      ...        0 min,  0.001 sec (  4.292%)
 Dispersion                     ...        0 min,  0.000 sec (  0.699%)
 classical contributions        ...        0 min,  0.000 sec (  0.162%)
 integral evaluation            ...        0 min,  0.005 sec ( 15.577%)
 iterations                     ...        0 min,  0.017 sec ( 57.327%)
 molecular gradient             ...        0 min,  0.006 sec ( 21.299%)
 printout                       ...        0 min,  0.000 sec (  0.580%)

         :::::::::::::::::::::::::::::::::::::::::::::::::::::
         ::                     SUMMARY                     ::
         :::::::::::::::::::::::::::::::::::::::::::::::::::::
         :: total energy             -30.577240687982 Eh    ::
         :: total w/o Gsasa/hb       -30.566692806931 Eh    ::
         :: gradient norm              0.002908441297 Eh/a0 ::
         :: HOMO-LUMO gap              2.941487264100 eV    ::
         ::.................................................::
         :: SCC energy               -30.898840690682 Eh    ::
         :: -> isotropic ES            0.216571206817 Eh    ::
         :: -> anisotropic ES         -0.017646469339 Eh    ::
         :: -> anisotropic XC         -0.014256969725 Eh    ::
         :: -> dispersion             -0.020102156540 Eh    ::
         :: -> Gsolv                  -0.115046705653 Eh    ::
         ::    -> Gborn               -0.104498824601 Eh    ::
         ::    -> Gsasa               -0.011612439913 Eh    ::
         ::    -> Ghb                 -0.002292370661 Eh    ::
         ::    -> Gshift               0.003356929523 Eh    ::
         :: repulsion energy           0.321461886837 Eh    ::
         :: add. restraining           0.000000000000 Eh    ::
         :: total charge              -1.000000000000 e     ::
         :::::::::::::::::::::::::::::::::::::::::::::::::::::

           -------------------------------------------------
          |                Property Printout                |
           -------------------------------------------------

    * Orbital Energies and Occupations

         #    Occupation            Energy/Eh            Energy/eV
      -------------------------------------------------------------
         1        2.0000           -0.8346534             -22.7121
       ...           ...                  ...                  ...
        16        2.0000           -0.4817536             -13.1092
        17        2.0000           -0.4767850             -12.9740
        18        2.0000           -0.4715973             -12.8328
        19        2.0000           -0.4493041             -12.2262
        20        2.0000           -0.4438060             -12.0766
        21        2.0000           -0.4383880             -11.9291
        22        2.0000           -0.4251056             -11.5677
        23        2.0000           -0.4237426             -11.5306
        24        2.0000           -0.4214869             -11.4692
        25        2.0000           -0.4023289             -10.9479
        26        2.0000           -0.3999867             -10.8842
        27        2.0000           -0.3158540              -8.5948
        28        2.0000           -0.3149533              -8.5703 (HOMO)
        29                         -0.2068557              -5.6288 (LUMO)
        30                          0.0377143               1.0263
        31                          0.0380376               1.0351
        32                          0.0466819               1.2703
        33                          0.0575728               1.5666
        34                          0.0825485               2.2463
        35                          0.0938748               2.5545
        36                          0.0988040               2.6886
        37                          0.1060691               2.8863
        38                          0.1138179               3.0971
        39                          0.1154954               3.1428
       ...                                ...                  ...
        55                          0.4186303              11.3915
      -------------------------------------------------------------
                  HL-Gap            0.1080977 Eh            2.9415 eV
             Fermi-level           -0.2609045 Eh           -7.0996 eV

     #   Z          covCN         q      C6AA      α(0)
     1   6 C        3.806    -0.055    21.562     6.611
     2   6 C        3.806    -0.056    21.576     6.613
     3   6 C        3.885    -0.042    21.275     6.558
     4   1 H        0.926     0.009     2.910     2.668
     5   6 C        3.806    -0.056    21.575     6.612
     6   1 H        0.924     0.044     2.396     2.421
     7   1 H        0.924     0.023     2.691     2.565
     8   6 C        3.887    -0.034    21.131     6.535
     9   1 H        0.924     0.046     2.371     2.408
    10   1 H        0.924     0.025     2.662     2.552
    11   6 C        3.796     0.083    19.207     6.241
    12   1 H        0.924     0.015     2.805     2.619
    13   1 H        0.924     0.032     2.562     2.503
    14   1 H        0.924     0.036     2.504     2.474
    15   1 H        0.924     0.052     2.290     2.367
    16   1 H        0.924     0.033     2.538     2.491
    17   1 H        0.924     0.052     2.290     2.366
    18  35 Br       1.078    -0.219   191.142    22.292
    19   6 C        3.602     0.209    17.798     6.100
    20   8 O        0.855    -0.829    32.482     7.641
    21   1 H        0.916    -0.122     6.409     3.960
    22   1 H        0.915    -0.128     6.679     4.042
    23   1 H        0.917    -0.118     6.251     3.910

 Mol. C6AA /au·bohr⁶  :       5814.728721
 Mol. C8AA /au·bohr⁸  :     154326.037673
 Mol. α(0) /au        :        114.548337


Wiberg/Mayer (AO) data.
largest (>0.10) Wiberg bond orders for each atom

 ---------------------------------------------------------------------------
     #   Z sym  total        # sym  WBO       # sym  WBO       # sym  WBO
 ---------------------------------------------------------------------------
     1   6 C    3.996 --     2 C    1.009     8 C    1.009    16 H    0.977
                            17 H    0.973
     2   6 C    3.998 --     5 C    1.009     1 C    1.009    10 H    0.978
                             9 H    0.976
     3   6 C    3.993 --    11 C    1.012     5 C    1.009     7 H    0.976
                             6 H    0.959
     4   1 H    1.000 --    11 C    0.974
     5   6 C    3.996 --     2 C    1.009     3 C    1.009    14 H    0.977
                            15 H    0.973
     6   1 H    0.998 --     3 C    0.959
     7   1 H    0.999 --     3 C    0.976
     8   6 C    3.994 --    11 C    1.012     1 C    1.009    12 H    0.977
                            13 H    0.960
     9   1 H    0.998 --     2 C    0.976
    10   1 H    0.999 --     2 C    0.978
    11   6 C    3.941 --     8 C    1.012     3 C    1.012     4 H    0.974
                            18 Br   0.902
    12   1 H    1.000 --     8 C    0.977
    13   1 H    0.999 --     8 C    0.960
    14   1 H    0.999 --     5 C    0.977
    15   1 H    0.997 --     5 C    0.973
    16   1 H    0.999 --     1 C    0.977
    17   1 H    0.997 --     1 C    0.973
    18  35 Br   0.972 --    11 C    0.902
    19   6 C    3.976 --    20 O    1.176    23 H    0.935    21 H    0.931
                            22 H    0.930
    20   8 O    1.353 --    19 C    1.176
    21   1 H    0.985 --    19 C    0.931
    22   1 H    0.983 --    19 C    0.930
    23   1 H    0.986 --    19 C    0.935
 ---------------------------------------------------------------------------

Topologies differ in total number of bonds
Writing topology from bond orders to xtbtopo.mol

molecular dipole:
                 x           y           z       tot (Debye)
 q only:       -0.439       0.734       4.964
   full:        0.661       0.415       3.661       9.515
molecular quadrupole (traceless):
                xx          xy          yy          xz          yz          zz
 q only:        3.847       0.201      15.663      12.677      -4.792     -19.510
  q+dip:       -9.063      -1.012      21.900      20.680      -2.728     -12.837
   full:       -8.602      -0.800      21.747      20.556      -2.464     -13.146


           -------------------------------------------------
          | TOTAL ENERGY              -30.577240687982 Eh   |
          | GRADIENT NORM               0.002908441297 Eh/α |
          | HOMO-LUMO GAP               2.941487264100 eV   |
           -------------------------------------------------

------------------------------------------------------------------------
 * finished run on 2021/11/10 at 03:24:02.531     
------------------------------------------------------------------------
 total:
 * wall-time:     0 d,  0 h,  0 min,  0.044 sec
 *  cpu-time:     0 d,  0 h,  0 min,  0.315 sec
 * ratio c/w:     7.070 speedup
 SCF:
 * wall-time:     0 d,  0 h,  0 min,  0.029 sec
 *  cpu-time:     0 d,  0 h,  0 min,  0.200 sec
 * ratio c/w:     6.779 speedup


-------------------------   --------------------
FINAL SINGLE POINT ENERGY       -30.577240687980
-------------------------   --------------------

------------------------------------------------------------------------------
                         ORCA GEOMETRY RELAXATION STEP
------------------------------------------------------------------------------

Reading the OPT-File                    .... done
Getting information on internals        .... done
Copying old internal coords+grads       .... done
Making the new internal coordinates     .... (new redundants).... done
Validating the new internal coordinates .... (new redundants).... done
Calculating the B-matrix                .... done
Calculating the G,G- and P matrices     .... done
Transforming gradient to internals      .... done
Projecting the internal gradient        .... done
Number of atoms                         ....  23
Number of internal coordinates          .... 145
Current Energy                          ....   -30.577240688 Eh
Current gradient norm                   ....     0.002908441 Eh/bohr
Maximum allowed component of the step   ....  0.300
Current trust radius                    ....  0.300
Updating the Hessian (BFGS)             .... done
Forming the augmented Hessian           .... done
Diagonalizing the augmented Hessian     .... done
Last element of RFO vector              ....  0.889482642
Lowest eigenvalues of augmented Hessian:
 -0.000706384  0.000873029  0.003130395  0.008822068  0.010591314
Length of the computed step             ....  0.513746909
Warning: the length of the step is outside the trust region - taking restricted step instead
The input lambda is                     ....    -0.000706
   iter:   1  x=   -0.001379  g=  258.457976 f(x)=     0.173936
   iter:   2  x=   -0.002015  g=  101.706865 f(x)=     0.064601
   iter:   3  x=   -0.002326  g=   54.874384 f(x)=     0.017079
   iter:   4  x=   -0.002373  g=   42.738917 f(x)=     0.002001
   iter:   5  x=   -0.002373  g=   41.253734 f(x)=     0.000035
   iter:   6  x=   -0.002373  g=   41.227460 f(x)=     0.000000
   iter:   7  x=   -0.002373  g=   41.227452 f(x)=     0.000000
The output lambda is                    ....    -0.002373 (7 iterations)
The final length of the internal step   ....  0.300000000
Converting the step to cartesian space:
 Initial RMS(Int)=    0.0249136440
Transforming coordinates:
 Iter   0:  RMS(Cart)=    0.0339917692 RMS(Int)=    0.0250314954
 Iter   1:  RMS(Cart)=    0.0006290303 RMS(Int)=    0.0004085391
 Iter   2:  RMS(Cart)=    0.0000160868 RMS(Int)=    0.0000097017
 Iter   3:  RMS(Cart)=    0.0000007235 RMS(Int)=    0.0000003408
 Iter   4:  RMS(Cart)=    0.0000000240 RMS(Int)=    0.0000000150
done
Storing new coordinates                 .... done

                                .--------------------.
          ----------------------|Geometry convergence|-------------------------
          Item                value                   Tolerance       Converged
          ---------------------------------------------------------------------
          Energy change      -0.0006586977            0.0000050000      NO
          RMS gradient        0.0001883604            0.0001000000      NO
          MAX gradient        0.0008689193            0.0003000000      NO
          RMS step            0.0249136440            0.0020000000      NO
          MAX step            0.1495161761            0.0040000000      NO
          ........................................................
          Max(Bonds)      0.0791      Max(Angles)    0.37
          Max(Dihed)        3.42      Max(Improp)    0.00
          ---------------------------------------------------------------------

The optimization has not yet converged - more geometry cycles are needed


    ---------------------------------------------------------------------------
                         Redundant Internal Coordinates
                            (Angstroem and degrees)

        Definition                    Value    dE/dq     Step     New-Value
    ----------------------------------------------------------------------------
     1. B(C   1,C   0)                1.5253 -0.000008  0.0001    1.5253   
     2. B(C   4,C   2)                1.5245  0.000107 -0.0004    1.5241   
     3. B(C   4,C   1)                1.5252 -0.000063  0.0001    1.5254   
     4. B(H   5,C   2)                1.0956 -0.000229  0.0005    1.0961   
     5. B(H   6,C   2)                1.0948  0.000060 -0.0002    1.0947   
     6. B(C   7,C   0)                1.5246  0.000174 -0.0004    1.5241   
     7. B(H   8,C   1)                1.0916  0.000035 -0.0001    1.0915   
     8. B(H   9,C   1)                1.0931 -0.000036  0.0001    1.0932   
     9. B(C  10,C   7)                1.5153 -0.000263  0.0003    1.5156   
    10. B(C  10,H   3)                1.0926  0.000135 -0.0002    1.0924   
    11. B(C  10,C   2)                1.5157 -0.000142  0.0004    1.5161   
    12. B(H  11,C   7)                1.0955  0.000100 -0.0003    1.0952   
    13. B(H  12,C   7)                1.0966  0.000005  0.0003    1.0969   
    14. B(H  13,C   4)                1.0915  0.000022 -0.0001    1.0914   
    15. B(H  14,C   4)                1.0942  0.000055 -0.0002    1.0940   
    16. B(H  15,C   0)                1.0918  0.000046 -0.0001    1.0916   
    17. B(H  16,C   0)                1.0940  0.000017 -0.0001    1.0940   
    18. B(Br 17,C  10)                1.9461 -0.000244  0.0008    1.9469   
    19. B(C  18,H   3)                2.7170 -0.000377  0.0393    2.7562   
    20. B(C  18,H  12)                2.9232 -0.000448  0.0594    2.9826   
    21. B(O  19,H  12)                2.3798 -0.000093  0.0258    2.4056   
    22. B(O  19,C  10)                2.9501 -0.000869  0.0589    3.0090   
    23. B(O  19,H   5)                2.2873 -0.000735  0.0482    2.3355   
    24. B(O  19,H   3)                2.4351 -0.000581  0.0523    2.4874   
    25. B(O  19,C  18)                1.3116 -0.000302  0.0003    1.3119   
    26. B(H  20,H  12)                2.5837 -0.000453  0.0791    2.6628   
    27. B(H  20,H   3)                2.7671 -0.000102  0.0138    2.7809   
    28. B(H  20,C  18)                1.1376  0.000033 -0.0001    1.1374   
    29. B(H  21,H   3)                2.6276 -0.000273  0.0392    2.6668   
    30. B(H  21,C  18)                1.1392 -0.000046  0.0001    1.1393   
    31. B(H  22,C  18)                1.1325 -0.000271  0.0007    1.1332   
    32. A(C   7,C   0,H  15)          109.24  0.000040   -0.05    109.18   
    33. A(H  15,C   0,H  16)          108.10 -0.000006   -0.01    108.09   
[...]
     19      -0.236700   0.525102  -0.338186   0.032720   0.047317  -0.027693
     20       0.120116  -0.264016   0.169548  -0.013068  -0.025245   0.015894
     21      -0.011295  -0.015943  -0.020775  -0.000671  -0.008726  -0.004568
     22      -0.018154  -0.040582  -0.050109   0.009296   0.001063  -0.002080
     23       0.005735  -0.001110  -0.000591   0.004250   0.007974   0.002776
     24       0.002757  -0.001657   0.026105   0.058205   0.022620  -0.222223
     25       0.002669  -0.004038   0.018586   0.039346   0.013605  -0.161130
     26       0.008216  -0.004290   0.059127   0.117804   0.045021  -0.499593
     27       0.003924   0.003596  -0.074385  -0.235413  -0.095529   0.557988
     28      -0.000244   0.000084   0.007001   0.022544   0.006832  -0.050912
     29      -0.002693  -0.003128   0.061829   0.194406   0.080082  -0.458359
     30       0.021845   0.003720  -0.011917   0.002908   0.001192  -0.000438
     31       0.019762  -0.000291  -0.009581   0.003058   0.001057   0.000029
     32       0.063252   0.009366  -0.028269   0.009499   0.003846   0.000335
     33       0.121855   0.266810   0.325908  -0.058975  -0.002617   0.017598
     34       0.245869   0.524893   0.648180  -0.113564   0.000142   0.036261
     35      -0.019370  -0.044007  -0.055103   0.011035   0.003193  -0.001202
     36       0.033245  -0.071346  -0.071138   0.062098   0.095402   0.037368
     37      -0.013311  -0.013555  -0.018310  -0.000238  -0.005465  -0.005402
     38      -0.031008   0.055168   0.053449  -0.050994  -0.080747  -0.034635
     39       0.001443  -0.028863   0.033284   0.056125  -0.036798   0.039530
     40      -0.002203  -0.051892   0.069853   0.154973  -0.093416   0.088773
     41      -0.000061   0.008544  -0.007132   0.002626   0.000778  -0.005306
     42      -0.048043   0.038446   0.081026   0.623105  -0.306934   0.178091
     43       0.005553  -0.002022  -0.013356  -0.083558   0.039675  -0.024331
     44       0.040191  -0.032333  -0.069945  -0.534271   0.265473  -0.154438
     45      -0.002751   0.029542   0.068168   0.028710   0.114470   0.074180
     46       0.005853  -0.029177  -0.073675  -0.038787  -0.141356  -0.083053
     47      -0.002719   0.011646   0.033957   0.026592   0.087119   0.043153
     48      -0.045000  -0.036471   0.065269   0.248643   0.640763   0.173875
     49       0.003338   0.004367  -0.002149  -0.016918  -0.048624  -0.012718
     50       0.038427   0.029937  -0.060942  -0.218524  -0.565710  -0.155568
     51      -0.000159  -0.000045   0.000163   0.000004   0.000005  -0.000004
     52       0.000043   0.000004  -0.000020  -0.000014   0.000009  -0.000006
     53       0.000229   0.000040  -0.000158  -0.000023  -0.000012  -0.000016
     54      -0.000002   0.000019  -0.000130   0.000094   0.000021   0.000070
     55      -0.000052  -0.000011  -0.000094   0.000011   0.000087   0.000011
     56      -0.000172   0.000046  -0.000273   0.000110   0.000017   0.000008
     57      -0.000087   0.000002  -0.000024  -0.000048  -0.000013  -0.000091
     58       0.000020  -0.000057  -0.000002   0.000034  -0.000037   0.000023
     59       0.000118   0.000009   0.000071   0.000061   0.000031   0.000114
     60       0.000080  -0.000473   0.001404  -0.000417  -0.000424  -0.000051
     61       0.000209  -0.000677   0.002249  -0.000712  -0.000687  -0.000076
     62       0.000213   0.000105   0.000156   0.000004   0.000126  -0.000024
     63       0.000178  -0.000046   0.001837  -0.000793   0.000035  -0.000063
     64      -0.000006   0.000161  -0.001704   0.000842  -0.000093   0.000037
     65       0.000129  -0.000216   0.001358  -0.000471  -0.000076  -0.000071
     66      -0.000597   0.000288  -0.001632   0.000484   0.000178  -0.000292
     67       0.000240  -0.000039   0.000696  -0.000280  -0.000093  -0.000005
     68       0.000878  -0.000613   0.002887  -0.001129  -0.000405   0.000053
                  66         67         68    
      0       0.012810   0.026901  -0.018183
      1      -0.024389  -0.035942   0.022506
      2       0.019003   0.025168  -0.014752
      3      -0.044321   0.010227  -0.031012
      4      -0.010183   0.000672  -0.009369
      5      -0.016126   0.006487  -0.018891
      6      -0.001236   0.001355   0.002644
      7       0.002242  -0.003627  -0.004337
      8      -0.000162   0.001602   0.001962
      9       0.005827   0.001393  -0.008813
     10       0.004934  -0.000862  -0.007953
     11       0.016670   0.003754  -0.024487
     12       0.002858  -0.013997  -0.016933
     13       0.022008  -0.043363  -0.045246
     14       0.002598  -0.002037  -0.001011
     15       0.002254   0.009462   0.002880
     16       0.000060  -0.002046  -0.001776
     17      -0.002898  -0.007399  -0.001256
     18       0.016598  -0.032735  -0.043288
     19      -0.018261   0.033382   0.044155
     20       0.008719  -0.017257  -0.024138
     21      -0.001096  -0.000979   0.001309
     22      -0.003690  -0.005527   0.004030
     23       0.001247   0.000432  -0.000366
     24       0.193909  -0.051713   0.161648
     25       0.171259  -0.046472   0.138494
     26       0.551905  -0.143163   0.444840
     27       0.365911  -0.072585   0.218085
     28      -0.045373   0.007855  -0.028740
     29      -0.345832   0.070353  -0.210262
     30      -0.000706  -0.000199   0.001148
     31      -0.000346   0.000236   0.000632
     32      -0.001082  -0.000310   0.001569
     33       0.019823   0.032068  -0.023841
     34       0.040104   0.061908  -0.046785
     35      -0.003524  -0.004148   0.002452
     36       0.001127  -0.009970   0.001048
     37      -0.001316  -0.000800   0.001315
     38      -0.001644   0.008594  -0.000771
     39      -0.149792   0.297861   0.308332
     40      -0.274436   0.549355   0.575656
     41       0.036364  -0.070372  -0.074244
     42       0.096427  -0.126105  -0.106131
     43       0.001647  -0.008319  -0.011150
     44      -0.079576   0.100320   0.082164
     45      -0.315029  -0.472389   0.292725
     46       0.317846   0.479053  -0.300567
     47      -0.139202  -0.212025   0.132469
     48       0.140647   0.146299  -0.072574
     49      -0.025279  -0.029248   0.016319
     50      -0.105445  -0.102018   0.047112
     51       0.000005   0.000008  -0.000043
     52      -0.000002  -0.000002  -0.000001
     53      -0.000018  -0.000005   0.000033
     54       0.000023  -0.000024   0.000111
     55       0.000005   0.000008   0.000078
     56       0.000000  -0.000043   0.000217
     57      -0.000024   0.000001   0.000005
     58       0.000008  -0.000002  -0.000030
     59       0.000048   0.000020  -0.000137
     60      -0.000149   0.000026  -0.000880
     61      -0.000263  -0.000081  -0.001051
     62      -0.000052   0.000029   0.000044
     63      -0.000131   0.000407  -0.000982
     64       0.000103  -0.000379   0.000688
     65      -0.000136   0.000229  -0.000451
     66      -0.000131  -0.000145   0.000957
     67      -0.000012   0.000016  -0.000294
     68       0.000027   0.000216  -0.001284


-----------
IR SPECTRUM  
-----------

 Mode    freq (cm**-1)   T**2         TX         TY         TZ
-------------------------------------------------------------------
   7:        21.72    0.000000  (  0.000000   0.000000   0.000000)
   8:        47.19    0.000000  (  0.000000   0.000000   0.000000)
   9:        53.91    0.000000  (  0.000000   0.000000   0.000000)
  10:        68.22    0.000000  (  0.000000   0.000000   0.000000)
  11:       111.88    0.000000  (  0.000000   0.000000   0.000000)
  12:       131.25    0.000000  (  0.000000   0.000000   0.000000)
  13:       183.68    0.000000  (  0.000000   0.000000   0.000000)
  14:       250.77    0.000000  (  0.000000   0.000000   0.000000)
  15:       329.92    0.000000  (  0.000000   0.000000   0.000000)
  16:       375.50    0.000000  (  0.000000   0.000000   0.000000)
  17:       439.81    0.000000  (  0.000000   0.000000   0.000000)
  18:       455.31    0.000000  (  0.000000   0.000000   0.000000)
  19:       535.49    0.000000  (  0.000000   0.000000   0.000000)
  20:       673.33    0.000000  (  0.000000   0.000000   0.000000)
  21:       834.40    0.000000  (  0.000000   0.000000   0.000000)
  22:       867.54    0.000000  (  0.000000   0.000000   0.000000)
  23:       895.63    0.000000  (  0.000000   0.000000   0.000000)
  24:       933.70    0.000000  (  0.000000   0.000000   0.000000)
  25:       934.10    0.000000  (  0.000000   0.000000   0.000000)
  26:       960.59    0.000000  (  0.000000   0.000000   0.000000)
  27:      1008.00    0.000000  (  0.000000   0.000000   0.000000)
  28:      1089.25    0.000000  (  0.000000   0.000000   0.000000)
  29:      1092.09    0.000000  (  0.000000   0.000000   0.000000)
  30:      1116.05    0.000000  (  0.000000   0.000000   0.000000)
  31:      1120.06    0.000000  (  0.000000   0.000000   0.000000)
  32:      1137.21    0.000000  (  0.000000   0.000000   0.000000)
  33:      1138.78    0.000000  (  0.000000   0.000000   0.000000)
  34:      1176.24    0.000000  (  0.000000   0.000000   0.000000)
  35:      1178.84    0.000000  (  0.000000   0.000000   0.000000)
  36:      1179.58    0.000000  (  0.000000   0.000000   0.000000)
  37:      1224.43    0.000000  (  0.000000   0.000000   0.000000)
  38:      1252.34    0.000000  (  0.000000   0.000000   0.000000)
  39:      1253.55    0.000000  (  0.000000   0.000000   0.000000)
  40:      1254.25    0.000000  (  0.000000   0.000000   0.000000)
  41:      1299.19    0.000000  (  0.000000   0.000000   0.000000)
  42:      1331.73    0.000000  (  0.000000   0.000000   0.000000)
  43:      1346.97    0.000000  (  0.000000   0.000000   0.000000)
  44:      1349.18    0.000000  (  0.000000   0.000000   0.000000)
  45:      1357.48    0.000000  (  0.000000   0.000000   0.000000)
  46:      1367.44    0.000000  (  0.000000   0.000000   0.000000)
  47:      1468.81    0.000000  (  0.000000   0.000000   0.000000)
  48:      1472.59    0.000000  (  0.000000   0.000000   0.000000)
  49:      1478.73    0.000000  (  0.000000   0.000000   0.000000)
  50:      1484.07    0.000000  (  0.000000   0.000000   0.000000)
  51:      1487.12    0.000000  (  0.000000   0.000000   0.000000)
  52:      1501.63    0.000000  (  0.000000   0.000000   0.000000)
  53:      1510.97    0.000000  (  0.000000   0.000000   0.000000)
  54:      1512.43    0.000000  (  0.000000   0.000000   0.000000)
  55:      2279.57    0.000000  (  0.000000   0.000000   0.000000)
  56:      2314.43    0.000000  (  0.000000   0.000000   0.000000)
  57:      2527.59    0.000000  (  0.000000   0.000000   0.000000)
  58:      2908.41    0.000000  (  0.000000   0.000000   0.000000)
  59:      2915.36    0.000000  (  0.000000   0.000000   0.000000)
  60:      2937.47    0.000000  (  0.000000   0.000000   0.000000)
  61:      2944.38    0.000000  (  0.000000   0.000000   0.000000)
  62:      2948.86    0.000000  (  0.000000   0.000000   0.000000)
  63:      2949.55    0.000000  (  0.000000   0.000000   0.000000)
  64:      2949.86    0.000000  (  0.000000   0.000000   0.000000)
  65:      2968.87    0.000000  (  0.000000   0.000000   0.000000)
  66:      2974.08    0.000000  (  0.000000   0.000000   0.000000)
  67:      2979.59    0.000000  (  0.000000   0.000000   0.000000)
  68:      2985.31    0.000000  (  0.000000   0.000000   0.000000)

The first frequency considered to be a vibration is 7
The total number of vibrations considered is 62


--------------------------
THERMOCHEMISTRY AT 298.15K
--------------------------

Temperature         ... 298.15 K
Pressure            ... 1.00 atm
Total Mass          ... 194.09 AMU

Throughout the following assumptions are being made:
  (1) The electronic state is orbitally nondegenerate
  (2) There are no thermally accessible electronically excited states
  (3) Hindered rotations indicated by low frequency modes are not
      treated as such but are treated as vibrations and this may
      cause some error
  (4) All equations used are the standard statistical mechanics
      equations for an ideal gas
  (5) All vibrations are strictly harmonic

freq.      21.72  E(vib)   ...       0.56 
freq.      47.19  E(vib)   ...       0.53 
freq.      53.91  E(vib)   ...       0.52 
freq.      68.22  E(vib)   ...       0.50 
freq.     111.88  E(vib)   ...       0.45 
freq.     131.25  E(vib)   ...       0.42 
freq.     183.68  E(vib)   ...       0.37 
freq.     250.77  E(vib)   ...       0.30 
freq.     329.92  E(vib)   ...       0.24 
freq.     375.50  E(vib)   ...       0.21 
freq.     439.81  E(vib)   ...       0.17 
freq.     455.31  E(vib)   ...       0.16 
freq.     535.49  E(vib)   ...       0.12 
freq.     673.33  E(vib)   ...       0.08 
freq.     834.40  E(vib)   ...       0.04 
freq.     867.54  E(vib)   ...       0.04 
freq.     895.63  E(vib)   ...       0.03 
freq.     933.70  E(vib)   ...       0.03 
freq.     934.10  E(vib)   ...       0.03 
freq.     960.59  E(vib)   ...       0.03 
freq.    1008.00  E(vib)   ...       0.02 
freq.    1089.25  E(vib)   ...       0.02 
freq.    1092.09  E(vib)   ...       0.02 
freq.    1116.05  E(vib)   ...       0.01 
freq.    1120.06  E(vib)   ...       0.01 
freq.    1137.21  E(vib)   ...       0.01 
freq.    1138.78  E(vib)   ...       0.01 
freq.    1176.24  E(vib)   ...       0.01 
freq.    1178.84  E(vib)   ...       0.01 
freq.    1179.58  E(vib)   ...       0.01 
freq.    1224.43  E(vib)   ...       0.01 
freq.    1252.34  E(vib)   ...       0.01 
freq.    1253.55  E(vib)   ...       0.01 
freq.    1254.25  E(vib)   ...       0.01 
freq.    1299.19  E(vib)   ...       0.01 
freq.    1331.73  E(vib)   ...       0.01 
freq.    1346.97  E(vib)   ...       0.01 
freq.    1349.18  E(vib)   ...       0.01 
freq.    1357.48  E(vib)   ...       0.01 
freq.    1367.44  E(vib)   ...       0.01 
freq.    1468.81  E(vib)   ...       0.00 
freq.    1472.59  E(vib)   ...       0.00 
freq.    1478.73  E(vib)   ...       0.00 
freq.    1484.07  E(vib)   ...       0.00 
freq.    1487.12  E(vib)   ...       0.00 
freq.    1501.63  E(vib)   ...       0.00 
freq.    1510.97  E(vib)   ...       0.00 
freq.    1512.43  E(vib)   ...       0.00 
freq.    2279.57  E(vib)   ...       0.00 
freq.    2314.43  E(vib)   ...       0.00 
freq.    2527.59  E(vib)   ...       0.00 
freq.    2908.41  E(vib)   ...       0.00 
freq.    2915.36  E(vib)   ...       0.00 
freq.    2937.47  E(vib)   ...       0.00 
freq.    2944.38  E(vib)   ...       0.00 
freq.    2948.86  E(vib)   ...       0.00 
freq.    2949.55  E(vib)   ...       0.00 
freq.    2949.86  E(vib)   ...       0.00 
freq.    2968.87  E(vib)   ...       0.00 
freq.    2974.08  E(vib)   ...       0.00 
freq.    2979.59  E(vib)   ...       0.00 
freq.    2985.31  E(vib)   ...       0.00 

------------
INNER ENERGY
------------

The inner energy is: U= E(el) + E(ZPE) + E(vib) + E(rot) + E(trans)
    E(el)   - is the total energy from the electronic structure calculation
              = E(kin-el) + E(nuc-el) + E(el-el) + E(nuc-nuc)
    E(ZPE)  - the the zero temperature vibrational energy from the frequency calculation
    E(vib)  - the the finite temperature correction to E(ZPE) due to population
              of excited vibrational states
    E(rot)  - is the rotational thermal energy
    E(trans)- is the translational thermal energy

Summary of contributions to the inner energy U:
Electronic energy                ...    -30.57861343 Eh
Zero point energy                ...      0.19336240 Eh     121.34 kcal/mol
Thermal vibrational correction   ...      0.00810305 Eh       5.08 kcal/mol
Thermal rotational correction    ...      0.00141627 Eh       0.89 kcal/mol
Thermal translational correction ...      0.00141627 Eh       0.89 kcal/mol
-----------------------------------------------------------------------
Total thermal energy                    -30.37431543 Eh


Summary of corrections to the electronic energy:
(perhaps to be used in another calculation)
Total thermal correction                  0.01093559 Eh       6.86 kcal/mol
Non-thermal (ZPE) correction              0.19336240 Eh     121.34 kcal/mol
-----------------------------------------------------------------------
Total correction                          0.20429800 Eh     128.20 kcal/mol


--------
ENTHALPY
--------

The enthalpy is H = U + kB*T
                kB is Boltzmann's constant
Total free energy                 ...    -30.37431543 Eh 
Thermal Enthalpy correction       ...      0.00094421 Eh       0.59 kcal/mol
-----------------------------------------------------------------------
Total Enthalpy                    ...    -30.37337122 Eh


Note: Only C1 symmetry has been detected, increase convergence thresholds 
      if your molecule has a higher symmetry. Symmetry factor of 1.0 is   
      used for the rotational entropy correction. 
 

Note: Rotational entropy computed according to Herzberg 
Infrared and Raman Spectra, Chapter V,1, Van Nostrand Reinhold, 1945 
Point Group:  C1, Symmetry Number:   1  
Rotational constants in cm-1:     0.044994     0.021500     0.017644 

Vibrational entropy computed according to the QRRHO of S. Grimme
Chem.Eur.J. 2012 18 9955


-------
ENTROPY
-------

The entropy contributions are T*S = T*(S(el)+S(vib)+S(rot)+S(trans))
     S(el)   - electronic entropy
     S(vib)  - vibrational entropy
     S(rot)  - rotational entropy
     S(trans)- translational entropy
The entropies will be listed as mutliplied by the temperature to get
units of energy

Electronic entropy                ...      0.00000000 Eh      0.00 kcal/mol
Vibrational entropy               ...      0.01499213 Eh      9.41 kcal/mol
Rotational entropy                ...      0.01469354 Eh      9.22 kcal/mol
Translational entropy             ...      0.01981043 Eh     12.43 kcal/mol
-----------------------------------------------------------------------
Final entropy term                ...      0.04949610 Eh     31.06 kcal/mol

In case the symmetry of your molecule has not been determined correctly
or in case you have a reason to use a different symmetry number we print 
out the resulting rotational entropy values for sn=1,12 :
 --------------------------------------------------------
|  sn= 1 | S(rot)=       0.01469354 Eh      9.22 kcal/mol|
|  sn= 2 | S(rot)=       0.01403909 Eh      8.81 kcal/mol|
|  sn= 3 | S(rot)=       0.01365625 Eh      8.57 kcal/mol|
|  sn= 4 | S(rot)=       0.01338463 Eh      8.40 kcal/mol|
|  sn= 5 | S(rot)=       0.01317394 Eh      8.27 kcal/mol|
|  sn= 6 | S(rot)=       0.01300180 Eh      8.16 kcal/mol|
|  sn= 7 | S(rot)=       0.01285625 Eh      8.07 kcal/mol|
|  sn= 8 | S(rot)=       0.01273017 Eh      7.99 kcal/mol|
|  sn= 9 | S(rot)=       0.01261897 Eh      7.92 kcal/mol|
|  sn=10 | S(rot)=       0.01251949 Eh      7.86 kcal/mol|
|  sn=11 | S(rot)=       0.01242950 Eh      7.80 kcal/mol|
|  sn=12 | S(rot)=       0.01234734 Eh      7.75 kcal/mol|
 --------------------------------------------------------


-------------------
GIBBS FREE ENERGY
-------------------

The Gibbs free energy is G = H - T*S

Total enthalpy                    ...    -30.37337122 Eh 
Total entropy correction          ...     -0.04949610 Eh    -31.06 kcal/mol
-----------------------------------------------------------------------
Final Gibbs free energy         ...    -30.42286732 Eh

For completeness - the Gibbs free energy minus the electronic energy
G-E(el)                           ...      0.15574611 Eh     97.73 kcal/mol


Total Time for Numerical Frequencies  :        68.982 sec

Timings for individual modules:

Sum of individual times         ...        5.206 sec (=   0.087 min)
Geometry relaxation             ...        3.622 sec (=   0.060 min)  69.6 %
XTB module                      ...        1.584 sec (=   0.026 min)  30.4 %
                             ****ORCA TERMINATED NORMALLY****
TOTAL RUN TIME: 0 days 0 hours 1 minutes 18 seconds 387 msec
