 Entering Gaussian System
 *********************************************
 Gaussian 98:
 frequency output generated by the xtb code
 *********************************************
                         Standard orientation:
 --------------------------------------------------------------------
  Center     Atomic     Atomic              Coordinates (Angstroms)
  Number     Number      Type              X           Y           Z
 --------------------------------------------------------------------
    1          6             0        2.781042   -1.231424   -0.302929
    2          6             0        2.998568   -0.053781    0.638878
    3          6             0        1.645114    1.433446   -0.862152
    4          1             0        0.053065    0.332193   -1.763413
    5          6             0        2.989369    1.243157   -0.160487
    6          1             0        1.675944    2.307084   -1.517926
    7          1             0        0.885675    1.624948   -0.099481
    8          6             0        1.426753   -1.116206   -1.001762
    9          1             0        2.198252   -0.028918    1.382899
   10          1             0        3.949800   -0.163896    1.163485
   11          6             0        1.145768    0.232886   -1.688623
   12          1             0        0.642258   -1.254335   -0.253050
   13          1             0        1.310232   -1.908231   -1.745646
   14          1             0        3.806018    1.223370   -0.883695
   15          1             0        3.153172    2.094377    0.504545
   16          1             0        3.593573   -1.261002   -1.030251
   17          1             0        2.799736   -2.168536    0.258321
   18         35             0       -3.013295    0.515813    1.404956
   19          8             0        1.503909    0.281238   -3.065949
   20          6             0        2.863076    0.129222   -3.419695
   21          1             0        2.882520    0.219530   -4.505332
   22          1             0        3.487677    0.913183   -2.984255
   23          1             0        3.248296   -0.853809   -3.136288
 --------------------------------------------------------------------
     1 basis functions        1 primitive gaussians
     1 alpha electrons        1 beta electrons

 Harmonic frequencies (cm**-1), IR intensities (KM/Mole),
 Raman scattering activities (A**4/amu), Raman depolarization ratios,
 reduced masses (AMU), force constants (mDyne/A) and normal coordinates:
                      1                      2                      3
                        a                      a                      a 
 Frequencies --    17.9285                28.1164                36.0424
 Red. masses --    18.0200                14.0507                46.8741
 Frc consts  --     0.0000                 0.0000                 0.0000
 IR Inten    --     0.5043                 0.2819                 0.8866
 Raman Activ --     0.0000                 0.0000                 0.0000
 Depolar     --     0.0000                 0.0000                 0.0000
 Atom AN      X      Y      Z        X      Y      Z        X      Y      Z
   1   6    -0.28   0.02   0.09    -0.07   0.07  -0.06     0.15  -0.04  -0.06
   2   6    -0.42   0.04   0.10     0.07   0.03  -0.04     0.10  -0.02  -0.08
   3   6    -0.11   0.04  -0.18     0.19   0.17  -0.01     0.12  -0.06  -0.13
   4   1     0.01   0.02  -0.12     0.02   0.10  -0.01     0.05  -0.03  -0.05
   5   6    -0.24   0.02   0.06     0.17   0.05  -0.01     0.11  -0.03  -0.10
   6   1     0.01   0.01  -0.06     0.08   0.05  -0.01     0.03  -0.02  -0.04
   7   1    -0.07   0.02  -0.09     0.06   0.07  -0.01     0.03  -0.02  -0.04
   8   6    -0.15   0.04  -0.16    -0.08   0.20  -0.01     0.17  -0.06  -0.12
   9   1    -0.16   0.02  -0.01     0.03   0.02  -0.01     0.02  -0.00  -0.03
  10   1    -0.15   0.01   0.08     0.02  -0.02  -0.02     0.03   0.00  -0.01
  11   6     0.01   0.03  -0.24     0.07   0.22  -0.02     0.17  -0.07  -0.14
  12   1    -0.08   0.02  -0.09    -0.02   0.09   0.01     0.04  -0.02  -0.04
  13   1    -0.01   0.01  -0.05    -0.06   0.05   0.01     0.06  -0.02  -0.03
  14   1    -0.03  -0.01   0.06     0.05   0.01  -0.00     0.04  -0.01  -0.02
  15   1    -0.10   0.01   0.02     0.07   0.01   0.00     0.02  -0.00  -0.03
  16   1    -0.04  -0.01   0.07    -0.03   0.00  -0.03     0.05  -0.01  -0.01
  17   1    -0.12   0.01   0.03    -0.04   0.02  -0.02     0.04  -0.01  -0.01
  18  35     0.26  -0.05   0.20    -0.21  -0.15   0.10    -0.61   0.09   0.38
  19   8     0.29  -0.02  -0.20     0.12   0.24  -0.02     0.25  -0.10  -0.15
  20   6     0.31  -0.05   0.07     0.02  -0.55  -0.04     0.26   0.16  -0.07
  21   1     0.14  -0.02   0.02     0.03  -0.05  -0.00     0.08  -0.00  -0.02
  22   1     0.07  -0.01   0.04     0.16  -0.33   0.08     0.02   0.11  -0.05
  23   1     0.07  -0.01   0.05    -0.19  -0.27  -0.12     0.14   0.08   0.03
                      4                      5                      6
                        a                      a                      a 
 Frequencies --    43.3545               145.2521               181.7329
 Red. masses --    10.0118                 8.5992                 6.2159
 Frc consts  --     0.0000                 0.0000                 0.0000
 IR Inten    --     0.4110                 0.1192                 0.3202
 Raman Activ --     0.0000                 0.0000                 0.0000
 Depolar     --     0.0000                 0.0000                 0.0000
 Atom AN      X      Y      Z        X      Y      Z        X      Y      Z
   1   6     0.28   0.06  -0.21    -0.13  -0.05  -0.13     0.03   0.06  -0.20
   2   6    -0.00  -0.03  -0.02     0.30  -0.00  -0.29     0.01  -0.08  -0.03
   3   6    -0.31  -0.13   0.14    -0.27  -0.06   0.14     0.16   0.07  -0.20
   4   1    -0.01  -0.10  -0.02    -0.03   0.01  -0.07    -0.00   0.03   0.00
   5   6    -0.30   0.10   0.19    -0.08   0.06  -0.20    -0.02   0.05   0.18
   6   1    -0.14  -0.02   0.07    -0.17   0.03   0.10     0.14  -0.03  -0.12
   7   1    -0.11  -0.11   0.04    -0.05  -0.13   0.10     0.01   0.13  -0.12
   8   6     0.24  -0.15  -0.17    -0.27   0.07   0.15    -0.16   0.07   0.20
   9   1    -0.00  -0.10  -0.01     0.19  -0.01   0.03     0.00  -0.07  -0.01
  10   1     0.00   0.03  -0.01     0.16  -0.00  -0.21     0.00  -0.03  -0.01
  11   6    -0.01  -0.15  -0.03    -0.11   0.01  -0.02    -0.02  -0.02   0.00
  12   1     0.08  -0.10  -0.05    -0.04   0.11   0.10     0.01   0.10   0.13
  13   1     0.11  -0.03  -0.07    -0.17  -0.01   0.09    -0.15  -0.01   0.11
  14   1    -0.07   0.13   0.07    -0.07   0.07  -0.11     0.06   0.09   0.13
  15   1    -0.16   0.01   0.10    -0.01   0.00  -0.04    -0.10  -0.01   0.11
  16   1     0.08   0.11  -0.06    -0.09  -0.08  -0.09    -0.05   0.10  -0.12
  17   1     0.15  -0.01  -0.10    -0.04   0.00  -0.01     0.09  -0.01  -0.11
  18  35     0.00   0.17   0.04     0.02  -0.00  -0.01    -0.00  -0.01  -0.00
  19   8     0.07   0.15  -0.00     0.24  -0.03   0.07    -0.05  -0.39  -0.02
  20   6     0.03  -0.18   0.00     0.26   0.01   0.25     0.03   0.17   0.06
  21   1     0.04   0.13   0.02     0.11  -0.02   0.07     0.07   0.40   0.05
  22   1     0.09  -0.20   0.14     0.05   0.02   0.07    -0.03  -0.09   0.30
  23   1    -0.11  -0.15  -0.16     0.08   0.02   0.10     0.01  -0.04  -0.28
                      7                      8                      9
                        a                      a                      a 
 Frequencies --   242.4547               257.4050               332.0168
 Red. masses --     5.0180                 8.7636                 7.1264
 Frc consts  --     0.0000                 0.0000                 0.0000
 IR Inten    --     0.0749                 0.1497                 0.1715
 Raman Activ --     0.0000                 0.0000                 0.0000
 Depolar     --     0.0000                 0.0000                 0.0000
 Atom AN      X      Y      Z        X      Y      Z        X      Y      Z
   1   6     0.12   0.08  -0.30    -0.08   0.01   0.17    -0.12  -0.12   0.24
   2   6     0.00  -0.15  -0.01     0.09  -0.01   0.17     0.38  -0.03   0.04
   3   6     0.03   0.12   0.01    -0.09  -0.10   0.17     0.05  -0.01  -0.15
   4   1     0.00   0.05  -0.00     0.04   0.00  -0.07    -0.00   0.00  -0.01
   5   6    -0.12   0.06   0.31    -0.08  -0.01   0.17    -0.11   0.11   0.25
   6   1     0.08   0.02  -0.01    -0.07   0.02   0.12     0.09  -0.02  -0.06
   7   1    -0.03   0.07  -0.05    -0.05  -0.13   0.05    -0.04   0.04  -0.11
   8   6    -0.03   0.14   0.03    -0.10   0.10   0.22     0.07   0.02  -0.16
   9   1    -0.00  -0.13  -0.00     0.07  -0.01   0.10     0.26  -0.03   0.17
  10   1     0.00  -0.04  -0.01     0.06  -0.00  -0.01     0.21  -0.01  -0.17
  11   6     0.01   0.11   0.00     0.13  -0.01  -0.09    -0.01   0.02  -0.17
  12   1     0.04   0.08   0.07    -0.03   0.14   0.09    -0.04  -0.03  -0.12
  13   1    -0.09   0.03   0.03    -0.08  -0.03   0.13     0.10   0.01  -0.06
  14   1     0.00   0.11   0.13    -0.04   0.02   0.03     0.03   0.19   0.13
  15   1    -0.11  -0.03   0.16    -0.04   0.00   0.05    -0.18  -0.00   0.15
  16   1     0.01   0.12  -0.12    -0.05  -0.01   0.02     0.00  -0.21   0.12
  17   1     0.10  -0.03  -0.17    -0.03   0.00   0.05    -0.18   0.01   0.16
  18  35     0.00  -0.00  -0.00     0.01  -0.00  -0.00     0.00   0.00   0.00
  19   8    -0.00  -0.17  -0.01     0.15  -0.03  -0.13    -0.19   0.04  -0.24
  20   6    -0.01  -0.18  -0.02     0.01   0.05  -0.63    -0.10  -0.01   0.10
  21   1    -0.06  -0.44  -0.04    -0.13   0.06  -0.18     0.07  -0.02   0.03
  22   1    -0.06   0.17  -0.31     0.05  -0.00  -0.22    -0.06  -0.00   0.08
  23   1     0.11   0.09   0.32     0.04   0.00  -0.27    -0.06   0.00   0.09
                     10                     11                     12
                        a                      a                      a 
 Frequencies --   382.9138               391.8216               443.3541
 Red. masses --     9.0776                 9.3582                10.1009
 Frc consts  --     0.0000                 0.0000                 0.0000
 IR Inten    --     0.3811                 0.2089                 0.3693
 Raman Activ --     0.0000                 0.0000                 0.0000
 Depolar     --     0.0000                 0.0000                 0.0000
 Atom AN      X      Y      Z        X      Y      Z        X      Y      Z
   1   6    -0.18   0.24  -0.08     0.16   0.20   0.01     0.16  -0.23   0.08
   2   6     0.02   0.12   0.05     0.06  -0.04   0.30    -0.03  -0.16  -0.02
   3   6     0.09  -0.10   0.32    -0.02  -0.24  -0.00    -0.22   0.36   0.10
   4   1     0.01   0.11  -0.00    -0.03  -0.01  -0.06     0.00   0.02   0.00
   5   6     0.25   0.13   0.10     0.05  -0.28  -0.05    -0.19  -0.17  -0.10
   6   1    -0.13   0.08   0.23    -0.03   0.01   0.11    -0.03   0.15   0.09
   7   1     0.06  -0.23   0.18     0.01  -0.17   0.04    -0.07   0.05   0.04
   8   6    -0.09   0.02  -0.30     0.06   0.25   0.11     0.28   0.32  -0.05
   9   1     0.00   0.07   0.01    -0.00  -0.01   0.06    -0.02  -0.08  -0.01
  10   1    -0.01  -0.06   0.01     0.01   0.00   0.10    -0.01   0.04   0.01
  11   6    -0.00   0.11  -0.04    -0.11   0.02  -0.30     0.04   0.31   0.02
  12   1    -0.08  -0.14  -0.18     0.06   0.20   0.11     0.08   0.05  -0.02
  13   1     0.13   0.07  -0.18    -0.06  -0.03   0.16     0.05   0.14  -0.07
  14   1     0.06   0.04   0.02    -0.00  -0.18  -0.03    -0.12  -0.12  -0.10
  15   1     0.06   0.04   0.02     0.06  -0.01  -0.11     0.09  -0.07  -0.04
  16   1    -0.04   0.09  -0.02     0.04   0.15  -0.00     0.10  -0.16   0.09
  17   1    -0.04   0.06  -0.05     0.07  -0.00  -0.10    -0.10  -0.06   0.04
  18  35    -0.00   0.00   0.00     0.00  -0.00  -0.00     0.00   0.00  -0.00
  19   8    -0.08  -0.45  -0.08    -0.18   0.10  -0.37    -0.04  -0.35  -0.02
  20   6    -0.00  -0.06   0.02    -0.04   0.00   0.20     0.00  -0.03  -0.01
  21   1     0.03   0.04   0.01     0.14  -0.02   0.06     0.01   0.09   0.01
  22   1    -0.07   0.00   0.07    -0.06   0.00   0.13    -0.04  -0.02   0.07
  23   1     0.06  -0.01  -0.04    -0.07  -0.00   0.13     0.04  -0.02  -0.08
                     13                     14                     15
                        a                      a                      a 
 Frequencies --   491.3506               706.8517               768.6706
 Red. masses --     6.1318                 8.5869                 9.7689
 Frc consts  --     0.0000                 0.0000                 0.0000
 IR Inten    --     0.1250                 0.2593                 0.4131
 Raman Activ --     0.0000                 0.0000                 0.0000
 Depolar     --     0.0000                 0.0000                 0.0000
 Atom AN      X      Y      Z        X      Y      Z        X      Y      Z
   1   6     0.09  -0.27   0.01    -0.08  -0.07   0.03    -0.18   0.10  -0.07
   2   6    -0.19   0.04  -0.29    -0.08   0.00   0.02    -0.15   0.01  -0.01
   3   6     0.09  -0.05   0.10    -0.03   0.38   0.15     0.10  -0.17  -0.17
   4   1     0.05  -0.01   0.03     0.11  -0.01   0.05     0.14  -0.01   0.05
   5   6     0.14   0.26   0.05    -0.07   0.08   0.03    -0.20  -0.06  -0.09
   6   1    -0.15   0.07   0.13    -0.01   0.10   0.04    -0.08   0.00   0.02
   7   1     0.04  -0.22   0.10    -0.06   0.06   0.00    -0.01  -0.21  -0.04
   8   6     0.07   0.00   0.11    -0.09  -0.39   0.11     0.12   0.17  -0.14
   9   1    -0.20   0.03  -0.24     0.10  -0.02   0.13     0.11  -0.02   0.15
  10   1    -0.17   0.01   0.12     0.07   0.00  -0.15     0.07   0.01  -0.20
  11   6     0.21  -0.02  -0.10     0.39  -0.03   0.01     0.57  -0.04  -0.03
  12   1     0.07   0.19   0.12    -0.07  -0.05  -0.00     0.02   0.20  -0.02
  13   1    -0.17  -0.07   0.14    -0.03  -0.10   0.03    -0.07   0.02   0.01
  14   1     0.10   0.22   0.08    -0.11  -0.15  -0.10    -0.02  -0.06   0.01
  15   1    -0.09  -0.00   0.14     0.22   0.02  -0.05    -0.07   0.01  -0.05
  16   1     0.05  -0.23   0.05    -0.09   0.18  -0.08    -0.01   0.07   0.02
  17   1    -0.08   0.00   0.14     0.22  -0.05  -0.05    -0.06   0.01  -0.06
  18  35    -0.00  -0.00  -0.00     0.00  -0.00  -0.00    -0.00  -0.00   0.00
  19   8    -0.13   0.04  -0.18    -0.12   0.03  -0.33     0.02  -0.03   0.33
  20   6    -0.08   0.01   0.06    -0.03   0.00   0.02    -0.23   0.02   0.14
  21   1     0.07  -0.02   0.02     0.16  -0.02   0.01    -0.13   0.02   0.04
  22   1    -0.06   0.00   0.06    -0.07   0.00   0.09    -0.03   0.00   0.00
  23   1    -0.06   0.01   0.07    -0.06   0.00   0.09    -0.04   0.00   0.00
                     16                     17                     18
                        a                      a                      a 
 Frequencies --   799.3946               883.2687               907.6226
 Red. masses --     4.7152                 8.1558                 6.3263
 Frc consts  --     0.0000                 0.0000                 0.0000
 IR Inten    --     0.0515                 0.3171                 0.2831
 Raman Activ --     0.0000                 0.0000                 0.0000
 Depolar     --     0.0000                 0.0000                 0.0000
 Atom AN      X      Y      Z        X      Y      Z        X      Y      Z
   1   6    -0.02   0.14  -0.21     0.11  -0.25  -0.02     0.02  -0.12   0.00
   2   6     0.00   0.12   0.00     0.00  -0.02   0.34     0.38  -0.04   0.19
   3   6    -0.06  -0.05   0.27    -0.03   0.25  -0.23    -0.20  -0.02  -0.02
   4   1    -0.00  -0.06  -0.00    -0.06   0.01  -0.06     0.07   0.00  -0.10
   5   6     0.03   0.11   0.23     0.16   0.23   0.01     0.04   0.11   0.01
   6   1     0.19  -0.16  -0.12    -0.23   0.16   0.05     0.04  -0.05  -0.07
   7   1    -0.10   0.25  -0.08     0.06  -0.14   0.06    -0.16   0.05  -0.13
   8   6     0.06  -0.03  -0.27    -0.06  -0.21  -0.25    -0.19   0.06  -0.02
   9   1     0.00  -0.04   0.00     0.07  -0.02   0.17    -0.18   0.03  -0.24
  10   1    -0.00  -0.06  -0.01     0.05  -0.01   0.01    -0.11  -0.02   0.42
  11   6    -0.00  -0.18  -0.01    -0.21   0.02  -0.20     0.28  -0.01  -0.16
  12   1     0.14   0.23   0.11     0.09   0.12   0.08    -0.17  -0.00  -0.13
  13   1    -0.22  -0.14   0.11    -0.25  -0.12   0.04     0.05   0.05  -0.06
  14   1    -0.15  -0.20  -0.12     0.10  -0.05   0.07    -0.11   0.07  -0.14
  15   1     0.27   0.11  -0.11     0.05   0.12  -0.06     0.05   0.08  -0.07
  16   1     0.11  -0.23   0.09     0.11   0.03   0.07    -0.12  -0.03  -0.14
  17   1    -0.25   0.13   0.12     0.03  -0.11  -0.08     0.04  -0.08  -0.08
  18  35     0.00  -0.00  -0.00     0.00  -0.00  -0.00     0.00  -0.00   0.00
  19   8    -0.01  -0.05   0.00     0.08  -0.02   0.20     0.09  -0.02   0.09
  20   6    -0.00  -0.00   0.00    -0.04   0.00   0.05    -0.22   0.02   0.11
  21   1     0.00   0.02   0.00    -0.15   0.02   0.01    -0.08   0.01   0.03
  22   1    -0.01   0.00   0.01     0.03   0.00  -0.05    -0.03   0.00   0.01
  23   1     0.01   0.00  -0.01     0.03  -0.00  -0.05    -0.04   0.00   0.01
                     19                     20                     21
                        a                      a                      a 
 Frequencies --   925.4113               943.2955               956.0006
 Red. masses --     7.4423                 8.1684                 4.7235
 Frc consts  --     0.0000                 0.0000                 0.0000
 IR Inten    --     0.1356                 0.5442                 0.1696
 Raman Activ --     0.0000                 0.0000                 0.0000
 Depolar     --     0.0000                 0.0000                 0.0000
 Atom AN      X      Y      Z        X      Y      Z        X      Y      Z
   1   6    -0.31   0.13   0.05     0.05   0.30   0.09    -0.00   0.17  -0.19
   2   6    -0.02  -0.25  -0.02     0.05   0.02  -0.22    -0.01  -0.13  -0.01
   3   6    -0.26   0.22  -0.02     0.03   0.24   0.04     0.01   0.10  -0.28
   4   1    -0.02  -0.28  -0.02    -0.01   0.02  -0.14    -0.00  -0.07  -0.00
   5   6     0.32   0.05  -0.04    -0.02  -0.31   0.06     0.03   0.14   0.20
   6   1    -0.13  -0.01  -0.09     0.13   0.18   0.17    -0.22   0.11   0.03
   7   1    -0.04   0.10   0.01    -0.02  -0.02  -0.00     0.01  -0.22   0.00
   8   6     0.29   0.15   0.04    -0.03  -0.25   0.01     0.00   0.07   0.29
   9   1     0.01   0.13   0.00    -0.04   0.00  -0.11    -0.03  -0.34  -0.02
  10   1    -0.03  -0.30  -0.02    -0.02   0.01  -0.00    -0.01  -0.07   0.00
  11   6    -0.02  -0.27  -0.03    -0.05   0.03  -0.39    -0.01  -0.12  -0.00
  12   1     0.06   0.09  -0.00    -0.02   0.01  -0.00    -0.05  -0.21  -0.03
  13   1     0.14  -0.05   0.10     0.10  -0.21   0.14     0.24   0.07  -0.02
  14   1     0.09   0.17  -0.01     0.00   0.02   0.03     0.01  -0.30   0.06
  15   1     0.07  -0.11   0.15     0.01  -0.20   0.16     0.19   0.13  -0.12
  16   1    -0.06   0.18   0.03     0.01  -0.04   0.02    -0.06  -0.28  -0.10
  17   1    -0.09  -0.06  -0.15     0.04   0.18   0.19    -0.17   0.14   0.13
  18  35     0.00   0.00   0.00     0.00   0.00  -0.00    -0.00   0.00   0.00
  19   8     0.01   0.01   0.01     0.16  -0.03   0.15     0.01   0.06  -0.00
  20   6    -0.01   0.00   0.00    -0.20   0.02   0.13    -0.00   0.01   0.00
  21   1    -0.01  -0.00   0.00    -0.20   0.02   0.03     0.00  -0.02  -0.00
  22   1    -0.00   0.00  -0.00     0.01   0.00  -0.05     0.01  -0.00  -0.00
  23   1    -0.00   0.00   0.00     0.00  -0.00  -0.04    -0.02  -0.00   0.01
                     22                     23                     24
                        a                      a                      a 
 Frequencies --   994.5764              1058.7761              1095.4011
 Red. masses --     8.0872                11.3417                 6.2005
 Frc consts  --     0.0000                 0.0000                 0.0000
 IR Inten    --     0.3365                 1.2880                 0.1783
 Raman Activ --     0.0000                 0.0000                 0.0000
 Depolar     --     0.0000                 0.0000                 0.0000
 Atom AN      X      Y      Z        X      Y      Z        X      Y      Z
   1   6     0.04  -0.28   0.15    -0.09  -0.05   0.09    -0.24  -0.06  -0.19
   2   6    -0.24   0.03  -0.23     0.08  -0.00  -0.09     0.04  -0.02   0.16
   3   6     0.06  -0.21   0.11     0.08  -0.02  -0.05     0.26   0.03   0.15
   4   1    -0.04   0.01  -0.14    -0.03  -0.01   0.13    -0.02   0.01   0.05
   5   6     0.08   0.25   0.18    -0.08   0.05   0.10    -0.23   0.13  -0.19
   6   1     0.14  -0.09  -0.02     0.09   0.08   0.10     0.23   0.11   0.18
   7   1    -0.05   0.04  -0.07    -0.07  -0.10  -0.08     0.09   0.03   0.06
   8   6     0.10   0.19   0.14     0.08   0.01  -0.05     0.25  -0.11   0.15
   9   1     0.07  -0.01   0.08    -0.04   0.00  -0.09    -0.03   0.01   0.00
  10   1     0.03   0.01  -0.22    -0.03  -0.00   0.06    -0.01  -0.02   0.07
  11   6    -0.18   0.03  -0.27    -0.01   0.02  -0.25    -0.09   0.03  -0.04
  12   1    -0.06  -0.02  -0.07    -0.05   0.11  -0.07     0.10  -0.07   0.07
  13   1     0.16   0.07  -0.01     0.08  -0.10   0.09     0.20  -0.17   0.17
  14   1    -0.08  -0.12  -0.07    -0.12  -0.04  -0.09    -0.08   0.11  -0.08
  15   1     0.23   0.09  -0.04     0.10   0.03  -0.02    -0.21   0.19  -0.20
  16   1    -0.06   0.14  -0.05    -0.11   0.06  -0.08    -0.09  -0.07  -0.07
  17   1     0.21  -0.12  -0.05     0.09  -0.04  -0.02    -0.23  -0.12  -0.20
  18  35     0.00  -0.00   0.00     0.00  -0.00  -0.00    -0.00   0.00  -0.00
  19   8     0.18  -0.02   0.00    -0.53   0.04   0.34     0.09  -0.01  -0.11
  20   6    -0.18   0.01   0.13     0.51  -0.05  -0.10    -0.06   0.01   0.10
  21   1    -0.16   0.02   0.03     0.01  -0.01  -0.02    -0.11   0.01   0.02
  22   1     0.01   0.01  -0.05     0.10  -0.01  -0.03     0.05  -0.00  -0.06
  23   1     0.01  -0.00  -0.05     0.07  -0.02  -0.03     0.03  -0.00  -0.05
                     25                     26                     27
                        a                      a                      a 
 Frequencies --  1098.3523              1113.3878              1121.1904
 Red. masses --     5.2196                 3.8401                 4.2768
 Frc consts  --     0.0000                 0.0000                 0.0000
 IR Inten    --     0.2304                 0.2117                 0.1951
 Raman Activ --     0.0000                 0.0000                 0.0000
 Depolar     --     0.0000                 0.0000                 0.0000
 Atom AN      X      Y      Z        X      Y      Z        X      Y      Z
   1   6    -0.03  -0.16  -0.08    -0.04  -0.08  -0.12     0.09   0.11   0.18
   2   6     0.03   0.29   0.02     0.01   0.18   0.01    -0.03  -0.24  -0.01
   3   6     0.08   0.18   0.11    -0.02   0.02  -0.06     0.06   0.01   0.15
   4   1    -0.02  -0.26  -0.01    -0.01  -0.16  -0.01     0.02   0.19   0.00
   5   6    -0.02  -0.16   0.04     0.03  -0.10   0.11    -0.05   0.15  -0.17
   6   1    -0.02   0.04   0.02     0.11   0.10   0.13    -0.18  -0.16  -0.20
   7   1     0.13   0.07   0.13    -0.07  -0.08  -0.06     0.15   0.15   0.14
   8   6    -0.02   0.20  -0.08     0.01   0.02   0.07    -0.07   0.04  -0.14
   9   1    -0.01  -0.04  -0.00     0.02   0.21   0.02    -0.03  -0.35  -0.01
  10   1     0.04   0.52   0.04     0.00  -0.00  -0.00     0.01   0.13   0.00
  11   6    -0.03  -0.37  -0.02    -0.00  -0.05  -0.00     0.00  -0.03   0.00
  12   1    -0.11   0.10  -0.12     0.06  -0.11   0.05    -0.13   0.17  -0.12
  13   1     0.05   0.02  -0.00    -0.10   0.15  -0.12     0.15  -0.21   0.17
  14   1     0.14  -0.12   0.17    -0.03  -0.00  -0.01     0.05   0.01   0.03
  15   1     0.02  -0.11   0.10     0.03  -0.03   0.03    -0.03   0.01  -0.00
  16   1    -0.16  -0.08  -0.19     0.03  -0.01   0.02    -0.04   0.01  -0.03
  17   1    -0.05  -0.11  -0.14    -0.04  -0.02  -0.03     0.02   0.00   0.00
  18  35    -0.00   0.00   0.00     0.00   0.00   0.00    -0.00  -0.00  -0.00
  19   8     0.01   0.04  -0.00    -0.02  -0.18  -0.02    -0.01  -0.15  -0.01
  20   6    -0.01  -0.05  -0.00     0.04   0.35   0.02     0.02   0.21   0.01
  21   1     0.00   0.00   0.00    -0.01  -0.18  -0.02    -0.01  -0.11  -0.01
  22   1    -0.07   0.03   0.02     0.45  -0.20  -0.12     0.27  -0.12  -0.07
  23   1     0.07   0.01  -0.02    -0.50  -0.09   0.10    -0.30  -0.05   0.06
                     28                     29                     30
                        a                      a                      a 
 Frequencies --  1138.4846              1148.5501              1163.5292
 Red. masses --     3.5474                 7.4605                 6.4742
 Frc consts  --     0.0000                 0.0000                 0.0000
 IR Inten    --     0.2328                 0.8460                 0.4149
 Raman Activ --     0.0000                 0.0000                 0.0000
 Depolar     --     0.0000                 0.0000                 0.0000
 Atom AN      X      Y      Z        X      Y      Z        X      Y      Z
   1   6    -0.14  -0.06  -0.01    -0.14   0.04   0.17     0.13   0.01  -0.13
   2   6     0.02   0.12  -0.00     0.17  -0.01  -0.13    -0.13   0.01   0.13
   3   6    -0.22  -0.05   0.02     0.13   0.00  -0.17    -0.14  -0.01   0.12
   4   1    -0.02  -0.22  -0.00    -0.02   0.00   0.19     0.04   0.00   0.08
   5   6     0.12  -0.10   0.01    -0.15  -0.02   0.17     0.14  -0.02  -0.12
   6   1     0.08  -0.01   0.02    -0.16   0.02  -0.01    -0.01  -0.09  -0.09
   7   1     0.06   0.14   0.08     0.02  -0.16  -0.01    -0.03   0.11   0.00
   8   6     0.21  -0.09  -0.04     0.11  -0.00  -0.17    -0.13   0.01   0.13
   9   1    -0.01  -0.13  -0.01    -0.06   0.02  -0.14     0.05  -0.00   0.12
  10   1    -0.02  -0.17  -0.01    -0.04   0.01   0.11     0.03   0.02  -0.07
  11   6     0.02   0.25   0.03    -0.11  -0.02   0.34     0.20  -0.00  -0.14
  12   1    -0.03   0.16  -0.06     0.05   0.14   0.01    -0.05  -0.12  -0.00
  13   1    -0.09   0.01  -0.02    -0.15  -0.01  -0.00     0.02   0.09  -0.07
  14   1     0.23  -0.14   0.23    -0.16  -0.07  -0.09     0.09   0.08   0.04
  15   1    -0.27   0.21  -0.23     0.15  -0.06   0.06    -0.06  -0.06   0.06
  16   1    -0.25  -0.07  -0.24    -0.12   0.11  -0.05     0.08  -0.11   0.02
  17   1     0.30   0.14   0.25     0.12   0.01   0.03    -0.07   0.04   0.04
  18  35    -0.00  -0.00  -0.00    -0.00  -0.00  -0.00     0.00  -0.00  -0.00
  19   8    -0.00  -0.04  -0.02     0.09   0.01  -0.34    -0.24   0.05  -0.19
  20   6     0.00   0.01   0.02    -0.01  -0.01   0.23     0.21  -0.05   0.29
  21   1    -0.03  -0.03   0.00    -0.29   0.03   0.05    -0.47   0.06   0.07
  22   1     0.03  -0.01  -0.02     0.15   0.01  -0.17     0.19   0.03  -0.21
  23   1    -0.01  -0.01  -0.01     0.12  -0.03  -0.16     0.18  -0.04  -0.22
                     31                     32                     33
                        a                      a                      a 
 Frequencies --  1175.4495              1244.5345              1250.7888
 Red. masses --     5.5519                 3.7124                 3.9317
 Frc consts  --     0.0000                 0.0000                 0.0000
 IR Inten    --     0.2431                 0.0493                 0.1608
 Raman Activ --     0.0000                 0.0000                 0.0000
 Depolar     --     0.0000                 0.0000                 0.0000
 Atom AN      X      Y      Z        X      Y      Z        X      Y      Z
   1   6    -0.14  -0.08  -0.15    -0.00  -0.01  -0.15    -0.17   0.15   0.14
   2   6     0.02   0.19   0.01    -0.16  -0.01   0.33    -0.00  -0.14  -0.02
   3   6    -0.21  -0.13  -0.10     0.13  -0.04  -0.01    -0.10  -0.14  -0.02
   4   1     0.03   0.31   0.01    -0.03  -0.01   0.01    -0.02  -0.22  -0.01
   5   6     0.11  -0.12   0.14     0.02   0.04  -0.16     0.19   0.13  -0.11
   6   1    -0.22  -0.16  -0.20    -0.03  -0.03  -0.03     0.21   0.04   0.11
   7   1    -0.08  -0.01  -0.06    -0.04  -0.07  -0.06    -0.15  -0.04  -0.14
   8   6     0.19  -0.17   0.08     0.15  -0.00  -0.00     0.07  -0.16   0.00
   9   1     0.01   0.17   0.01     0.03  -0.04   0.17    -0.04  -0.46  -0.04
  10   1     0.02   0.20   0.01     0.02   0.02  -0.02     0.04   0.44   0.03
  11   6     0.03   0.37   0.02    -0.11   0.02  -0.01     0.02   0.21   0.00
  12   1     0.08  -0.03   0.06    -0.02   0.08  -0.05     0.15  -0.09   0.14
  13   1     0.19  -0.22   0.19    -0.05   0.05  -0.04    -0.19   0.09  -0.10
  14   1     0.07  -0.11   0.09    -0.19   0.31  -0.26     0.06   0.07  -0.02
  15   1     0.13  -0.13   0.14     0.16  -0.24   0.24     0.09  -0.06   0.08
  16   1    -0.09  -0.08  -0.10    -0.25  -0.24  -0.29    -0.03   0.10   0.06
  17   1    -0.14  -0.10  -0.16     0.19   0.18   0.26    -0.11  -0.05  -0.10
  18  35     0.00  -0.00  -0.00     0.00  -0.00  -0.00     0.00   0.00   0.00
  19   8     0.00  -0.03   0.01     0.04  -0.01   0.04    -0.00  -0.00   0.00
  20   6    -0.01   0.01  -0.01    -0.04   0.01  -0.03    -0.00  -0.01  -0.00
  21   1     0.02  -0.02  -0.00     0.09  -0.01  -0.01    -0.00   0.01   0.00
  22   1     0.00  -0.01   0.01    -0.01  -0.01   0.01    -0.00  -0.00  -0.00
  23   1    -0.02  -0.00   0.01     0.00   0.01   0.01     0.00   0.00   0.00
                     34                     35                     36
                        a                      a                      a 
 Frequencies --  1267.5607              1308.5567              1332.4661
 Red. masses --     4.7514                 3.8410                 4.0790
 Frc consts  --     0.0000                 0.0000                 0.0000
 IR Inten    --     0.5418                 0.2201                 0.1528
 Raman Activ --     0.0000                 0.0000                 0.0000
 Depolar     --     0.0000                 0.0000                 0.0000
 Atom AN      X      Y      Z        X      Y      Z        X      Y      Z
   1   6     0.22  -0.01  -0.00     0.06   0.02  -0.12     0.19   0.07   0.16
   2   6    -0.15   0.01   0.00    -0.00  -0.07  -0.00     0.03   0.29   0.02
   3   6    -0.14  -0.02  -0.12     0.10  -0.12  -0.08    -0.04  -0.12  -0.04
   4   1    -0.00  -0.02   0.07    -0.06  -0.63  -0.02    -0.01  -0.06   0.01
   5   6     0.22  -0.03   0.00    -0.06   0.02   0.12    -0.19   0.15  -0.18
   6   1     0.25   0.18   0.23    -0.12  -0.07  -0.08     0.13   0.03   0.08
   7   1    -0.27  -0.16  -0.23     0.24   0.07   0.17     0.10   0.05   0.08
   8   6    -0.14   0.05  -0.12    -0.12  -0.11   0.07     0.01  -0.11   0.03
   9   1     0.04  -0.01   0.08     0.01   0.13   0.01    -0.01  -0.17  -0.01
  10   1     0.02   0.01  -0.09     0.01   0.07   0.01    -0.04  -0.46  -0.02
  11   6    -0.02  -0.01   0.36     0.03   0.39   0.01     0.01   0.07   0.01
  12   1    -0.24   0.22  -0.21    -0.21   0.11  -0.15    -0.09   0.07  -0.07
  13   1     0.21  -0.24   0.21     0.10  -0.09   0.07    -0.10   0.04  -0.05
  14   1     0.03   0.08  -0.03    -0.16   0.06  -0.13     0.10  -0.16   0.13
  15   1    -0.06   0.06  -0.06     0.07  -0.00   0.02     0.19  -0.25   0.27
  16   1     0.02  -0.07  -0.04     0.17   0.02   0.14    -0.09  -0.11  -0.11
  17   1    -0.07  -0.04  -0.06    -0.06   0.01  -0.02    -0.20  -0.17  -0.26
  18  35     0.00  -0.00  -0.00    -0.00  -0.00   0.00     0.00   0.00  -0.00
  19   8     0.03   0.00  -0.09     0.00  -0.03   0.00     0.00  -0.00  -0.00
  20   6    -0.02   0.00   0.02    -0.01  -0.01  -0.00     0.00   0.00  -0.00
  21   1     0.02  -0.00   0.00     0.01   0.03   0.00    -0.00  -0.02  -0.00
  22   1     0.03  -0.00  -0.03    -0.01   0.00  -0.00    -0.01  -0.00   0.01
  23   1     0.03   0.00  -0.03     0.01   0.00   0.01     0.00  -0.00  -0.01
                     37                     38                     39
                        a                      a                      a 
 Frequencies --  1345.3759              1354.5792              1356.6672
 Red. masses --     4.4021                 5.1218                 4.3528
 Frc consts  --     0.0000                 0.0000                 0.0000
 IR Inten    --     0.2295                 0.0333                 0.1621
 Raman Activ --     0.0000                 0.0000                 0.0000
 Depolar     --     0.0000                 0.0000                 0.0000
 Atom AN      X      Y      Z        X      Y      Z        X      Y      Z
   1   6    -0.17  -0.16  -0.19    -0.17  -0.19  -0.13    -0.05   0.07  -0.12
   2   6     0.10  -0.05   0.08     0.04   0.43   0.03     0.00  -0.20  -0.00
   3   6    -0.12  -0.12  -0.05    -0.07   0.02  -0.09    -0.22  -0.12  -0.18
   4   1    -0.01  -0.04   0.35     0.01   0.13   0.05     0.03   0.33  -0.03
   5   6    -0.13   0.21  -0.18     0.13  -0.21   0.10     0.01   0.10   0.06
   6   1     0.19   0.07   0.13    -0.03   0.02  -0.01     0.16   0.14   0.18
   7   1     0.04   0.05   0.04     0.11   0.04   0.10     0.24   0.18   0.21
   8   6    -0.14   0.19  -0.08     0.04   0.03   0.08     0.22  -0.18   0.19
   9   1     0.01   0.04   0.01    -0.04  -0.53  -0.03     0.01   0.17   0.01
  10   1    -0.02   0.02   0.11    -0.01  -0.15  -0.00     0.02   0.21   0.03
  11   6     0.04   0.00  -0.02     0.00  -0.06  -0.01    -0.02  -0.13   0.02
  12   1     0.09  -0.12   0.08    -0.08   0.03  -0.07    -0.25   0.29  -0.22
  13   1     0.20  -0.14   0.15     0.06  -0.01   0.03    -0.12   0.18  -0.16
  14   1     0.16  -0.17   0.18    -0.16   0.23  -0.20    -0.01  -0.01  -0.00
  15   1     0.19  -0.17   0.18    -0.03  -0.02   0.00     0.10   0.00   0.02
  16   1     0.16   0.10   0.17     0.20   0.18   0.23     0.08   0.03   0.07
  17   1     0.25   0.14   0.24     0.05  -0.01   0.02    -0.05   0.05   0.03
  18  35     0.00   0.00  -0.00    -0.00   0.00  -0.00    -0.00  -0.00  -0.00
  19   8     0.08  -0.01  -0.02     0.01   0.00  -0.00    -0.01   0.01  -0.01
  20   6    -0.04   0.01  -0.02    -0.01  -0.01  -0.00     0.01  -0.00  -0.00
  21   1     0.02  -0.00  -0.00     0.01   0.04   0.00    -0.02   0.01   0.00
  22   1     0.01  -0.02   0.01     0.02  -0.00  -0.02    -0.01   0.01   0.00
  23   1     0.01   0.01   0.01     0.01   0.01   0.02    -0.01  -0.00   0.01
                     40                     41                     42
                        a                      a                      a 
 Frequencies --  1361.2588              1373.9696              1388.5404
 Red. masses --     4.1708                 3.5594                 2.5171
 Frc consts  --     0.0000                 0.0000                 0.0000
 IR Inten    --     0.2628                 0.2757                 0.0842
 Raman Activ --     0.0000                 0.0000                 0.0000
 Depolar     --     0.0000                 0.0000                 0.0000
 Atom AN      X      Y      Z        X      Y      Z        X      Y      Z
   1   6     0.15   0.07   0.18     0.00   0.04  -0.05    -0.03  -0.02  -0.04
   2   6    -0.10  -0.03  -0.05     0.03  -0.00  -0.01     0.03  -0.00  -0.00
   3   6    -0.20  -0.07  -0.16     0.11   0.08   0.18     0.03   0.03   0.05
   4   1    -0.01   0.02   0.52    -0.07  -0.02   0.64     0.01   0.01  -0.16
   5   6     0.12  -0.07   0.18    -0.00  -0.03  -0.06    -0.02   0.03  -0.04
   6   1     0.04   0.07   0.07    -0.14  -0.09  -0.12    -0.00  -0.03  -0.04
   7   1     0.24   0.17   0.21    -0.26  -0.10  -0.21    -0.05  -0.05  -0.03
   8   6    -0.13   0.06  -0.10     0.10  -0.12   0.16     0.02  -0.04   0.04
   9   1     0.02   0.04   0.04    -0.02   0.00  -0.03     0.00   0.00  -0.01
  10   1     0.01   0.03  -0.06     0.01  -0.00  -0.01    -0.00  -0.00   0.02
  11   6     0.08  -0.01  -0.18    -0.14   0.03  -0.23    -0.00   0.00  -0.01
  12   1     0.15  -0.16   0.14    -0.23   0.16  -0.19    -0.03   0.07  -0.02
  13   1    -0.02  -0.03   0.01    -0.12   0.12  -0.10     0.01   0.04  -0.04
  14   1    -0.14   0.12  -0.15     0.08  -0.06   0.07     0.05  -0.07   0.06
  15   1    -0.04   0.08  -0.07    -0.07   0.02  -0.04    -0.02  -0.02   0.03
  16   1    -0.17  -0.10  -0.18     0.08   0.03   0.08     0.06   0.05   0.06
  17   1    -0.08  -0.06  -0.09    -0.07  -0.01  -0.04    -0.01   0.02   0.02
  18  35    -0.00  -0.00  -0.00     0.00  -0.00  -0.00     0.00  -0.00   0.00
  19   8     0.08  -0.01   0.03     0.17  -0.02   0.02    -0.14   0.01   0.05
  20   6    -0.13   0.02   0.00    -0.06   0.01  -0.05    -0.27   0.02   0.12
  21   1     0.19  -0.03  -0.00     0.04  -0.00  -0.01     0.53  -0.06   0.01
  22   1     0.09  -0.06  -0.05    -0.01  -0.02   0.04     0.40  -0.15  -0.29
  23   1     0.11   0.04  -0.04    -0.01   0.02   0.04     0.43   0.09  -0.26
                     43                     44                     45
                        a                      a                      a 
 Frequencies --  1465.3800              1468.6563              1476.1955
 Red. masses --     1.6583                 1.6694                 1.8624
 Frc consts  --     0.0000                 0.0000                 0.0000
 IR Inten    --     0.0626                 0.1306                 0.0120
 Raman Activ --     0.0000                 0.0000                 0.0000
 Depolar     --     0.0000                 0.0000                 0.0000
 Atom AN      X      Y      Z        X      Y      Z        X      Y      Z
   1   6    -0.01   0.02   0.00     0.08  -0.10  -0.03     0.07  -0.05  -0.01
   2   6     0.00  -0.01  -0.00     0.01   0.00  -0.01    -0.01  -0.03  -0.03
   3   6     0.01  -0.01   0.00     0.04  -0.05  -0.00    -0.13   0.15   0.01
   4   1     0.00   0.01   0.00    -0.00  -0.01   0.01    -0.00   0.01   0.01
   5   6     0.08   0.07  -0.01     0.02   0.02  -0.01    -0.08  -0.03   0.01
   6   1    -0.03   0.03   0.03    -0.10   0.06   0.08     0.35  -0.20  -0.26
   7   1    -0.01   0.05  -0.02    -0.02   0.13  -0.06     0.10  -0.42   0.21
   8   6     0.03   0.04  -0.00     0.04   0.03   0.00     0.12   0.09   0.01
   9   1     0.01   0.02   0.01     0.02  -0.02   0.02     0.04   0.02   0.05
  10   1    -0.00   0.01   0.01    -0.02  -0.01   0.03    -0.03   0.01   0.05
  11   6    -0.00  -0.01  -0.01     0.00   0.01  -0.02    -0.00   0.02   0.00
  12   1    -0.03  -0.08  -0.05    -0.05  -0.12  -0.07    -0.13  -0.27  -0.19
  13   1    -0.08  -0.03   0.05    -0.11  -0.05   0.07    -0.29  -0.12   0.18
  14   1    -0.08  -0.21  -0.09    -0.03  -0.06  -0.04     0.08   0.16   0.09
  15   1    -0.22  -0.05   0.13    -0.07  -0.02   0.05     0.18   0.05  -0.10
  16   1    -0.00  -0.06   0.00    -0.05   0.29  -0.08    -0.06   0.18  -0.08
  17   1     0.05  -0.02  -0.03    -0.26   0.10   0.17    -0.18   0.07   0.11
  18  35    -0.00  -0.00   0.00    -0.00   0.00   0.00     0.00   0.00   0.00
  19   8     0.01  -0.03   0.01     0.02   0.00   0.03     0.00  -0.00  -0.00
  20   6     0.00  -0.20   0.05     0.07   0.06   0.15    -0.01  -0.03  -0.01
  21   1     0.18   0.59   0.06     0.19  -0.28  -0.01     0.00   0.10   0.01
  22   1     0.03   0.24  -0.48    -0.27   0.29  -0.14     0.03   0.01  -0.05
  23   1    -0.25  -0.03   0.23    -0.24  -0.24  -0.48    -0.00   0.02   0.08
                     46                     47                     48
                        a                      a                      a 
 Frequencies --  1479.2719              1489.2311              1490.7916
 Red. masses --     1.9248                 1.9621                 1.8232
 Frc consts  --     0.0000                 0.0000                 0.0000
 IR Inten    --     0.0852                 0.0243                 0.0411
 Raman Activ --     0.0000                 0.0000                 0.0000
 Depolar     --     0.0000                 0.0000                 0.0000
 Atom AN      X      Y      Z        X      Y      Z        X      Y      Z
   1   6     0.02  -0.02  -0.00     0.12  -0.12  -0.01     0.03  -0.02  -0.02
   2   6    -0.03   0.02  -0.21     0.00   0.01  -0.00    -0.02   0.01  -0.16
   3   6    -0.05   0.09   0.01     0.06  -0.08   0.01     0.08  -0.09   0.00
   4   1    -0.01  -0.00   0.04    -0.00  -0.02  -0.00     0.01   0.00  -0.05
   5   6     0.04   0.03  -0.01    -0.14  -0.10  -0.01     0.04   0.02  -0.02
   6   1     0.16  -0.10  -0.14    -0.17   0.08   0.12    -0.21   0.12   0.16
   7   1     0.04  -0.22   0.09    -0.06   0.19  -0.11    -0.06   0.26  -0.13
   8   6    -0.10  -0.12   0.00    -0.07  -0.07  -0.01     0.10   0.08   0.01
   9   1     0.34  -0.05   0.36     0.00  -0.01   0.00     0.27  -0.04   0.28
  10   1    -0.24  -0.01   0.42    -0.01  -0.03   0.00    -0.19  -0.00   0.33
  11   6    -0.02  -0.00  -0.01     0.00   0.01   0.00     0.01  -0.00   0.01
  12   1     0.12   0.29   0.18     0.09   0.16   0.13    -0.11  -0.25  -0.17
  13   1     0.28   0.13  -0.19     0.18   0.07  -0.11    -0.26  -0.11   0.16
  14   1    -0.06  -0.09  -0.07     0.17   0.29   0.19    -0.05  -0.11  -0.06
  15   1    -0.12  -0.02   0.05     0.33   0.07  -0.18    -0.12  -0.03   0.06
  16   1    -0.02   0.04  -0.03    -0.12   0.33  -0.15    -0.03   0.10  -0.04
  17   1    -0.06   0.01   0.02    -0.31   0.10   0.19    -0.10   0.04   0.05
  18  35     0.00  -0.00  -0.00     0.00  -0.00  -0.00    -0.00   0.00   0.00
  19   8     0.02  -0.00   0.00    -0.00  -0.01  -0.00    -0.02   0.00  -0.01
  20   6     0.02  -0.00   0.01    -0.02  -0.08  -0.02    -0.04   0.02  -0.08
  21   1     0.01  -0.00   0.00     0.01   0.26   0.02    -0.12   0.00  -0.01
  22   1    -0.06   0.06  -0.03     0.08   0.00  -0.13     0.13  -0.20   0.17
  23   1    -0.08  -0.04  -0.04    -0.02   0.05   0.20     0.19   0.13   0.18
                     49                     50                     51
                        a                      a                      a 
 Frequencies --  1502.4127              2885.9798              2935.3412
 Red. masses --     1.9635                 1.7405                 1.9382
 Frc consts  --     0.0000                 0.0000                 0.0000
 IR Inten    --     0.0268                 0.3600                 0.3529
 Raman Activ --     0.0000                 0.0000                 0.0000
 Depolar     --     0.0000                 0.0000                 0.0000
 Atom AN      X      Y      Z        X      Y      Z        X      Y      Z
   1   6     0.10  -0.13  -0.03     0.00   0.00  -0.00    -0.01  -0.01   0.02
   2   6     0.03  -0.01   0.12     0.00  -0.00  -0.00    -0.00  -0.00  -0.00
   3   6    -0.03   0.04  -0.00     0.00  -0.00  -0.01     0.00   0.00  -0.00
   4   1     0.00   0.00  -0.00     0.96  -0.09   0.05    -0.00  -0.00   0.00
   5   6     0.13   0.12  -0.01     0.00  -0.00  -0.00     0.01  -0.01  -0.01
   6   1     0.09  -0.04  -0.06     0.00   0.00  -0.01    -0.00  -0.01   0.01
   7   1     0.03  -0.10   0.06    -0.04   0.01   0.05    -0.00   0.00   0.00
   8   6    -0.04  -0.04  -0.01     0.00   0.01  -0.01     0.00   0.00   0.00
   9   1    -0.17   0.03  -0.18    -0.00   0.00   0.00    -0.00  -0.00   0.00
  10   1     0.13   0.00  -0.21    -0.00   0.00  -0.00     0.00  -0.00   0.00
  11   6     0.00  -0.00   0.01    -0.25   0.02  -0.02     0.00   0.00   0.00
  12   1     0.05   0.08   0.06    -0.04  -0.01   0.05    -0.00   0.00   0.00
  13   1     0.10   0.03  -0.05     0.00  -0.00  -0.01    -0.00  -0.01  -0.01
  14   1    -0.16  -0.33  -0.18     0.00  -0.00   0.00    -0.03   0.00   0.02
  15   1    -0.33  -0.09   0.20    -0.00   0.01   0.00     0.01   0.02   0.02
  16   1    -0.10   0.35  -0.13     0.00  -0.00   0.00     0.03  -0.00  -0.03
  17   1    -0.30   0.12   0.21    -0.00  -0.01   0.00    -0.00   0.03  -0.02
  18  35    -0.00   0.00  -0.00    -0.00   0.00   0.00    -0.00   0.00  -0.00
  19   8    -0.00   0.00  -0.01    -0.01   0.00   0.01     0.00  -0.01  -0.00
  20   6    -0.02   0.01  -0.07     0.01  -0.00   0.00    -0.02  -0.29  -0.00
  21   1    -0.12   0.00  -0.00    -0.00   0.00  -0.00    -0.00  -0.05  -0.02
  22   1     0.08  -0.15   0.16    -0.01  -0.01  -0.01     0.33   0.38   0.25
  23   1     0.12   0.09   0.16    -0.00   0.01  -0.00    -0.27   0.68  -0.23
                     52                     53                     54
                        a                      a                      a 
 Frequencies --  2948.5769              2957.2974              2958.7369
 Red. masses --     1.5011                 1.9326                 1.8562
 Frc consts  --     0.0000                 0.0000                 0.0000
 IR Inten    --     0.2930                 0.2706                 0.1549
 Raman Activ --     0.0000                 0.0000                 0.0000
 Depolar     --     0.0000                 0.0000                 0.0000
 Atom AN      X      Y      Z        X      Y      Z        X      Y      Z
   1   6     0.01   0.02  -0.02     0.03   0.07  -0.07     0.05   0.11  -0.11
   2   6    -0.01   0.00   0.01     0.03   0.00  -0.01    -0.11   0.01   0.06
   3   6    -0.00   0.00   0.00     0.09   0.04  -0.13    -0.03  -0.01   0.04
   4   1     0.02  -0.00  -0.00    -0.00   0.00  -0.00     0.02  -0.00   0.00
   5   6     0.01  -0.03  -0.04    -0.03   0.10   0.12     0.02  -0.08  -0.10
   6   1    -0.00  -0.00   0.00     0.00  -0.23   0.16    -0.00   0.06  -0.04
   7   1     0.02  -0.00  -0.02    -0.31   0.08   0.31     0.13  -0.03  -0.13
   8   6    -0.00  -0.00  -0.00    -0.07   0.04   0.12    -0.06   0.03   0.10
   9   1     0.03  -0.00  -0.03    -0.08  -0.00   0.07     0.33  -0.01  -0.31
  10   1    -0.01   0.00  -0.00    -0.03   0.00  -0.02     0.08  -0.01   0.06
  11   6    -0.00   0.00  -0.00     0.00   0.00  -0.00    -0.01   0.00   0.01
  12   1     0.01   0.00  -0.01     0.28   0.05  -0.27     0.25   0.05  -0.24
  13   1     0.00   0.01   0.01    -0.04  -0.20  -0.18    -0.03  -0.16  -0.14
  14   1    -0.07   0.00   0.06     0.20   0.01  -0.17    -0.16  -0.01   0.13
  15   1     0.02   0.09   0.07    -0.07  -0.35  -0.27     0.06   0.30   0.23
  16   1    -0.04   0.00   0.03    -0.13   0.01   0.11    -0.19   0.02   0.16
  17   1     0.00  -0.07   0.04     0.01  -0.27   0.16     0.01  -0.41   0.24
  18  35    -0.00   0.00   0.00     0.00   0.00  -0.00    -0.00   0.00   0.00
  19   8    -0.02   0.00   0.00    -0.00  -0.00   0.00     0.00  -0.00  -0.00
  20   6    -0.14  -0.01  -0.14    -0.01  -0.01  -0.01     0.02  -0.00   0.02
  21   1    -0.02  -0.01   0.06    -0.00  -0.00   0.00     0.00   0.00  -0.00
  22   1     0.42   0.57   0.30     0.04   0.05   0.03    -0.06  -0.09  -0.05
  23   1     0.17  -0.53   0.13     0.00  -0.01  -0.00    -0.03   0.09  -0.02
                     55                     56                     57
                        a                      a                      a 
 Frequencies --  2960.6429              2961.9305              2964.7538
 Red. masses --     1.9826                 1.8842                 1.8072
 Frc consts  --     0.0000                 0.0000                 0.0000
 IR Inten    --     0.1975                 0.0725                 0.3610
 Raman Activ --     0.0000                 0.0000                 0.0000
 Depolar     --     0.0000                 0.0000                 0.0000
 Atom AN      X      Y      Z        X      Y      Z        X      Y      Z
   1   6    -0.00  -0.01   0.02    -0.02  -0.12   0.09     0.00  -0.08   0.04
   2   6     0.20  -0.02  -0.05    -0.04  -0.00   0.00    -0.15   0.01  -0.01
   3   6    -0.06  -0.05   0.11     0.05   0.08  -0.12    -0.03  -0.08   0.10
   4   1     0.04  -0.00   0.00    -0.01   0.00  -0.00     0.02  -0.00   0.00
   5   6     0.00  -0.03  -0.02     0.00  -0.08  -0.09     0.02   0.09   0.07
   6   1     0.00   0.24  -0.17    -0.01  -0.35   0.26     0.01   0.32  -0.24
   7   1     0.22  -0.06  -0.22    -0.18   0.05   0.17     0.11  -0.04  -0.10
   8   6    -0.05   0.06   0.13    -0.02   0.07   0.10    -0.01   0.06   0.08
   9   1    -0.40   0.01   0.38     0.05  -0.00  -0.05     0.17  -0.00  -0.17
  10   1    -0.33   0.04  -0.20     0.08  -0.01   0.04     0.39  -0.05   0.22
  11   6    -0.01   0.00   0.01     0.00   0.01  -0.00    -0.01  -0.00   0.00
  12   1     0.23   0.05  -0.22     0.11   0.03  -0.10     0.09   0.02  -0.07
  13   1    -0.04  -0.28  -0.26    -0.04  -0.28  -0.27    -0.03  -0.24  -0.23
  14   1    -0.01  -0.00   0.01    -0.06  -0.01   0.05    -0.03   0.02   0.04
  15   1     0.02   0.09   0.07     0.06   0.32   0.26    -0.06  -0.35  -0.28
  16   1     0.03  -0.00  -0.02     0.06  -0.02  -0.05    -0.04  -0.01   0.04
  17   1    -0.00   0.05  -0.03    -0.00   0.46  -0.28     0.00   0.31  -0.19
  18  35    -0.00   0.00   0.00     0.00   0.00  -0.00    -0.00   0.00   0.00
  19   8    -0.00   0.00  -0.00    -0.00  -0.00  -0.00    -0.00   0.00   0.00
  20   6    -0.00   0.00  -0.00     0.00   0.02   0.00    -0.01  -0.00  -0.01
  21   1     0.00   0.00  -0.00     0.00   0.00   0.00    -0.00  -0.00   0.00
  22   1     0.00  -0.00  -0.00    -0.02  -0.02  -0.01     0.03   0.04   0.02
  23   1     0.00  -0.01   0.00     0.02  -0.04   0.01     0.01  -0.04   0.01
                     58                     59                     60
                        a                      a                      a 
 Frequencies --  2976.1865              2976.9801              2981.1876
 Red. masses --     1.4992                 1.5303                 1.5785
 Frc consts  --     0.0000                 0.0000                 0.0000
 IR Inten    --     0.3484                 0.3738                 0.4208
 Raman Activ --     0.0000                 0.0000                 0.0000
 Depolar     --     0.0000                 0.0000                 0.0000
 Atom AN      X      Y      Z        X      Y      Z        X      Y      Z
   1   6    -0.00   0.01   0.00    -0.02  -0.04   0.04     0.01   0.06  -0.05
   2   6     0.05  -0.01   0.13     0.02  -0.00   0.04    -0.02   0.01  -0.13
   3   6     0.03  -0.05  -0.00     0.10  -0.13  -0.02     0.07  -0.07  -0.03
   4   1    -0.05   0.00  -0.00    -0.01  -0.00  -0.00    -0.06   0.01  -0.00
   5   6    -0.01   0.01   0.03     0.01  -0.03  -0.03     0.02  -0.05  -0.06
   6   1     0.01   0.16  -0.12     0.04   0.41  -0.33     0.02   0.21  -0.17
   7   1    -0.13   0.03   0.14    -0.38   0.07   0.40    -0.26   0.05   0.27
   8   6     0.10   0.10  -0.01    -0.08  -0.08   0.01     0.07   0.06  -0.02
   9   1     0.30  -0.01  -0.24     0.09  -0.00  -0.08    -0.32   0.01   0.27
  10   1    -0.47   0.05  -0.23    -0.15   0.02  -0.07     0.41  -0.05   0.20
  11   6     0.01   0.00   0.00     0.00  -0.01  -0.00     0.02  -0.00   0.00
  12   1    -0.34  -0.04   0.34     0.26   0.03  -0.26    -0.25  -0.03   0.25
  13   1    -0.03  -0.32  -0.32     0.02   0.24   0.24    -0.01  -0.18  -0.19
  14   1     0.06  -0.00  -0.05    -0.04  -0.00   0.04    -0.09  -0.00   0.08
  15   1    -0.01  -0.04  -0.03     0.02   0.11   0.09     0.03   0.18   0.14
  16   1     0.03   0.00  -0.02     0.05  -0.01  -0.05    -0.04   0.01   0.03
  17   1    -0.00  -0.04   0.02    -0.00   0.15  -0.09     0.00  -0.22   0.13
  18  35     0.00  -0.00  -0.00     0.00   0.00  -0.00     0.00  -0.00  -0.00
  19   8     0.00   0.00  -0.00     0.00  -0.00  -0.00     0.00  -0.00  -0.00
  20   6    -0.00  -0.00   0.00     0.00   0.00   0.00     0.00   0.00   0.00
  21   1    -0.00   0.00  -0.01     0.00   0.00  -0.00     0.00   0.00  -0.00
  22   1     0.00   0.01   0.00    -0.00  -0.00  -0.00    -0.01  -0.02  -0.01
  23   1     0.00  -0.01   0.00     0.00  -0.00   0.00    -0.00   0.01  -0.00
                     61                     62                     63
                        a                      a                      a 
 Frequencies --  2986.4929              2990.9965              3005.8529
 Red. masses --     1.5937                 1.6488                 1.6495
 Frc consts  --     0.0000                 0.0000                 0.0000
 IR Inten    --     0.2692                 0.5213                 0.2005
 Raman Activ --     0.0000                 0.0000                 0.0000
 Depolar     --     0.0000                 0.0000                 0.0000
 Atom AN      X      Y      Z        X      Y      Z        X      Y      Z
   1   6     0.09  -0.03  -0.06     0.16  -0.05  -0.11    -0.01   0.00   0.01
   2   6    -0.03  -0.00  -0.01     0.07  -0.01  -0.00    -0.00   0.00   0.00
   3   6    -0.02  -0.02   0.04     0.01   0.01  -0.02    -0.00  -0.00   0.00
   4   1     0.00  -0.00   0.00    -0.01   0.00  -0.00     0.00  -0.00   0.00
   5   6    -0.16  -0.05   0.09     0.09   0.02  -0.05    -0.01  -0.00   0.01
   6   1     0.00   0.10  -0.08    -0.00  -0.05   0.03     0.00   0.01  -0.01
   7   1     0.05  -0.02  -0.06    -0.05   0.01   0.05     0.00  -0.00  -0.00
   8   6     0.01  -0.01  -0.02     0.02  -0.01  -0.04    -0.00   0.00   0.00
   9   1     0.01  -0.00  -0.01    -0.08   0.00   0.07     0.01  -0.00  -0.01
  10   1     0.08  -0.01   0.04    -0.16   0.02  -0.09     0.00  -0.00   0.00
  11   6    -0.00   0.00   0.00     0.00  -0.00  -0.00    -0.00   0.00   0.00
  12   1    -0.03  -0.01   0.03    -0.08  -0.02   0.07     0.00   0.00  -0.00
  13   1     0.01   0.03   0.03     0.01   0.07   0.06    -0.00  -0.01  -0.01
  14   1     0.57  -0.03  -0.53    -0.30   0.02   0.28     0.02  -0.00  -0.02
  15   1     0.02   0.22   0.20    -0.00  -0.09  -0.08    -0.00   0.00   0.00
  16   1    -0.32  -0.00   0.30    -0.58   0.00   0.54     0.03  -0.00  -0.03
  17   1     0.01   0.12  -0.09     0.02   0.19  -0.14    -0.00  -0.01   0.01
  18  35    -0.00  -0.00   0.00     0.00  -0.00  -0.00     0.00   0.00  -0.00
  19   8    -0.00  -0.00  -0.00     0.00  -0.00   0.00     0.01  -0.00  -0.01
  20   6    -0.00  -0.01  -0.00     0.01  -0.00  -0.01     0.01   0.02  -0.24
  21   1    -0.00  -0.00  -0.01     0.00  -0.01   0.05    -0.00  -0.08   0.96
  22   1     0.03   0.03   0.02    -0.02  -0.02  -0.01    -0.03  -0.03  -0.06
  23   1    -0.01   0.01  -0.01    -0.02   0.04  -0.01    -0.02   0.05  -0.05
