
                                 *****************
                                 * O   R   C   A *
                                 *****************

           --- An Ab Initio, DFT and Semiempirical electronic structure package ---

                  #######################################################
                  #                        -***-                        #
                  #          Department of theory and spectroscopy      #
                  #               Directorship: Frank Neese             #
                  #        Max Planck Institute fuer Kohlenforschung    #
                  #                Kaiser Wilhelm Platz 1               #
                  #                 D-45470 Muelheim/Ruhr               #
                  #                      Germany                        #
                  #                                                     #
                  #                  All rights reserved                #
                  #                        -***-                        #
                  #######################################################


                         Program Version 4.2.1 -  RELEASE  -


 With contributions from (in alphabetic order):
   Daniel Aravena         : Magnetic Suceptibility
   Michael Atanasov       : Ab Initio Ligand Field Theory (pilot matlab implementation)
   Alexander A. Auer      : GIAO ZORA, VPT2
   Ute Becker             : Parallelization
   Giovanni Bistoni       : ED, misc. LED, open-shell LED, HFLD
   Martin Brehm           : Molecular dynamics
   Dmytro Bykov           : SCF Hessian
   Vijay G. Chilkuri      : MRCI spin determinant printing, contributions to CSF-ICE
   Dipayan Datta          : RHF DLPNO-CCSD density
   Achintya Kumar Dutta   : EOM-CC, STEOM-CC
   Dmitry Ganyushin       : Spin-Orbit,Spin-Spin,Magnetic field MRCI
   Miquel Garcia          : C-PCM Hessian, Gaussian charge scheme
   Yang Guo               : DLPNO-NEVPT2, CIM, IAO-localization
   Andreas Hansen         : Spin unrestricted coupled pair/coupled cluster methods
   Benjamin Helmich-Paris : CASSCF linear response (MC-RPA)
   Lee Huntington         : MR-EOM, pCC
   Robert Izsak           : Overlap fitted RIJCOSX, COSX-SCS-MP3, EOM
   Christian Kollmar      : KDIIS, OOCD, Brueckner-CCSD(T), CCSD density
   Simone Kossmann        : Meta GGA functionals, TD-DFT gradient, OOMP2, MP2 Hessian
   Martin Krupicka        : AUTO-CI
   Lucas Lang             : DCDCAS
   Dagmar Lenk            : GEPOL surface, SMD
   Dimitrios Liakos       : Extrapolation schemes; Compound Job, initial MDCI parallelization
   Dimitrios Manganas     : Further ROCIS development; embedding schemes
   Dimitrios Pantazis     : SARC Basis sets
   Taras Petrenko         : DFT Hessian,TD-DFT gradient, ASA, ECA, R-Raman, ABS, FL, XAS/XES, NRVS
   Peter Pinski           : DLPNO-MP2, DLPNO-MP2 Gradient
   Christoph Reimann      : Effective Core Potentials
   Marius Retegan         : Local ZFS, SOC
   Christoph Riplinger    : Optimizer, TS searches, QM/MM, DLPNO-CCSD(T), (RO)-DLPNO pert. Triples
   Tobias Risthaus        : Range-separated hybrids, TD-DFT gradient, RPA, STAB
   Michael Roemelt        : Original ROCIS implementation
   Masaaki Saitow         : Open-shell DLPNO-CCSD energy and density
   Barbara Sandhoefer     : DKH picture change effects
   Avijit Sen             : IP-ROCIS
   Kantharuban Sivalingam : CASSCF convergence, NEVPT2, FIC-MRCI
   Bernardo de Souza      : ESD, SOC TD-DFT
   Georgi Stoychev        : AutoAux, RI-MP2 NMR
   Willem Van den Heuvel  : Paramagnetic NMR
   Boris Wezisla          : Elementary symmetry handling
   Frank Wennmohs         : Technical directorship


 We gratefully acknowledge several colleagues who have allowed us to
 interface, adapt or use parts of their codes:
   Stefan Grimme, W. Hujo, H. Kruse,             : VdW corrections, initial TS optimization,
                  C. Bannwarth                     DFT functionals, gCP, sTDA/sTD-DF
   Ed Valeev, F. Pavosevic, A. Kumar             : LibInt (2-el integral package), F12 methods
   Garnet Chan, S. Sharma, J. Yang, R. Olivares  : DMRG
   Ulf Ekstrom                                   : XCFun DFT Library
   Mihaly Kallay                                 : mrcc  (arbitrary order and MRCC methods)
   Andreas Klamt, Michael Diedenhofen            : otool_cosmo (COSMO solvation model)
   Jiri Pittner, Ondrej Demel                    : Mk-CCSD
   Frank Weinhold                                : gennbo (NPA and NBO analysis)
   Christopher J. Cramer and Donald G. Truhlar   : smd solvation model
   Lars Goerigk                                  : TD-DFT with DH, B97 family of functionals
   V. Asgeirsson, H. Jonsson                     : NEB implementation
   FAccTs GmbH                                   : IRC, NEB, NEB-TS, Multilevel, MM, QM/MM, CI optimization
   S Lehtola, MJT Oliveira, MAL Marques          : LibXC Library


 Your calculation uses the libint2 library for the computation of 2-el integrals
 For citations please refer to: http://libint.valeyev.net

 Your ORCA version has been built with support for libXC version: 4.2.3
 For citations please refer to: https://tddft.org/programs/libxc/

 This ORCA versions uses:
   CBLAS   interface :  Fast vector & matrix operations
   LAPACKE interface :  Fast linear algebra routines
   SCALAPACK package :  Parallel linear algebra routines




***************************************
The coordinates will be read from file: init.xyz
***************************************


Your calculation utilizes the SMD solvation module
Please cite in your paper:
A.V. Marenich, C.J. Cramer, D.G. Truhlar J. Phys. Chem. B, 113, (2009), 6378 

Your calculation utilizes the semiempirical GFN2-xTB method
Please cite in your paper:
C. Bannwarth, Ehlert S., S. Grimme,  J. Chem. Theory Comput., 15, (2019), 1652.
   

Your calculation utilizes a Nudged-Elastic-Band implementation
 by V.Asgeirsson, C. Riplinger & H. Jonsson
Please cite in your paper:
 V. Asgeirsson et al., in prep. (2019)
   

----- Orbital basis set information -----
Your calculation utilizes the basis: def2-SVP
   F. Weigend and R. Ahlrichs, Phys. Chem. Chem. Phys. 7, 3297 (2005).

================================================================================
                                        WARNINGS
                       Please study these warnings very carefully!
================================================================================


WARNING: The environment variable RSH_COMMAND is not set!
  ===> : All Displacements for the Numerical Hessian calculation
         will be started on localhost

WARNING: Geometry Optimization
  ===> : Switching off AutoStart
         For restart on a previous wavefunction, please use MOREAD

WARNING: Found dipole moment calculation with XTB calculation
  ===> : Switching off dipole moment calculation


INFO   : the flag for use of LIBINT has been found!

================================================================================
                                       INPUT FILE
================================================================================
NAME = optts+numfreq.inp
|  1> ! xTB2 NEB-TS NumFreq IRC
|  2> 
|  3> *xyzfile -1 1 init.xyz
|  4> 
|  5> %cpcm
|  6>  smd true
|  7>  SMDsolvent "METHANOL"
|  8> end
|  9> 
| 10> %neb
| 11>  neb_ts_xyzfile "guess.xyz"
| 12>  neb_end_xyzfile "final.xyz"
| 13> 
| 14>  interpolation XTB2TS
| 15>  # interpolation XTB2
| 16>  preopt_ends true
| 17>  free_end true
| 18>  reparam 35
| 19>  nimages 30
| 20> end
| 21> 
| 22> %geom
| 23>  maxiter 200
| 24> end
| 25> 
| 26> %pal
| 27>  nprocs 6
| 28> end
| 29> 
| 30>                          ****END OF INPUT****
================================================================================


------------------------------------------------------------------------------- 
                         Nudged Elastic Band Calculation                       
------------------------------------------------------------------------------- 

Warning: End points are propagated according to the atomic force perp. to the path:
         the end points need to be placed on opposite sides of the potential energy barrier
Number of images (incl. end points)     ....  30
Number of intermediate images           ....  28
Number of optimized images              ....  30
Optimization of end points before NEB   ....  YES
Use existing gbw files for MO input     ....  NO
Number of atoms                         ....  23
Number of (active) degrees of freedom   ....  69
Constrained atoms                       ....  None


Before the actual NEB run reactant and product are preoptimized.

---------------------------------------------------------------
                        REACTANT OPTIMIZATION            
---------------------------------------------------------------

Geometry optimization settings:
Update method            Update   .... BFGS
Choice of coordinates    CoordSys .... Z-matrix Internals
Initial Hessian          InHess   .... Almoef's Model

Convergence Tolerances:
Energy Change            TolE     ....  5.0000e-06 Eh
Max. Gradient            TolMAXG  ....  3.0000e-04 Eh/bohr
RMS Gradient             TolRMSG  ....  1.0000e-04 Eh/bohr
Max. Displacement        TolMAXD  ....  4.0000e-03 bohr
RMS Displacement         TolRMSD  ....  2.0000e-03 bohr
Strict Convergence                ....  False
------------------------------------------------------------------------------
                        ORCA OPTIMIZATION COORDINATE SETUP
------------------------------------------------------------------------------

The optimization will be done in new redundant internal coordinates
Making redundant internal coordinates   ...  (new redundants) done
Evaluating the initial hessian          ...  (Almloef) done
Evaluating the coordinates              ...  done
Calculating the B-matrix                .... done
Calculating the G-matrix                .... done
Diagonalizing the G-matrix              .... done
Small eigenvalue found = 1.284e-02
Small eigenvalue found = 2.348e-02
The first mode is                       ....   65
The number of degrees of freedom        ....   63

    -----------------------------------------------------------------
                    Redundant Internal Coordinates


    -----------------------------------------------------------------
         Definition                    Initial Value    Approx d2E/dq
    -----------------------------------------------------------------
      1. B(C   1,C   0)                  1.5256         0.379598   
      2. B(C   4,C   2)                  1.5271         0.377590   
      3. B(C   4,C   1)                  1.5257         0.379486   
      4. B(H   5,C   2)                  1.0932         0.355849   
      5. B(H   6,C   2)                  1.0946         0.354034   
      6. B(C   7,C   0)                  1.5272         0.377430   
      7. B(H   8,C   1)                  1.0928         0.356395   
      8. B(H   9,C   1)                  1.0913         0.358427   
      9. B(C  10,C   7)                  1.5166         0.392489   
     10. B(C  10,H   3)                  1.1020         0.344623   
     11. B(C  10,C   2)                  1.5165         0.392531   
     12. B(H  11,C   7)                  1.0947         0.353911   
     13. B(H  12,C   7)                  1.0939         0.354919   
     14. B(H  13,C   4)                  1.0938         0.355067   
     15. B(H  14,C   4)                  1.0917         0.357913   
     16. B(H  15,C   0)                  1.0941         0.354731   
     17. B(H  16,C   0)                  1.0920         0.357440   
     18. B(Br 17,C  10)                  1.9603         0.258391   
     19. B(O  18,H   3)                  1.9328         0.014586   
     20. B(C  19,O  18)                  1.3165         0.733116   
     21. B(H  20,C  19)                  1.1338         0.306593   
     22. B(H  21,C  19)                  1.1305         0.310314   
     23. B(H  22,C  19)                  1.1349         0.305356   
     24. A(H  15,C   0,H  16)          108.4593         0.289817   
     25. A(C   1,C   0,H  16)          110.6980         0.324776   
     26. A(C   7,C   0,H  15)          108.2443         0.324066   
     27. A(C   7,C   0,H  16)          109.6460         0.324471   
     28. A(C   1,C   0,C   7)          110.4308         0.364987   
     29. A(C   1,C   0,H  15)          109.3022         0.324371   
     30. A(C   0,C   1,H   8)          109.5167         0.324620   
     31. A(C   0,C   1,C   4)          109.7983         0.365327   
     32. A(C   4,C   1,H   8)          109.5975         0.324604   
     33. A(C   4,C   1,H   9)          109.7954         0.324908   
     34. A(H   8,C   1,H   9)          108.3835         0.290155   
     35. A(C   0,C   1,H   9)          109.7276         0.324924   
     36. A(C   4,C   2,H   5)          109.9162         0.324256   
     37. A(C   4,C   2,C  10)          108.3469         0.367115   
     38. A(H   5,C   2,H   6)          108.4658         0.289525   
     39. A(H   6,C   2,C  10)          109.8545         0.326057   
     40. A(C   4,C   2,H   6)          110.2557         0.323984   
     41. A(H   5,C   2,C  10)          109.9985         0.326331   
     42. A(C  10,H   3,O  18)          170.8725         0.184593   
     43. A(H  13,C   4,H  14)          108.5806         0.289920   
     44. A(C   1,C   4,H  14)          110.5981         0.324831   
     45. A(C   2,C   4,H  13)          108.1619         0.324139   
     46. A(C   1,C   4,H  13)          109.3676         0.324405   
     47. A(C   1,C   4,C   2)          110.3941         0.364995   
     48. A(C   2,C   4,H  14)          109.6817         0.324564   
     49. A(H  11,C   7,H  12)          108.3555         0.289391   
     50. A(C  10,C   7,H  12)          110.0578         0.326185   
     51. A(C   0,C   7,H  12)          109.8772         0.324094   
     52. A(C  10,C   7,H  11)          109.8687         0.326032   
     53. A(C   0,C   7,H  11)          110.2330         0.323942   
     54. A(C   0,C   7,C  10)          108.4458         0.367081   
     55. A(C   2,C  10,H   3)          110.7776         0.324615   
     56. A(H   3,C  10,C   7)          110.9195         0.324610   
     57. A(C   7,C  10,Br 17)          109.0677         0.365911   
     58. A(H   3,C  10,Br 17)          105.5111         0.321550   
     59. A(C   2,C  10,Br 17)          109.1577         0.365918   
     60. A(C   2,C  10,C   7)          111.2213         0.369561   
     61. A(H   3,O  18,C  19)          118.6312         0.219040   
     62. A(H  21,C  19,H  22)          104.5826         0.277005   
     63. A(H  20,C  19,H  22)          104.4173         0.276493   
     64. A(O  18,C  19,H  22)          114.1131         0.350896   
     65. A(H  20,C  19,H  21)          104.5822         0.277177   
     66. A(O  18,C  19,H  21)          113.8675         0.351853   
     67. A(O  18,C  19,H  20)          114.1745         0.351136   
     68. D(H   9,C   1,C   0,H  16)     59.3995         0.011486   
     69. D(H   9,C   1,C   0,C   7)   -178.9810         0.011486   
     70. D(H   8,C   1,C   0,H  16)    -59.4536         0.011486   
     71. D(H   9,C   1,C   0,H  15)    -60.0046         0.011486   
     72. D(C   4,C   1,C   0,H  15)     60.7572         0.011486   
     73. D(C   4,C   1,C   0,C   7)    -58.2192         0.011486   
     74. D(H   8,C   1,C   0,H  15)   -178.8577         0.011486   
     75. D(H   8,C   1,C   0,C   7)     62.1659         0.011486   
     76. D(C   4,C   1,C   0,H  16)   -179.8387         0.011486   
     77. D(H  13,C   4,C   1,H   9)     60.1988         0.011479   
     78. D(C   1,C   4,C   2,C  10)    -58.9173         0.011371   
     79. D(H  13,C   4,C   2,H   6)   -179.0415         0.011371   
     80. D(H  13,C   4,C   2,C  10)     60.7074         0.011371   
     81. D(C   2,C   4,C   1,H   8)    -61.9647         0.011479   
     82. D(C   2,C   4,C   1,H   9)    179.0923         0.011479   
     83. D(C   1,C   4,C   2,H   6)     61.3338         0.011371   
     84. D(H  13,C   4,C   1,C   0)    -60.5221         0.011479   
     85. D(C   1,C   4,C   2,H   5)   -179.1414         0.011371   
     86. D(C   2,C   4,C   1,C   0)     58.3715         0.011479   
     87. D(H  14,C   4,C   2,C  10)    178.9686         0.011371   
     88. D(H  14,C   4,C   2,H   6)    -60.7803         0.011371   
     89. D(H  14,C   4,C   2,H   5)     58.7445         0.011371   
     90. D(H  13,C   4,C   1,H   8)    179.1418         0.011479   
     91. D(H  14,C   4,C   1,H   9)    -59.3347         0.011479   
     92. D(H  13,C   4,C   2,H   5)    -59.5167         0.011371   
     93. D(H  14,C   4,C   1,C   0)    179.9444         0.011479   
     94. D(H  14,C   4,C   1,H   8)     59.6083         0.011479   
     95. D(H  11,C   7,C   0,C   1)    -61.6604         0.011362   
     96. D(C  10,C   7,C   0,H  16)   -179.1045         0.011362   
     97. D(C  10,C   7,C   0,H  15)    -60.9615         0.011362   
     98. D(C  10,C   7,C   0,C   1)     58.6558         0.011362   
     99. D(H  12,C   7,C   0,H  16)    -58.7707         0.011362   
    100. D(H  12,C   7,C   0,H  15)     59.3723         0.011362   
    101. D(H  12,C   7,C   0,C   1)    178.9896         0.011362   
    102. D(H  11,C   7,C   0,H  16)     60.5792         0.011362   
    103. D(H  11,C   7,C   0,H  15)    178.7223         0.011362   
    104. D(Br 17,C  10,C   7,H  12)     58.7248         0.012240   
    105. D(Br 17,C  10,C   7,H  11)    -60.5111         0.012240   
    106. D(H   3,C  10,C   7,H  12)    -57.0631         0.012240   
    107. D(H   3,C  10,C   7,H  11)   -176.2990         0.012240   
    108. D(H   3,C  10,C   7,C   0)     63.1583         0.012240   
    109. D(C   2,C  10,C   7,H  12)    179.1688         0.012240   
    110. D(C   2,C  10,C   7,H  11)     59.9329         0.012240   
    111. D(C   2,C  10,C   7,C   0)    -60.6097         0.012240   
    112. D(Br 17,C  10,H   3,O  18)   -176.5247         0.109183   
    113. D(C   7,C  10,H   3,O  18)    -58.5523         0.109183   
    114. D(C   2,C  10,H   3,O  18)     65.4693         0.109183   
    115. D(Br 17,C  10,C   2,H   6)     60.6126         0.012243   
    116. D(Br 17,C  10,C   2,H   5)    -58.7136         0.012243   
    117. D(Br 17,C  10,C   2,C   4)   -178.8864         0.012243   
    118. D(C   7,C  10,C   2,H   6)    -59.7782         0.012243   
    119. D(C   7,C  10,C   2,H   5)   -179.1045         0.012243   
    120. D(C   7,C  10,C   2,C   4)     60.7227         0.012243   
    121. D(Br 17,C  10,C   7,C   0)    178.9463         0.012240   
    122. D(H   3,C  10,C   2,H   6)    176.3730         0.012243   
    123. D(H   3,C  10,C   2,H   5)     57.0468         0.012243   
    124. D(H   3,C  10,C   2,C   4)    -63.1260         0.012243   
    125. D(C  19,O  18,H   3,C  10)    134.9977         0.001598   
    126. D(H  22,C  19,O  18,H   3)    -65.2081         0.044907   
    127. D(H  21,C  19,O  18,H   3)    174.8127         0.044907   
    128. D(H  20,C  19,O  18,H   3)     54.7869         0.044907   
    -----------------------------------------------------------------

Number of atoms                         .... 23
Number of degrees of freedom            .... 128

         *************************************************************
         *                GEOMETRY OPTIMIZATION CYCLE   1            *
         *************************************************************
      -----------------------------------------------------------      
     |                   =====================                   |     
     |                           x T B                           |     
     |                   =====================                   |     
     |                         S. Grimme                         |     
     |          Mulliken Center for Theoretical Chemistry        |     
     |                    University of Bonn                     |     
      -----------------------------------------------------------      

   * xtb version 6.3.2 (30e43eb) compiled by 'schneider@apollo14' on 2020-08-08

   xtb is free software: you can redistribute it and/or modify it under
   the terms of the GNU Lesser General Public License as published by
   the Free Software Foundation, either version 3 of the License, or
   (at your option) any later version.
   
   xtb is distributed in the hope that it will be useful,
   but WITHOUT ANY WARRANTY; without even the implied warranty of
   MERCHANTABILITY or FITNESS FOR A PARTICULAR PURPOSE.  See the
   GNU Lesser General Public License for more details.
   
   Cite this work as:
   * S. Grimme, C. Bannwarth, P. Shushkov, J. Chem. Theory Comput., 2017,
     13, 1989-2009. DOI: 10.1021/acs.jctc.7b00118
   * C. Bannwarth, S. Ehlert and S. Grimme., J. Chem. Theory Comput., 2019,
     15, 1652-1671. DOI: 10.1021/acs.jctc.8b01176
   * P. Pracht, E. Caldeweyher, S. Ehlert, S. Grimme, ChemRxiv, 2019, preprint.
     DOI: 10.26434/chemrxiv.8326202.v1
   
   for GFN-FF:
   * S. Spicher and S. Grimme, Angew. Chem. Int. Ed., 2020,
     DOI: 10.1002/anie.202004239
   
   for DFT-D4:
   * E. Caldeweyher, C. Bannwarth and S. Grimme, J. Chem. Phys., 2017,
     147, 034112. DOI: 10.1063/1.4993215
   * E. Caldeweyher, S. Ehlert, A. Hansen, H. Neugebauer, S. Spicher,
     C. Bannwarth and S. Grimme, J. Chem. Phys., 2019, 150, 154122.
     DOI: 10.1063/1.5090222
   
   for sTDA-xTB:
   * S. Grimme and C. Bannwarth, J. Chem. Phys., 2016, 145, 054103.
     DOI: 10.1063/1.4959605
   
   in the mass-spec context:
   * V. Asgeirsson, C. Bauer and S. Grimme, Chem. Sci., 2017, 8, 4879.
     DOI: 10.1039/c7sc00601b
   * J. Koopman and S. Grimme, ACS Omega 2019, 4, 12, 15120-15133.
     DOI: 10.1021/acsomega.9b02011
   
   for metadynamics refer to:
   * S. Grimme, J. Chem. Theory Comput., 2019, 155, 2847-2862
     DOI: 10.1021/acs.jctc.9b00143
   
   with help from (in alphabetical order)
   C. Bannwarth, F. Bohle, G. Brandenburg, E. Caldeweyher, M. Checinski,
   S. Dohm, S. Ehlert, S. Ehrlich, F. März, H. Neugebauer, J. Pisarek,
   P. Pracht, P. Shushkov, and S. Spicher.
   
 * started run on 2021/11/10 at 00:44:03.077     

           -------------------------------------------------
          |                Calculation Setup                |
           -------------------------------------------------

          program call               : /opt/orca/otool_xtb optts+numfreq_reactant_XTB.xyz --grad -c -1 -u 0 -P 6 --namespace optts+numfreq_reactant --gbsa methanol
          calculation namespace      : optts+numfreq_reactant
          coordinate file            : optts+numfreq_reactant_XTB.xyz
          omp threads                :                     6
          number of atoms            :                    23
          number of electrons        :                    56
          charge                     :                    -1
          spin                       :                   0.0
          first test random number   :      0.54779254924334

   ID    Z sym.   atoms
    1    6 C      1-3, 5, 8, 11, 20
    2    1 H      4, 6, 7, 9, 10, 12-17, 21-23
    3   35 Br     18
    4    8 O      19

molecular fragmentation (1/2 indicates fragments):
11111111111111111122222
# atoms in fragment 1/2:    18     5
 fragment masses (1/2) :      163.06       31.03
CMA distance (Bohr)    :   7.261
constraining FC (au)   :  0.0500
########################################################################
[WARNING] Please study the warnings concerning your input carefully
-1- prog_main_parseArguments: Process number higher than OMP_NUM_THREADS, I hope you know what you are doing.
########################################################################

           -------------------------------------------------
          |                 G F N 2 - x T B                 |
           -------------------------------------------------

        Reference                      10.1021/acs.jctc.8b01176
      * Hamiltonian:
        H0-scaling (s, p, d)           1.850000    2.230000    2.230000
        zeta-weighting                 0.500000
      * Dispersion:
        s8                             2.700000
        a1                             0.520000
        a2                             5.000000
        s9                             5.000000
      * Repulsion:
        kExp                           1.500000    1.000000
        rExp                           1.000000
      * Coulomb:
        alpha                          2.000000
        third order                    shell-resolved
        anisotropic                    true
        a3                             3.000000
        a5                             4.000000
        cn-shift                       1.200000
        cn-exp                         4.000000
        max-rad                        5.000000

      * Solvation model:               GBSA
        Solvent                        methanol
        Parameter file                 internal GFN2-xTB/GBSA
        Dielectric constant                3.2700E+01
        Reference state                gsolv [1 M gas/solution]
        Free energy shift                  3.3569E-03 Eh       2.1065E+00 kcal/mol
        Temperature                        2.9815E+02 K
        Density                            7.9200E-01 kg/L
        Solvent mass                       3.2040E+01 g/mol
        Interaction kernel             Still
        Born radius scaling (c1)           1.6087E+00
        Born radii integrator          GBOBC
        Born offset                        5.6550E-04 a0       1.0686E-03 AA
        H-bond correction              true
        Ion screening                  false
        Surface tension                    1.0000E-05 Eh       1.5569E+01 dyn/cm
        Grid points                               230 per atom
q/qsh data taken from xtbrestart
CAMM data taken from xtbrestart

          ...................................................
          :                      SETUP                      :
          :.................................................:
          :  # basis functions                  56          :
          :  # atomic orbitals                  55          :
          :  # shells                           33          :
          :  # electrons                        56          :
          :  max. iterations                   250          :
          :  Hamiltonian                  GFN2-xTB          :
          :  restarted?                       true          :
          :  GBSA solvation                   true          :
          :  PC potential                    false          :
          :  electronic temp.          300.0000000     K    :
          :  accuracy                    1.0000000          :
          :  -> integral cutoff          0.2500000E+02      :
          :  -> integral neglect         0.1000000E-07      :
          :  -> SCF convergence          0.1000000E-05 Eh   :
          :  -> wf. convergence          0.1000000E-03 e    :
          :  Broyden damping             0.4000000          :
          ...................................................

 iter      E             dE          RMSdq      gap      omega  full diag
   1    -30.8499796 -0.308500E+02  0.512E+00    5.49       0.0  T
   2    -30.8852175 -0.352379E-01  0.248E+00    4.95       1.0  T
   3    -30.8982405 -0.130230E-01  0.113E+00    2.89       1.0  T
   4    -30.9000617 -0.182116E-02  0.516E-01    3.09       1.0  T
   5    -30.9008181 -0.756466E-03  0.345E-01    2.98       1.0  T
   6    -30.9011186 -0.300453E-03  0.199E-01    3.03       1.0  T
   7    -30.9012707 -0.152136E-03  0.807E-02    3.04       1.0  T
   8    -30.9012890 -0.183245E-04  0.494E-02    3.04       1.0  T
   9    -30.9012944 -0.535643E-05  0.248E-02    2.99       1.0  T
  10    -30.9012965 -0.211330E-05  0.103E-02    2.99       2.0  T
  11    -30.9012967 -0.155989E-06  0.701E-03    2.99       3.0  T
  12    -30.9012968 -0.103589E-06  0.450E-03    2.99       4.6  T
  13    -30.9012968 -0.703292E-07  0.156E-03    2.99      13.3  T
  14    -30.9012968 -0.775012E-08  0.879E-04    2.99      23.7  T
  15    -30.9012969 -0.315768E-08  0.803E-05    2.99     259.8  T

   *** convergence criteria satisfied after 15 iterations ***

         #    Occupation            Energy/Eh            Energy/eV
      -------------------------------------------------------------
         1        2.0000           -0.8311655             -22.6172
       ...           ...                  ...                  ...
        22        2.0000           -0.4255600             -11.5801
        23        2.0000           -0.4240399             -11.5387
        24        2.0000           -0.4223227             -11.4920
        25        2.0000           -0.3984859             -10.8434
        26        2.0000           -0.3958155             -10.7707
        27        2.0000           -0.3165998              -8.6151
        28        2.0000           -0.3148373              -8.5672 (HOMO)
        29                         -0.2049627              -5.5773 (LUMO)
        30                          0.0391773               1.0661
        31                          0.0465906               1.2678
        32                          0.0539888               1.4691
        33                          0.0627361               1.7071
       ...                                ...                  ...
        55                          0.3988424              10.8531
      -------------------------------------------------------------
                  HL-Gap            0.1098746 Eh            2.9898 eV
             Fermi-level           -0.2599000 Eh           -7.0722 eV

 SCC (total)                   0 d,  0 h,  0 min,  0.037 sec
 SCC setup                      ...        0 min,  0.003 sec (  7.614%)
 Dispersion                     ...        0 min,  0.000 sec (  0.491%)
 classical contributions        ...        0 min,  0.001 sec (  1.820%)
 integral evaluation            ...        0 min,  0.005 sec ( 13.624%)
 iterations                     ...        0 min,  0.021 sec ( 56.233%)
 molecular gradient             ...        0 min,  0.007 sec ( 19.661%)
 printout                       ...        0 min,  0.000 sec (  0.505%)

         :::::::::::::::::::::::::::::::::::::::::::::::::::::
         ::                     SUMMARY                     ::
         :::::::::::::::::::::::::::::::::::::::::::::::::::::
         :: total energy             -30.580977931830 Eh    ::
         :: total w/o Gsasa/hb       -30.569502919987 Eh    ::
         :: gradient norm              0.000234748018 Eh/a0 ::
         :: HOMO-LUMO gap              2.989840300890 eV    ::
         ::.................................................::
         :: SCC energy               -30.901296851728 Eh    ::
         :: -> isotropic ES            0.218350478677 Eh    ::
         :: -> anisotropic ES         -0.015779256429 Eh    ::
         :: -> anisotropic XC         -0.010341104131 Eh    ::
         :: -> dispersion             -0.018944322113 Eh    ::
         :: -> Gsolv                  -0.118145174338 Eh    ::
         ::    -> Gborn               -0.106670162495 Eh    ::
         ::    -> Gsasa               -0.012447525380 Eh    ::
         ::    -> Ghb                 -0.002384415986 Eh    ::
         ::    -> Gshift               0.003356929523 Eh    ::
         :: repulsion energy           0.320149271810 Eh    ::
         :: add. restraining           0.000000000000 Eh    ::
         :: total charge              -1.000000000000 e     ::
         :::::::::::::::::::::::::::::::::::::::::::::::::::::

           -------------------------------------------------
          |                Property Printout                |
           -------------------------------------------------

    * Orbital Energies and Occupations

         #    Occupation            Energy/Eh            Energy/eV
      -------------------------------------------------------------
         1        2.0000           -0.8311655             -22.6172
       ...           ...                  ...                  ...
        16        2.0000           -0.4803735             -13.0716
        17        2.0000           -0.4726968             -12.8627
        18        2.0000           -0.4715404             -12.8313
        19        2.0000           -0.4530994             -12.3295
        20        2.0000           -0.4433031             -12.0629
        21        2.0000           -0.4416450             -12.0178
        22        2.0000           -0.4255600             -11.5801
        23        2.0000           -0.4240399             -11.5387
        24        2.0000           -0.4223227             -11.4920
        25        2.0000           -0.3984859             -10.8434
        26        2.0000           -0.3958155             -10.7707
        27        2.0000           -0.3165998              -8.6151
        28        2.0000           -0.3148373              -8.5672 (HOMO)
        29                         -0.2049627              -5.5773 (LUMO)
        30                          0.0391773               1.0661
        31                          0.0465906               1.2678
        32                          0.0539888               1.4691
        33                          0.0627361               1.7071
        34                          0.0860766               2.3423
        35                          0.0922375               2.5099
        36                          0.0949645               2.5841
        37                          0.1133996               3.0858
        38                          0.1152927               3.1373
        39                          0.1283030               3.4913
       ...                                ...                  ...
        55                          0.3988424              10.8531
      -------------------------------------------------------------
                  HL-Gap            0.1098746 Eh            2.9898 eV
             Fermi-level           -0.2599000 Eh           -7.0722 eV

     #   Z          covCN         q      C6AA      α(0)
     1   6 C        3.809    -0.052    21.506     6.601
     2   6 C        3.806    -0.060    21.650     6.624
     3   6 C        3.885    -0.045    21.332     6.566
     4   1 H        0.924     0.050     2.322     2.383
     5   6 C        3.809    -0.055    21.552     6.608
     6   1 H        0.924     0.025     2.652     2.546
     7   1 H        0.924     0.047     2.361     2.403
     8   6 C        3.886    -0.042    21.278     6.558
     9   1 H        0.924     0.048     2.345     2.395
    10   1 H        0.924     0.039     2.461     2.453
    11   6 C        3.800     0.062    19.541     6.294
    12   1 H        0.924     0.046     2.373     2.409
    13   1 H        0.924     0.019     2.755     2.596
    14   1 H        0.924     0.026     2.645     2.543
    15   1 H        0.924     0.043     2.409     2.427
    16   1 H        0.924     0.022     2.708     2.573
    17   1 H        0.924     0.040     2.448     2.447
    18  35 Br       1.073    -0.242   191.816    22.331
    19   8 O        0.855    -0.824    32.312     7.621
    20   6 C        3.605     0.205    17.849     6.106
    21   1 H        0.917    -0.118     6.224     3.902
    22   1 H        0.917    -0.114     6.081     3.857
    23   1 H        0.916    -0.119     6.285     3.921

 Mol. C6AA /au·bohr⁶  :       5778.443529
 Mol. C8AA /au·bohr⁸  :     153846.583911
 Mol. α(0) /au        :        114.165946


Wiberg/Mayer (AO) data.
largest (>0.10) Wiberg bond orders for each atom

 ---------------------------------------------------------------------------
     #   Z sym  total        # sym  WBO       # sym  WBO       # sym  WBO
 ---------------------------------------------------------------------------
     1   6 C    3.997 --     2 C    1.010     8 C    0.998    16 H    0.978
                            17 H    0.975
     2   6 C    3.997 --     5 C    1.010     1 C    1.010    10 H    0.977
                             9 H    0.976
     3   6 C    3.996 --    11 C    1.012     5 C    0.998     6 H    0.978
                             7 H    0.975
     4   1 H    0.998 --    11 C    0.944
     5   6 C    3.997 --     2 C    1.010     3 C    0.998    14 H    0.978
                            15 H    0.975
     6   1 H    0.999 --     3 C    0.978
     7   1 H    0.998 --     3 C    0.975
     8   6 C    3.997 --    11 C    1.013     1 C    0.998    13 H    0.979
                            12 H    0.975
     9   1 H    0.998 --     2 C    0.976
    10   1 H    0.998 --     2 C    0.977
    11   6 C    3.928 --     8 C    1.013     3 C    1.012     4 H    0.944
                            18 Br   0.902
    12   1 H    0.998 --     8 C    0.975
    13   1 H    1.000 --     8 C    0.979
    14   1 H    0.999 --     5 C    0.978
    15   1 H    0.998 --     5 C    0.975
    16   1 H    1.000 --     1 C    0.978
    17   1 H    0.998 --     1 C    0.975
    18  35 Br   0.965 --    11 C    0.902
    19   8 O    1.367 --    20 C    1.164
    20   6 C    3.977 --    19 O    1.164    22 H    0.939    21 H    0.937
                            23 H    0.936
    21   1 H    0.986 --    20 C    0.937
    22   1 H    0.987 --    20 C    0.939
    23   1 H    0.986 --    20 C    0.936
 ---------------------------------------------------------------------------

Topologies differ in total number of bonds
Writing topology from bond orders to xtbtopo.mol

molecular dipole:
                 x           y           z       tot (Debye)
 q only:       -5.297      -0.467       7.780
   full:       -3.997      -0.595       7.376      21.376
molecular quadrupole (traceless):
                xx          xy          yy          xz          yz          zz
 q only:      -10.941      -4.515      45.753      64.666       4.276     -34.812
  q+dip:      -15.376      -6.026      44.610      49.802       5.199     -29.235
   full:      -14.691      -6.086      44.252      51.169       5.629     -29.560


           -------------------------------------------------
          | TOTAL ENERGY              -30.580977931830 Eh   |
          | GRADIENT NORM               0.000234748018 Eh/α |
          | HOMO-LUMO GAP               2.989840300890 eV   |
           -------------------------------------------------

------------------------------------------------------------------------
 * finished run on 2021/11/10 at 00:44:03.131     
------------------------------------------------------------------------
 total:
 * wall-time:     0 d,  0 h,  0 min,  0.054 sec
 *  cpu-time:     0 d,  0 h,  0 min,  0.415 sec
 * ratio c/w:     7.632 speedup
 SCF:
 * wall-time:     0 d,  0 h,  0 min,  0.039 sec
 *  cpu-time:     0 d,  0 h,  0 min,  0.291 sec
 * ratio c/w:     7.447 speedup


-------------------------   --------------------
FINAL SINGLE POINT ENERGY       -30.580977931830
-------------------------   --------------------

------------------------------------------------------------------------------
                         ORCA GEOMETRY RELAXATION STEP
------------------------------------------------------------------------------

Reading the OPT-File                    .... done
Getting information on internals        .... done
Copying old internal coords+grads       .... done
Making the new internal coordinates     .... (new redundants).... done
Validating the new internal coordinates .... (new redundants).... done
Calculating the B-matrix                .... done
Calculating the G,G- and P matrices     .... done
Transforming gradient to internals      .... done
Projecting the internal gradient        .... done
Number of atoms                         ....  23
Number of internal coordinates          .... 128
Current Energy                          ....   -30.580977932 Eh
Current gradient norm                   ....     0.000234748 Eh/bohr
Maximum allowed component of the step   ....  0.300
Current trust radius                    ....  0.300
Evaluating the initial hessian          ....  (Almloef) done
Projecting the Hessian                  .... done
Forming the augmented Hessian           .... done
Diagonalizing the augmented Hessian     .... done
Last element of RFO vector              ....  0.999913170
Lowest eigenvalues of augmented Hessian:
 -0.000000737  0.001598145  0.014586295  0.014847831  0.015159365
Length of the computed step             ....  0.013178874
The final length of the internal step   ....  0.013178874
Converting the step to cartesian space:
 Initial RMS(Int)=    0.0011648589
Transforming coordinates:
 Iter   0:  RMS(Cart)=    0.0072828570 RMS(Int)=    0.0011647788
 Iter   1:  RMS(Cart)=    0.0000368396 RMS(Int)=    0.0000194957
 Iter   2:  RMS(Cart)=    0.0000003807 RMS(Int)=    0.0000000690
 Iter   3:  RMS(Cart)=    0.0000000042 RMS(Int)=    0.0000000022
done
Storing new coordinates                 .... done

                                .--------------------.
          ----------------------|Geometry convergence|-------------------------
          Item                value                   Tolerance       Converged
          ---------------------------------------------------------------------
          RMS gradient        0.0000210120            0.0001000000      YES
          MAX gradient        0.0000744637            0.0003000000      YES
          RMS step            0.0011648589            0.0020000000      YES
          MAX step            0.0127772082            0.0040000000      NO
          ........................................................
          Max(Bonds)      0.0001      Max(Angles)    0.03
          Max(Dihed)        0.73      Max(Improp)    0.00
          ---------------------------------------------------------------------

       The energies and gradients are converged
       and the convergence on bond distances, angles, dihedrals and impropers
       is acceptable.
       Convergence will therefore be signaled now


                    ***********************HURRAY********************
                    ***        THE OPTIMIZATION HAS CONVERGED     ***
                    *************************************************


    ---------------------------------------------------------------------------
                         Redundant Internal Coordinates

                          --- Optimized Parameters ---  
                            (Angstroem and degrees)

        Definition                    OldVal   dE/dq     Step     FinalVal
    ----------------------------------------------------------------------------
     1. B(C   1,C   0)                1.5256  0.000008 -0.0000    1.5256   
     2. B(C   4,C   2)                1.5271  0.000001  0.0000    1.5271   
     3. B(C   4,C   1)                1.5257  0.000014 -0.0000    1.5257   
     4. B(H   5,C   2)                1.0932 -0.000007  0.0000    1.0932   
     5. B(H   6,C   2)                1.0946  0.000003 -0.0000    1.0946   
     6. B(C   7,C   0)                1.5272 -0.000022  0.0000    1.5272   
     7. B(H   8,C   1)                1.0928 -0.000011  0.0000    1.0928   
     8. B(H   9,C   1)                1.0913 -0.000003  0.0000    1.0913   
     9. B(C  10,C   7)                1.5166 -0.000021  0.0000    1.5166   
    10. B(C  10,H   3)                1.1020 -0.000013  0.0000    1.1020   
    11. B(C  10,C   2)                1.5165  0.000016 -0.0000    1.5165   
    12. B(H  11,C   7)                1.0947  0.000010 -0.0000    1.0947   
    13. B(H  12,C   7)                1.0939  0.000004 -0.0000    1.0939   
    14. B(H  13,C   4)                1.0938 -0.000006  0.0000    1.0938   
    15. B(H  14,C   4)                1.0917 -0.000002  0.0000    1.0917   
    16. B(H  15,C   0)                1.0941 -0.000002  0.0000    1.0941   
    17. B(H  16,C   0)                1.0920  0.000006 -0.0000    1.0920   
    18. B(Br 17,C  10)                1.9603 -0.000024  0.0000    1.9604   
    19. B(O  18,H   3)                1.9328  0.000002 -0.0001    1.9327   
    20. B(C  19,O  18)                1.3165 -0.000026  0.0000    1.3165   
    21. B(H  20,C  19)                1.1338  0.000006 -0.0000    1.1338   
    22. B(H  21,C  19)                1.1305  0.000010 -0.0000    1.1305   
    23. B(H  22,C  19)                1.1349  0.000010 -0.0000    1.1349   
    24. A(H  15,C   0,H  16)          108.46 -0.000015    0.01    108.47   
    25. A(C   1,C   0,H  16)          110.70  0.000013   -0.00    110.70   
    26. A(C   7,C   0,H  15)          108.24  0.000034   -0.01    108.23   
    27. A(C   7,C   0,H  16)          109.65 -0.000005    0.01    109.65   
    28. A(C   1,C   0,C   7)          110.43 -0.000016   -0.00    110.43   
    29. A(C   1,C   0,H  15)          109.30 -0.000011    0.00    109.31   
    30. A(C   0,C   1,H   8)          109.52 -0.000000   -0.00    109.52   
    31. A(C   0,C   1,C   4)          109.80  0.000012    0.00    109.80   
    32. A(C   4,C   1,H   8)          109.60 -0.000018   -0.00    109.60   
    33. A(C   4,C   1,H   9)          109.80  0.000019   -0.00    109.79   
    34. A(H   8,C   1,H   9)          108.38  0.000004   -0.00    108.38   
    35. A(C   0,C   1,H   9)          109.73 -0.000017    0.00    109.73   
    36. A(C   4,C   2,H   5)          109.92 -0.000003    0.00    109.92   
    37. A(C   4,C   2,C  10)          108.35  0.000036   -0.01    108.34   
    38. A(H   5,C   2,H   6)          108.47  0.000013   -0.00    108.46   
    39. A(H   6,C   2,C  10)          109.85 -0.000001    0.00    109.86   
    40. A(C   4,C   2,H   6)          110.26 -0.000036    0.01    110.27   
    41. A(H   5,C   2,C  10)          110.00 -0.000009   -0.00    109.99   
    42. A(C  10,H   3,O  18)          170.87  0.000048   -0.01    170.86   
    43. A(H  13,C   4,H  14)          108.58 -0.000004   -0.00    108.58   
    44. A(C   1,C   4,H  14)          110.60 -0.000016    0.01    110.60   
    45. A(C   2,C   4,H  13)          108.16  0.000010   -0.00    108.16   
    46. A(C   1,C   4,H  13)          109.37  0.000025   -0.00    109.36   
    47. A(C   1,C   4,C   2)          110.39 -0.000034    0.00    110.40   
    48. A(C   2,C   4,H  14)          109.68  0.000021   -0.00    109.68   
    49. A(H  11,C   7,H  12)          108.36  0.000008    0.00    108.36   
    50. A(C  10,C   7,H  12)          110.06  0.000002   -0.01    110.05   
    51. A(C   0,C   7,H  12)          109.88 -0.000020    0.00    109.88   
    52. A(C  10,C   7,H  11)          109.87 -0.000017    0.01    109.88   
    53. A(C   0,C   7,H  11)          110.23 -0.000028    0.01    110.24   
    54. A(C   0,C   7,C  10)          108.45  0.000053   -0.02    108.42   
    55. A(C   2,C  10,H   3)          110.78 -0.000016   -0.00    110.78   
    56. A(H   3,C  10,C   7)          110.92  0.000074   -0.03    110.89   
    57. A(C   7,C  10,Br 17)          109.07  0.000003    0.00    109.07   
    58. A(H   3,C  10,Br 17)          105.51 -0.000048    0.02    105.53   
    59. A(C   2,C  10,Br 17)          109.16  0.000032   -0.00    109.16   
    60. A(C   2,C  10,C   7)          111.22 -0.000045    0.01    111.23   
    61. A(H   3,O  18,C  19)          118.63 -0.000014    0.00    118.63   
    62. A(H  21,C  19,H  22)          104.58 -0.000031    0.01    104.59   
    63. A(H  20,C  19,H  22)          104.42 -0.000037    0.01    104.42   
    64. A(O  18,C  19,H  22)          114.11  0.000064   -0.01    114.10   
    65. A(H  20,C  19,H  21)          104.58  0.000009   -0.00    104.58   
    66. A(O  18,C  19,H  21)          113.87 -0.000003   -0.00    113.87   
    67. A(O  18,C  19,H  20)          114.17 -0.000010    0.00    114.18   
    68. D(H   9,C   1,C   0,H  16)     59.40  0.000000   -0.01     59.38   
    69. D(H   9,C   1,C   0,C   7)   -178.98 -0.000008   -0.01   -178.99   
    70. D(H   8,C   1,C   0,H  16)    -59.45  0.000005   -0.01    -59.47   
    71. D(H   9,C   1,C   0,H  15)    -60.00  0.000017   -0.03    -60.03   
    72. D(C   4,C   1,C   0,H  15)     60.76  0.000037   -0.03     60.73   
    73. D(C   4,C   1,C   0,C   7)    -58.22  0.000012   -0.01    -58.23   
    74. D(H   8,C   1,C   0,H  15)   -178.86  0.000023   -0.03   -178.88   
    75. D(H   8,C   1,C   0,C   7)     62.17 -0.000003   -0.01     62.16   
    76. D(C   4,C   1,C   0,H  16)   -179.84  0.000020   -0.01   -179.85   
    77. D(H  13,C   4,C   1,H   9)     60.20 -0.000004   -0.00     60.19   
    78. D(C   1,C   4,C   2,C  10)    -58.92 -0.000024    0.02    -58.90   
    79. D(H  13,C   4,C   2,H   6)   -179.04 -0.000008    0.02   -179.02   
    80. D(H  13,C   4,C   2,C  10)     60.71 -0.000007    0.01     60.72   
    81. D(C   2,C   4,C   1,H   8)    -61.96  0.000009   -0.01    -61.98   
    82. D(C   2,C   4,C   1,H   9)    179.09  0.000003   -0.01    179.08   
    83. D(C   1,C   4,C   2,H   6)     61.33 -0.000025    0.03     61.36   
    84. D(H  13,C   4,C   1,C   0)    -60.52 -0.000002   -0.01    -60.53   
    85. D(C   1,C   4,C   2,H   5)   -179.14 -0.000033    0.03   -179.11   
    86. D(C   2,C   4,C   1,C   0)     58.37  0.000005   -0.01     58.36   
    87. D(H  14,C   4,C   2,C  10)    178.97  0.000005    0.01    178.98   
    88. D(H  14,C   4,C   2,H   6)    -60.78  0.000004    0.02    -60.76   
    89. D(H  14,C   4,C   2,H   5)     58.74 -0.000004    0.02     58.76   
    90. D(H  13,C   4,C   1,H   8)    179.14  0.000002   -0.01    179.13   
    91. D(H  14,C   4,C   1,H   9)    -59.33 -0.000004   -0.00    -59.34   
    92. D(H  13,C   4,C   2,H   5)    -59.52 -0.000016    0.02    -59.49   
    93. D(H  14,C   4,C   1,C   0)    179.94 -0.000002   -0.01    179.94   
    94. D(H  14,C   4,C   1,H   8)     59.61  0.000002   -0.01     59.60   
    95. D(H  11,C   7,C   0,C   1)    -61.66 -0.000002    0.02    -61.64   
    96. D(C  10,C   7,C   0,H  16)   -179.10 -0.000004    0.02   -179.08   
    97. D(C  10,C   7,C   0,H  15)    -60.96 -0.000004    0.03    -60.93   
    98. D(C  10,C   7,C   0,C   1)     58.66 -0.000006    0.02     58.68   
    99. D(H  12,C   7,C   0,H  16)    -58.77  0.000019    0.00    -58.77   
   100. D(H  12,C   7,C   0,H  15)     59.37  0.000019    0.01     59.38   
   101. D(H  12,C   7,C   0,C   1)    178.99  0.000017    0.00    178.99   
   102. D(H  11,C   7,C   0,H  16)     60.58 -0.000000    0.02     60.60   
   103. D(H  11,C   7,C   0,H  15)    178.72 -0.000000    0.02    178.74   
   104. D(Br 17,C  10,C   7,H  12)     58.72 -0.000002   -0.02     58.70   
   105. D(Br 17,C  10,C   7,H  11)    -60.51 -0.000003   -0.03    -60.54   
   106. D(H   3,C  10,C   7,H  12)    -57.06  0.000012   -0.03    -57.10   
   107. D(H   3,C  10,C   7,H  11)   -176.30  0.000011   -0.04   -176.34   
   108. D(H   3,C  10,C   7,C   0)     63.16  0.000022   -0.05     63.11   
   109. D(C   2,C  10,C   7,H  12)    179.17  0.000011   -0.02    179.15   
   110. D(C   2,C  10,C   7,H  11)     59.93  0.000010   -0.02     59.91   
   111. D(C   2,C  10,C   7,C   0)    -60.61  0.000021   -0.03    -60.64   
   112. D(Br 17,C  10,H   3,O  18)   -176.52 -0.000006    0.00   -176.52   
   113. D(C   7,C  10,H   3,O  18)    -58.55  0.000008    0.01    -58.55   
   114. D(C   2,C  10,H   3,O  18)     65.47 -0.000008   -0.01     65.46   
   115. D(Br 17,C  10,C   2,H   6)     60.61  0.000015    0.01     60.62   
   116. D(Br 17,C  10,C   2,H   5)    -58.71  0.000005    0.01    -58.70   
   117. D(Br 17,C  10,C   2,C   4)   -178.89 -0.000008    0.02   -178.87   
   118. D(C   7,C  10,C   2,H   6)    -59.78  0.000019    0.00    -59.78   
   119. D(C   7,C  10,C   2,H   5)   -179.10  0.000009    0.00   -179.10   
   120. D(C   7,C  10,C   2,C   4)     60.72 -0.000004    0.01     60.73   
   121. D(Br 17,C  10,C   7,C   0)    178.95  0.000008   -0.04    178.91   
   122. D(H   3,C  10,C   2,H   6)    176.37 -0.000034    0.03    176.40   
   123. D(H   3,C  10,C   2,H   5)     57.05 -0.000043    0.04     57.08   
   124. D(H   3,C  10,C   2,C   4)    -63.13 -0.000056    0.04    -63.08   
   125. D(C  19,O  18,H   3,C  10)    135.00  0.000020   -0.73    134.27   
   126. D(H  22,C  19,O  18,H   3)    -65.21 -0.000033    0.05    -65.16   
   127. D(H  21,C  19,O  18,H   3)    174.81 -0.000038    0.05    174.86   
   128. D(H  20,C  19,O  18,H   3)     54.79 -0.000040    0.05     54.84   
    ----------------------------------------------------------------------------
                 *******************************************************
                 *** FINAL ENERGY EVALUATION AT THE STATIONARY POINT ***
                 ***               (AFTER    1 CYCLES)               ***
                 *******************************************************
      -----------------------------------------------------------      
     |                   =====================                   |     
     |                           x T B                           |     
     |                   =====================                   |     
     |                         S. Grimme                         |     
     |          Mulliken Center for Theoretical Chemistry        |     
     |                    University of Bonn                     |     
      -----------------------------------------------------------      

   * xtb version 6.3.2 (30e43eb) compiled by 'schneider@apollo14' on 2020-08-08

   xtb is free software: you can redistribute it and/or modify it under
   the terms of the GNU Lesser General Public License as published by
   the Free Software Foundation, either version 3 of the License, or
   (at your option) any later version.
   
   xtb is distributed in the hope that it will be useful,
   but WITHOUT ANY WARRANTY; without even the implied warranty of
   MERCHANTABILITY or FITNESS FOR A PARTICULAR PURPOSE.  See the
   GNU Lesser General Public License for more details.
   
   Cite this work as:
   * S. Grimme, C. Bannwarth, P. Shushkov, J. Chem. Theory Comput., 2017,
     13, 1989-2009. DOI: 10.1021/acs.jctc.7b00118
   * C. Bannwarth, S. Ehlert and S. Grimme., J. Chem. Theory Comput., 2019,
     15, 1652-1671. DOI: 10.1021/acs.jctc.8b01176
   * P. Pracht, E. Caldeweyher, S. Ehlert, S. Grimme, ChemRxiv, 2019, preprint.
     DOI: 10.26434/chemrxiv.8326202.v1
   
   for GFN-FF:
   * S. Spicher and S. Grimme, Angew. Chem. Int. Ed., 2020,
     DOI: 10.1002/anie.202004239
   
   for DFT-D4:
   * E. Caldeweyher, C. Bannwarth and S. Grimme, J. Chem. Phys., 2017,
     147, 034112. DOI: 10.1063/1.4993215
   * E. Caldeweyher, S. Ehlert, A. Hansen, H. Neugebauer, S. Spicher,
     C. Bannwarth and S. Grimme, J. Chem. Phys., 2019, 150, 154122.
     DOI: 10.1063/1.5090222
   
   for sTDA-xTB:
   * S. Grimme and C. Bannwarth, J. Chem. Phys., 2016, 145, 054103.
     DOI: 10.1063/1.4959605
   
   in the mass-spec context:
   * V. Asgeirsson, C. Bauer and S. Grimme, Chem. Sci., 2017, 8, 4879.
     DOI: 10.1039/c7sc00601b
   * J. Koopman and S. Grimme, ACS Omega 2019, 4, 12, 15120-15133.
     DOI: 10.1021/acsomega.9b02011
   
   for metadynamics refer to:
   * S. Grimme, J. Chem. Theory Comput., 2019, 155, 2847-2862
     DOI: 10.1021/acs.jctc.9b00143
   
   with help from (in alphabetical order)
   C. Bannwarth, F. Bohle, G. Brandenburg, E. Caldeweyher, M. Checinski,
   S. Dohm, S. Ehlert, S. Ehrlich, F. März, H. Neugebauer, J. Pisarek,
   P. Pracht, P. Shushkov, and S. Spicher.
   
 * started run on 2021/11/10 at 00:44:03.388     

           -------------------------------------------------
          |                Calculation Setup                |
           -------------------------------------------------

          program call               : /opt/orca/otool_xtb optts+numfreq_reactant_XTB.xyz --grad -c -1 -u 0 -P 6 --namespace optts+numfreq_reactant --gbsa methanol
          calculation namespace      : optts+numfreq_reactant
          coordinate file            : optts+numfreq_reactant_XTB.xyz
          omp threads                :                     6
          number of atoms            :                    23
          number of electrons        :                    56
          charge                     :                    -1
          spin                       :                   0.0
          first test random number   :      0.10149563871106

   ID    Z sym.   atoms
    1    6 C      1-3, 5, 8, 11, 20
    2    1 H      4, 6, 7, 9, 10, 12-17, 21-23
    3   35 Br     18
    4    8 O      19

molecular fragmentation (1/2 indicates fragments):
11111111111111111122222
# atoms in fragment 1/2:    18     5
 fragment masses (1/2) :      163.06       31.03
CMA distance (Bohr)    :   7.261
constraining FC (au)   :  0.0500
########################################################################
[WARNING] Please study the warnings concerning your input carefully
-1- prog_main_parseArguments: Process number higher than OMP_NUM_THREADS, I hope you know what you are doing.
########################################################################

           -------------------------------------------------
          |                 G F N 2 - x T B                 |
           -------------------------------------------------

        Reference                      10.1021/acs.jctc.8b01176
      * Hamiltonian:
        H0-scaling (s, p, d)           1.850000    2.230000    2.230000
        zeta-weighting                 0.500000
      * Dispersion:
        s8                             2.700000
        a1                             0.520000
        a2                             5.000000
        s9                             5.000000
      * Repulsion:
        kExp                           1.500000    1.000000
        rExp                           1.000000
      * Coulomb:
        alpha                          2.000000
        third order                    shell-resolved
        anisotropic                    true
        a3                             3.000000
        a5                             4.000000
        cn-shift                       1.200000
        cn-exp                         4.000000
        max-rad                        5.000000

      * Solvation model:               GBSA
        Solvent                        methanol
        Parameter file                 internal GFN2-xTB/GBSA
        Dielectric constant                3.2700E+01
        Reference state                gsolv [1 M gas/solution]
        Free energy shift                  3.3569E-03 Eh       2.1065E+00 kcal/mol
        Temperature                        2.9815E+02 K
        Density                            7.9200E-01 kg/L
        Solvent mass                       3.2040E+01 g/mol
        Interaction kernel             Still
        Born radius scaling (c1)           1.6087E+00
        Born radii integrator          GBOBC
        Born offset                        5.6550E-04 a0       1.0686E-03 AA
        H-bond correction              true
        Ion screening                  false
        Surface tension                    1.0000E-05 Eh       1.5569E+01 dyn/cm
        Grid points                               230 per atom
q/qsh data taken from xtbrestart
CAMM data taken from xtbrestart

          ...................................................
          :                      SETUP                      :
          :.................................................:
          :  # basis functions                  56          :
          :  # atomic orbitals                  55          :
          :  # shells                           33          :
          :  # electrons                        56          :
          :  max. iterations                   250          :
          :  Hamiltonian                  GFN2-xTB          :
          :  restarted?                       true          :
          :  GBSA solvation                   true          :
          :  PC potential                    false          :
          :  electronic temp.          300.0000000     K    :
          :  accuracy                    1.0000000          :
          :  -> integral cutoff          0.2500000E+02      :
          :  -> integral neglect         0.1000000E-07      :
          :  -> SCF convergence          0.1000000E-05 Eh   :
          :  -> wf. convergence          0.1000000E-03 e    :
          :  Broyden damping             0.4000000          :
          ...................................................

 iter      E             dE          RMSdq      gap      omega  full diag
   1    -30.8499981 -0.308500E+02  0.512E+00    5.49       0.0  T
   2    -30.8852231 -0.352250E-01  0.248E+00    4.95       1.0  T
   3    -30.8982385 -0.130154E-01  0.113E+00    2.89       1.0  T
   4    -30.9000583 -0.181987E-02  0.516E-01    3.09       1.0  T
   5    -30.9008144 -0.756077E-03  0.345E-01    2.98       1.0  T
   6    -30.9011153 -0.300867E-03  0.199E-01    3.03       1.0  T
   7    -30.9012674 -0.152131E-03  0.807E-02    3.04       1.0  T
   8    -30.9012857 -0.182777E-04  0.493E-02    3.03       1.0  T
   9    -30.9012910 -0.533736E-05  0.248E-02    2.99       1.0  T
  10    -30.9012932 -0.211723E-05  0.103E-02    2.99       2.0  T
  11    -30.9012933 -0.156979E-06  0.701E-03    2.99       3.0  T
  12    -30.9012934 -0.103170E-06  0.452E-03    2.99       4.6  T
  13    -30.9012935 -0.706777E-07  0.157E-03    2.99      13.3  T
  14    -30.9012935 -0.779799E-08  0.880E-04    2.99      23.7  T
  15    -30.9012935 -0.315906E-08  0.807E-05    2.99     258.5  T

   *** convergence criteria satisfied after 15 iterations ***

         #    Occupation            Energy/Eh            Energy/eV
      -------------------------------------------------------------
         1        2.0000           -0.8311566             -22.6169
       ...           ...                  ...                  ...
        22        2.0000           -0.4255741             -11.5805
        23        2.0000           -0.4240505             -11.5390
        24        2.0000           -0.4223264             -11.4921
        25        2.0000           -0.3984841             -10.8433
        26        2.0000           -0.3958175             -10.7707
        27        2.0000           -0.3165988              -8.6151
        28        2.0000           -0.3148382              -8.5672 (HOMO)
        29                         -0.2049737              -5.5776 (LUMO)
        30                          0.0391972               1.0666
        31                          0.0465924               1.2678
        32                          0.0539883               1.4691
        33                          0.0627333               1.7071
       ...                                ...                  ...
        55                          0.3987798              10.8514
      -------------------------------------------------------------
                  HL-Gap            0.1098645 Eh            2.9896 eV
             Fermi-level           -0.2599060 Eh           -7.0724 eV

 SCC (total)                   0 d,  0 h,  0 min,  0.038 sec
 SCC setup                      ...        0 min,  0.002 sec (  5.643%)
 Dispersion                     ...        0 min,  0.001 sec (  2.538%)
 classical contributions        ...        0 min,  0.001 sec (  2.891%)
 integral evaluation            ...        0 min,  0.006 sec ( 17.067%)
 iterations                     ...        0 min,  0.019 sec ( 50.493%)
 molecular gradient             ...        0 min,  0.007 sec ( 19.823%)
 printout                       ...        0 min,  0.001 sec (  1.494%)

         :::::::::::::::::::::::::::::::::::::::::::::::::::::
         ::                     SUMMARY                     ::
         :::::::::::::::::::::::::::::::::::::::::::::::::::::
         :: total energy             -30.580978359498 Eh    ::
         :: total w/o Gsasa/hb       -30.569505788049 Eh    ::
         :: gradient norm              0.000164634518 Eh/a0 ::
         :: HOMO-LUMO gap              2.989565484787 eV    ::
         ::.................................................::
         :: SCC energy               -30.901293493404 Eh    ::
         :: -> isotropic ES            0.218337506406 Eh    ::
         :: -> anisotropic ES         -0.015780268874 Eh    ::
         :: -> anisotropic XC         -0.010338296983 Eh    ::
         :: -> dispersion             -0.018949679266 Eh    ::
         :: -> Gsolv                  -0.118127548322 Eh    ::
         ::    -> Gborn               -0.106654976873 Eh    ::
         ::    -> Gsasa               -0.012445880341 Eh    ::
         ::    -> Ghb                 -0.002383620630 Eh    ::
         ::    -> Gshift               0.003356929523 Eh    ::
         :: repulsion energy           0.320145272361 Eh    ::
         :: add. restraining           0.000000000000 Eh    ::
         :: total charge              -1.000000000000 e     ::
         :::::::::::::::::::::::::::::::::::::::::::::::::::::

           -------------------------------------------------
          |                Property Printout                |
           -------------------------------------------------

    * Orbital Energies and Occupations

         #    Occupation            Energy/Eh            Energy/eV
      -------------------------------------------------------------
         1        2.0000           -0.8311566             -22.6169
       ...           ...                  ...                  ...
        16        2.0000           -0.4803754             -13.0717
        17        2.0000           -0.4727123             -12.8632
        18        2.0000           -0.4715405             -12.8313
        19        2.0000           -0.4531060             -12.3296
        20        2.0000           -0.4433212             -12.0634
        21        2.0000           -0.4416420             -12.0177
        22        2.0000           -0.4255741             -11.5805
        23        2.0000           -0.4240505             -11.5390
        24        2.0000           -0.4223264             -11.4921
        25        2.0000           -0.3984841             -10.8433
        26        2.0000           -0.3958175             -10.7707
        27        2.0000           -0.3165988              -8.6151
        28        2.0000           -0.3148382              -8.5672 (HOMO)
        29                         -0.2049737              -5.5776 (LUMO)
        30                          0.0391972               1.0666
        31                          0.0465924               1.2678
        32                          0.0539883               1.4691
        33                          0.0627333               1.7071
        34                          0.0860466               2.3414
        35                          0.0922035               2.5090
        36                          0.0949457               2.5836
        37                          0.1133586               3.0846
        38                          0.1153088               3.1377
        39                          0.1282877               3.4909
       ...                                ...                  ...
        55                          0.3987798              10.8514
      -------------------------------------------------------------
                  HL-Gap            0.1098645 Eh            2.9896 eV
             Fermi-level           -0.2599060 Eh           -7.0724 eV

     #   Z          covCN         q      C6AA      α(0)
     1   6 C        3.809    -0.052    21.505     6.601
     2   6 C        3.806    -0.060    21.649     6.624
     3   6 C        3.885    -0.045    21.332     6.566
     4   1 H        0.924     0.050     2.322     2.383
     5   6 C        3.809    -0.055    21.552     6.608
     6   1 H        0.924     0.026     2.651     2.546
     7   1 H        0.924     0.047     2.361     2.403
     8   6 C        3.886    -0.042    21.278     6.558
     9   1 H        0.924     0.048     2.345     2.395
    10   1 H        0.924     0.039     2.461     2.453
    11   6 C        3.800     0.062    19.541     6.294
    12   1 H        0.924     0.046     2.374     2.409
    13   1 H        0.924     0.019     2.756     2.596
    14   1 H        0.924     0.026     2.645     2.543
    15   1 H        0.924     0.043     2.409     2.427
    16   1 H        0.924     0.022     2.709     2.574
    17   1 H        0.924     0.040     2.448     2.447
    18  35 Br       1.073    -0.242   191.816    22.331
    19   8 O        0.855    -0.824    32.313     7.621
    20   6 C        3.605     0.205    17.850     6.106
    21   1 H        0.917    -0.118     6.224     3.902
    22   1 H        0.917    -0.114     6.080     3.857
    23   1 H        0.916    -0.119     6.283     3.920

 Mol. C6AA /au·bohr⁶  :       5778.426745
 Mol. C8AA /au·bohr⁸  :     153846.093357
 Mol. α(0) /au        :        114.165761


Wiberg/Mayer (AO) data.
largest (>0.10) Wiberg bond orders for each atom

 ---------------------------------------------------------------------------
     #   Z sym  total        # sym  WBO       # sym  WBO       # sym  WBO
 ---------------------------------------------------------------------------
     1   6 C    3.997 --     2 C    1.010     8 C    0.998    16 H    0.978
                            17 H    0.975
     2   6 C    3.997 --     5 C    1.010     1 C    1.010    10 H    0.977
                             9 H    0.976
     3   6 C    3.996 --    11 C    1.012     5 C    0.998     6 H    0.978
                             7 H    0.975
     4   1 H    0.998 --    11 C    0.944
     5   6 C    3.997 --     2 C    1.010     3 C    0.998    14 H    0.978
                            15 H    0.975
     6   1 H    0.999 --     3 C    0.978
     7   1 H    0.998 --     3 C    0.975
     8   6 C    3.997 --    11 C    1.013     1 C    0.998    13 H    0.979
                            12 H    0.975
     9   1 H    0.998 --     2 C    0.976
    10   1 H    0.998 --     2 C    0.977
    11   6 C    3.928 --     8 C    1.013     3 C    1.012     4 H    0.944
                            18 Br   0.902
    12   1 H    0.998 --     8 C    0.975
    13   1 H    1.000 --     8 C    0.979
    14   1 H    0.999 --     5 C    0.978
    15   1 H    0.998 --     5 C    0.975
    16   1 H    1.000 --     1 C    0.978
    17   1 H    0.998 --     1 C    0.975
    18  35 Br   0.965 --    11 C    0.902
    19   8 O    1.367 --    20 C    1.164
    20   6 C    3.977 --    19 O    1.164    22 H    0.939    21 H    0.937
                            23 H    0.936
    21   1 H    0.986 --    20 C    0.937
    22   1 H    0.987 --    20 C    0.939
    23   1 H    0.986 --    20 C    0.936
 ---------------------------------------------------------------------------

Topologies differ in total number of bonds
Writing topology from bond orders to xtbtopo.mol

molecular dipole:
                 x           y           z       tot (Debye)
 q only:       -5.291      -0.475       7.777
   full:       -3.989      -0.606       7.373      21.363
molecular quadrupole (traceless):
                xx          xy          yy          xz          yz          zz
 q only:      -10.900      -4.566      45.686      64.602       4.351     -34.787
  q+dip:      -15.327      -6.080      44.538      49.751       5.297     -29.210
   full:      -14.639      -6.144      44.183      51.112       5.731     -29.544


           -------------------------------------------------
          | TOTAL ENERGY              -30.580978359498 Eh   |
          | GRADIENT NORM               0.000164634518 Eh/α |
          | HOMO-LUMO GAP               2.989565484787 eV   |
           -------------------------------------------------

------------------------------------------------------------------------
 * finished run on 2021/11/10 at 00:44:03.447     
------------------------------------------------------------------------
 total:
 * wall-time:     0 d,  0 h,  0 min,  0.059 sec
 *  cpu-time:     0 d,  0 h,  0 min,  0.448 sec
 * ratio c/w:     7.648 speedup
 SCF:
 * wall-time:     0 d,  0 h,  0 min,  0.038 sec
 *  cpu-time:     0 d,  0 h,  0 min,  0.278 sec
 * ratio c/w:     7.284 speedup


-------------------------   --------------------
FINAL SINGLE POINT ENERGY       -30.580978359500
-------------------------   --------------------

                                *** OPTIMIZATION RUN DONE ***

---------------------------------------------------------------
                        PRODUCT OPTIMIZATION            
---------------------------------------------------------------

Geometry optimization settings:
Update method            Update   .... BFGS
Choice of coordinates    CoordSys .... Z-matrix Internals
Initial Hessian          InHess   .... Almoef's Model

Convergence Tolerances:
Energy Change            TolE     ....  5.0000e-06 Eh
Max. Gradient            TolMAXG  ....  3.0000e-04 Eh/bohr
RMS Gradient             TolRMSG  ....  1.0000e-04 Eh/bohr
Max. Displacement        TolMAXD  ....  4.0000e-03 bohr
RMS Displacement         TolRMSD  ....  2.0000e-03 bohr
Strict Convergence                ....  False
------------------------------------------------------------------------------
                        ORCA OPTIMIZATION COORDINATE SETUP
------------------------------------------------------------------------------

The optimization will be done in new redundant internal coordinates
Making redundant internal coordinates   ...  (new redundants) done
Evaluating the initial hessian          ...  (Almloef) done
Evaluating the coordinates              ...  done
Calculating the B-matrix                .... done
Calculating the G-matrix                .... done
Diagonalizing the G-matrix              .... done
Small eigenvalue found = 2.195e-02
The first mode is                       ....  123
The number of degrees of freedom        ....   63

    -----------------------------------------------------------------
                    Redundant Internal Coordinates


    -----------------------------------------------------------------
         Definition                    Initial Value    Approx d2E/dq
    -----------------------------------------------------------------
      1. B(C   1,C   0)                  1.5235         0.382553   
      2. B(C   4,C   2)                  1.5283         0.375976   
      3. B(C   4,C   1)                  1.5235         0.382573   
      4. B(H   5,C   2)                  1.0928         0.356402   
      5. B(H   6,C   2)                  1.0932         0.355891   
      6. B(C   7,C   0)                  1.5283         0.375897   
      7. B(H   8,C   1)                  1.0930         0.356128   
      8. B(H   9,C   1)                  1.0919         0.357634   
      9. B(C  10,C   2)                  1.5407         0.359179   
     10. B(C  10,C   7)                  1.5397         0.360452   
     11. B(C  10,H   3)                  1.0998         0.347428   
     12. B(H  11,C   7)                  1.0932         0.355895   
     13. B(H  12,C   7)                  1.0928         0.356396   
     14. B(H  13,C   4)                  1.0910         0.358745   
     15. B(H  14,C   4)                  1.0926         0.356736   
     16. B(H  15,C   0)                  1.0909         0.358901   
     17. B(H  16,C   0)                  1.0925         0.356824   
     18. B(Br 17,H  11)                  4.3870         0.000007   
     19. B(Br 17,C  10)                  5.1912         0.000002   
     20. B(Br 17,C   7)                  5.3075         0.000001   
     21. B(Br 17,H   6)                  4.3238         0.000008   
     22. B(Br 17,H   3)                  4.4130         0.000006   
     23. B(Br 17,C   2)                  5.2614         0.000001   
     24. B(Br 17,H   8)                  5.2400         0.000000   
     25. B(O  18,C  10)                  1.4239         0.493984   
     26. B(C  19,O  18)                  1.4127         0.514918   
     27. B(H  20,C  19)                  1.0896         0.360682   
     28. B(H  21,C  19)                  1.0929         0.356345   
     29. B(H  22,C  19)                  1.0932         0.355906   
     30. A(C   1,C   0,C   7)          110.5430         0.365217   
     31. A(C   7,C   0,H  16)          108.3451         0.324162   
     32. A(C   1,C   0,H  15)          109.0721         0.325409   
     33. A(H  15,C   0,H  16)          107.8492         0.290270   
     34. A(C   1,C   0,H  16)          110.0606         0.325098   
     35. A(C   7,C   0,H  15)          110.9281         0.324471   
     36. A(C   4,C   1,H   9)          110.0722         0.325222   
     37. A(H   8,C   1,H   9)          108.2482         0.290020   
     38. A(C   4,C   1,H   8)          109.4733         0.324997   
     39. A(C   0,C   1,H   8)          109.5015         0.324994   
     40. A(C   0,C   1,C   4)          109.4390         0.366320   
     41. A(C   0,C   1,H   9)          110.0868         0.325219   
     42. A(C   4,C   2,H   5)          110.5020         0.324110   
     43. A(H   5,C   2,H   6)          107.3496         0.289833   
     44. A(H   5,C   2,Br 17)          115.0227         0.104058   
     45. A(H   6,C   2,C  10)          106.5940         0.321615   
     46. A(H   5,C   2,C  10)          108.0710         0.321691   
     47. A(C  10,C   2,Br 17)           78.9468         0.106441   
     48. A(H   6,C   2,Br 17)           27.7320         0.104053   
     49. A(C   4,C   2,H   6)          108.2133         0.324034   
     50. A(C   4,C   2,Br 17)          124.0031         0.106623   
     51. A(C   4,C   2,C  10)          115.7437         0.361317   
     52. A(C   2,C   4,H  13)          110.8738         0.324459   
     53. A(C   1,C   4,H  14)          110.0574         0.325088   
     54. A(H  13,C   4,H  14)          107.7818         0.290239   
     55. A(C   1,C   4,C   2)          110.6221         0.365234   
     56. A(C   1,C   4,H  13)          109.1376         0.325388   
     57. A(C   2,C   4,H  14)          108.3206         0.324160   
     58. A(H  12,C   7,Br 17)          116.2525         0.103492   
     59. A(H  11,C   7,Br 17)           29.3039         0.103487   
     60. A(C  10,C   7,Br 17)           77.3027         0.105799   
     61. A(C   0,C   7,Br 17)          123.8581         0.105959   
     62. A(H  11,C   7,H  12)          107.3443         0.289833   
     63. A(C  10,C   7,H  12)          108.1742         0.321876   
     64. A(C   0,C   7,H  12)          110.5547         0.324098   
     65. A(C  10,C   7,H  11)          106.5751         0.321802   
     66. A(C   0,C   7,H  11)          108.2527         0.324023   
     67. A(C   0,C   7,C  10)          115.5782         0.361522   
     68. A(C   2,C  10,H   3)          106.7468         0.320352   
     69. A(Br 17,C  10,O  18)          140.9029         0.108710   
     70. A(C   7,C  10,Br 17)           85.8781         0.107506   
     71. A(H   3,C  10,Br 17)           40.4968         0.104873   
     72. A(C   2,C  10,Br 17)           84.1181         0.107491   
     73. A(H   3,C  10,C   7)          106.9044         0.320537   
     74. A(C   7,C  10,O  18)          114.5407         0.376519   
     75. A(H   3,C  10,O  18)          100.4313         0.335609   
     76. A(C   2,C  10,O  18)          114.2606         0.376289   
     77. A(C   2,C  10,C   7)          112.6009         0.358730   
     78. A(C   7,Br 17,C  10)           16.8193         0.090152   
     79. A(C   2,Br 17,C  10)           16.9350         0.090197   
     80. A(C   2,Br 17,C   7)           28.0619         0.090086   
     81. A(C  10,O  18,C  19)          118.7214         0.398126   
     82. A(H  21,C  19,H  22)          109.8996         0.289828   
[...]
  16:       299.65    0.000000  (  0.000000   0.000000   0.000000)
  17:       363.07    0.000000  (  0.000000   0.000000   0.000000)
  18:       426.27    0.000000  (  0.000000   0.000000   0.000000)
  19:       446.30    0.000000  (  0.000000   0.000000   0.000000)
  20:       582.43    0.000000  (  0.000000   0.000000   0.000000)
  21:       801.04    0.000000  (  0.000000   0.000000   0.000000)
  22:       858.16    0.000000  (  0.000000   0.000000   0.000000)
  23:       889.72    0.000000  (  0.000000   0.000000   0.000000)
  24:       926.60    0.000000  (  0.000000   0.000000   0.000000)
  25:       929.24    0.000000  (  0.000000   0.000000   0.000000)
  26:       956.86    0.000000  (  0.000000   0.000000   0.000000)
  27:       989.34    0.000000  (  0.000000   0.000000   0.000000)
  28:      1074.50    0.000000  (  0.000000   0.000000   0.000000)
  29:      1084.21    0.000000  (  0.000000   0.000000   0.000000)
  30:      1090.06    0.000000  (  0.000000   0.000000   0.000000)
  31:      1098.57    0.000000  (  0.000000   0.000000   0.000000)
  32:      1118.71    0.000000  (  0.000000   0.000000   0.000000)
  33:      1131.40    0.000000  (  0.000000   0.000000   0.000000)
  34:      1145.93    0.000000  (  0.000000   0.000000   0.000000)
  35:      1161.55    0.000000  (  0.000000   0.000000   0.000000)
  36:      1164.32    0.000000  (  0.000000   0.000000   0.000000)
  37:      1170.56    0.000000  (  0.000000   0.000000   0.000000)
  38:      1244.36    0.000000  (  0.000000   0.000000   0.000000)
  39:      1254.83    0.000000  (  0.000000   0.000000   0.000000)
  40:      1270.78    0.000000  (  0.000000   0.000000   0.000000)
  41:      1288.45    0.000000  (  0.000000   0.000000   0.000000)
  42:      1325.59    0.000000  (  0.000000   0.000000   0.000000)
  43:      1327.36    0.000000  (  0.000000   0.000000   0.000000)
  44:      1339.51    0.000000  (  0.000000   0.000000   0.000000)
  45:      1346.37    0.000000  (  0.000000   0.000000   0.000000)
  46:      1353.77    0.000000  (  0.000000   0.000000   0.000000)
  47:      1444.77    0.000000  (  0.000000   0.000000   0.000000)
  48:      1455.88    0.000000  (  0.000000   0.000000   0.000000)
  49:      1462.83    0.000000  (  0.000000   0.000000   0.000000)
  50:      1468.36    0.000000  (  0.000000   0.000000   0.000000)
  51:      1473.05    0.000000  (  0.000000   0.000000   0.000000)
  52:      1489.54    0.000000  (  0.000000   0.000000   0.000000)
  53:      1515.32    0.000000  (  0.000000   0.000000   0.000000)
  54:      1525.83    0.000000  (  0.000000   0.000000   0.000000)
  55:      2526.01    0.000000  (  0.000000   0.000000   0.000000)
  56:      2592.81    0.000000  (  0.000000   0.000000   0.000000)
  57:      2703.04    0.000000  (  0.000000   0.000000   0.000000)
  58:      2935.44    0.000000  (  0.000000   0.000000   0.000000)
  59:      2936.53    0.000000  (  0.000000   0.000000   0.000000)
  60:      2946.00    0.000000  (  0.000000   0.000000   0.000000)
  61:      2957.40    0.000000  (  0.000000   0.000000   0.000000)
  62:      2960.80    0.000000  (  0.000000   0.000000   0.000000)
  63:      2964.53    0.000000  (  0.000000   0.000000   0.000000)
  64:      2971.21    0.000000  (  0.000000   0.000000   0.000000)
  65:      2974.56    0.000000  (  0.000000   0.000000   0.000000)
  66:      3006.05    0.000000  (  0.000000   0.000000   0.000000)
  67:      3022.04    0.000000  (  0.000000   0.000000   0.000000)
  68:      3178.54    0.000000  (  0.000000   0.000000   0.000000)

The first frequency considered to be a vibration is 7
The total number of vibrations considered is 62


--------------------------
THERMOCHEMISTRY AT 298.15K
--------------------------

Temperature         ... 298.15 K
Pressure            ... 1.00 atm
Total Mass          ... 194.09 AMU

Throughout the following assumptions are being made:
  (1) The electronic state is orbitally nondegenerate
  (2) There are no thermally accessible electronically excited states
  (3) Hindered rotations indicated by low frequency modes are not
      treated as such but are treated as vibrations and this may
      cause some error
  (4) All equations used are the standard statistical mechanics
      equations for an ideal gas
  (5) All vibrations are strictly harmonic

freq.      22.43  E(vib)   ...       0.56 
freq.      93.72  E(vib)   ...       0.47 
freq.      95.58  E(vib)   ...       0.47 
freq.     110.84  E(vib)   ...       0.45 
freq.     154.06  E(vib)   ...       0.40 
freq.     162.14  E(vib)   ...       0.39 
freq.     172.89  E(vib)   ...       0.38 
freq.     224.09  E(vib)   ...       0.33 
freq.     236.34  E(vib)   ...       0.32 
freq.     299.65  E(vib)   ...       0.26 
freq.     363.07  E(vib)   ...       0.22 
freq.     426.27  E(vib)   ...       0.18 
freq.     446.30  E(vib)   ...       0.17 
freq.     582.43  E(vib)   ...       0.11 
freq.     801.04  E(vib)   ...       0.05 
freq.     858.16  E(vib)   ...       0.04 
freq.     889.72  E(vib)   ...       0.04 
freq.     926.60  E(vib)   ...       0.03 
freq.     929.24  E(vib)   ...       0.03 
freq.     956.86  E(vib)   ...       0.03 
freq.     989.34  E(vib)   ...       0.02 
freq.    1074.50  E(vib)   ...       0.02 
freq.    1084.21  E(vib)   ...       0.02 
freq.    1090.06  E(vib)   ...       0.02 
freq.    1098.57  E(vib)   ...       0.02 
freq.    1118.71  E(vib)   ...       0.01 
freq.    1131.40  E(vib)   ...       0.01 
freq.    1145.93  E(vib)   ...       0.01 
freq.    1161.55  E(vib)   ...       0.01 
freq.    1164.32  E(vib)   ...       0.01 
freq.    1170.56  E(vib)   ...       0.01 
freq.    1244.36  E(vib)   ...       0.01 
freq.    1254.83  E(vib)   ...       0.01 
freq.    1270.78  E(vib)   ...       0.01 
freq.    1288.45  E(vib)   ...       0.01 
freq.    1325.59  E(vib)   ...       0.01 
freq.    1327.36  E(vib)   ...       0.01 
freq.    1339.51  E(vib)   ...       0.01 
freq.    1346.37  E(vib)   ...       0.01 
freq.    1353.77  E(vib)   ...       0.01 
freq.    1444.77  E(vib)   ...       0.00 
freq.    1455.88  E(vib)   ...       0.00 
freq.    1462.83  E(vib)   ...       0.00 
freq.    1468.36  E(vib)   ...       0.00 
freq.    1473.05  E(vib)   ...       0.00 
freq.    1489.54  E(vib)   ...       0.00 
freq.    1515.32  E(vib)   ...       0.00 
freq.    1525.83  E(vib)   ...       0.00 
freq.    2526.01  E(vib)   ...       0.00 
freq.    2592.81  E(vib)   ...       0.00 
freq.    2703.04  E(vib)   ...       0.00 
freq.    2935.44  E(vib)   ...       0.00 
freq.    2936.53  E(vib)   ...       0.00 
freq.    2946.00  E(vib)   ...       0.00 
freq.    2957.40  E(vib)   ...       0.00 
freq.    2960.80  E(vib)   ...       0.00 
freq.    2964.53  E(vib)   ...       0.00 
freq.    2971.21  E(vib)   ...       0.00 
freq.    2974.56  E(vib)   ...       0.00 
freq.    3006.05  E(vib)   ...       0.00 
freq.    3022.04  E(vib)   ...       0.00 
freq.    3178.54  E(vib)   ...       0.00 

------------
INNER ENERGY
------------

The inner energy is: U= E(el) + E(ZPE) + E(vib) + E(rot) + E(trans)
    E(el)   - is the total energy from the electronic structure calculation
              = E(kin-el) + E(nuc-el) + E(el-el) + E(nuc-nuc)
    E(ZPE)  - the the zero temperature vibrational energy from the frequency calculation
    E(vib)  - the the finite temperature correction to E(ZPE) due to population
              of excited vibrational states
    E(rot)  - is the rotational thermal energy
    E(trans)- is the translational thermal energy

Summary of contributions to the inner energy U:
Electronic energy                ...    -30.55225044 Eh
Zero point energy                ...      0.19419596 Eh     121.86 kcal/mol
Thermal vibrational correction   ...      0.00822885 Eh       5.16 kcal/mol
Thermal rotational correction    ...      0.00141627 Eh       0.89 kcal/mol
Thermal translational correction ...      0.00141627 Eh       0.89 kcal/mol
-----------------------------------------------------------------------
Total thermal energy                    -30.34699309 Eh


Summary of corrections to the electronic energy:
(perhaps to be used in another calculation)
Total thermal correction                  0.01106139 Eh       6.94 kcal/mol
Non-thermal (ZPE) correction              0.19419596 Eh     121.86 kcal/mol
-----------------------------------------------------------------------
Total correction                          0.20525735 Eh     128.80 kcal/mol


--------
ENTHALPY
--------

The enthalpy is H = U + kB*T
                kB is Boltzmann's constant
Total free energy                 ...    -30.34699309 Eh 
Thermal Enthalpy correction       ...      0.00094421 Eh       0.59 kcal/mol
-----------------------------------------------------------------------
Total Enthalpy                    ...    -30.34604888 Eh


Note: Only C1 symmetry has been detected, increase convergence thresholds 
      if your molecule has a higher symmetry. Symmetry factor of 1.0 is   
      used for the rotational entropy correction. 
 

Note: Rotational entropy computed according to Herzberg 
Infrared and Raman Spectra, Chapter V,1, Van Nostrand Reinhold, 1945 
Point Group:  C1, Symmetry Number:   1  
Rotational constants in cm-1:     0.045202     0.021354     0.017618 

Vibrational entropy computed according to the QRRHO of S. Grimme
Chem.Eur.J. 2012 18 9955


-------
ENTROPY
-------

The entropy contributions are T*S = T*(S(el)+S(vib)+S(rot)+S(trans))
     S(el)   - electronic entropy
     S(vib)  - vibrational entropy
     S(rot)  - rotational entropy
     S(trans)- translational entropy
The entropies will be listed as mutliplied by the temperature to get
units of energy

Electronic entropy                ...      0.00000000 Eh      0.00 kcal/mol
Vibrational entropy               ...      0.01503817 Eh      9.44 kcal/mol
Rotational entropy                ...      0.01469528 Eh      9.22 kcal/mol
Translational entropy             ...      0.01981043 Eh     12.43 kcal/mol
-----------------------------------------------------------------------
Final entropy term                ...      0.04954387 Eh     31.09 kcal/mol

In case the symmetry of your molecule has not been determined correctly
or in case you have a reason to use a different symmetry number we print 
out the resulting rotational entropy values for sn=1,12 :
 --------------------------------------------------------
|  sn= 1 | S(rot)=       0.01469528 Eh      9.22 kcal/mol|
|  sn= 2 | S(rot)=       0.01404082 Eh      8.81 kcal/mol|
|  sn= 3 | S(rot)=       0.01365799 Eh      8.57 kcal/mol|
|  sn= 4 | S(rot)=       0.01338636 Eh      8.40 kcal/mol|
|  sn= 5 | S(rot)=       0.01317567 Eh      8.27 kcal/mol|
|  sn= 6 | S(rot)=       0.01300353 Eh      8.16 kcal/mol|
|  sn= 7 | S(rot)=       0.01285798 Eh      8.07 kcal/mol|
|  sn= 8 | S(rot)=       0.01273191 Eh      7.99 kcal/mol|
|  sn= 9 | S(rot)=       0.01262070 Eh      7.92 kcal/mol|
|  sn=10 | S(rot)=       0.01252122 Eh      7.86 kcal/mol|
|  sn=11 | S(rot)=       0.01243123 Eh      7.80 kcal/mol|
|  sn=12 | S(rot)=       0.01234907 Eh      7.75 kcal/mol|
 --------------------------------------------------------


-------------------
GIBBS FREE ENERGY
-------------------

The Gibbs free energy is G = H - T*S

Total enthalpy                    ...    -30.34604888 Eh 
Total entropy correction          ...     -0.04954387 Eh    -31.09 kcal/mol
-----------------------------------------------------------------------
Final Gibbs free energy         ...    -30.39559275 Eh

For completeness - the Gibbs free energy minus the electronic energy
G-E(el)                           ...      0.15665769 Eh     98.30 kcal/mol


Total Time for Numerical Frequencies  :        47.621 sec



------------------------------------------------------------------------------- 
                    Intrinsic Reaction Coordinate Calculation                  
------------------------------------------------------------------------------- 

System:
Nr. of atoms                        .... 23
Algorithm: SD (steepest descent step) plus correction
Settings:
Max. no of cycles        MaxIter    .... 20
Direction                           .... Forward and backward
Initial displacement Hessian type   .... Read
Hessian Filename                    .... optts+numfreq_TSOpt.hess
Following Hessian mode              .... 0
Initial displacement type           .... Energy
  Initial displacement energy change.... 2.000 mEh
Coordinate system following type    .... Cartesian
Length of steepest descent step     .... 0.150 bohr
Do parabolic fit 
  if SD step is uphill              .... YES
Do Correction to SD step            .... YES
Scaling for length of correction
  compared to SD step               .... 0.333
Do parabolic fit to SD correction   .... YES
Only interpolate for parabolic fit  .... YES
Do update to length of
  SD step and correction            .... YES
Convergence Tolerances:
  Max. Gradient            TolMAXG  ....  2.0000e-03 Eh/bohr
  RMS Gradient             TolRMSG  ....  5.0000e-04 Eh/bohr
Storing full IRC trajectory in      .... optts+numfreq_TSOpt_IRC_Full_trj.xyz
Storing forward trajectory in       .... optts+numfreq_TSOpt_IRC_F_trj.xyz
Storing backward trajectory in      .... optts+numfreq_TSOpt_IRC_B_trj.xyz


 ...good, the file optts+numfreq_TSOpt.hess exists
Reading the hessian file           ...... done
Determining length of initial displacement:
  Requested energy change (quadratic behavior): 2.000 mEh
  Resulting scaling factor for initial displacement along normalized TS mode: 0.3071

         *************************************************************
         *                          FORWARD IRC                      *
         *************************************************************

Iteration    E(Eh)      dE(kcal/mol)  max(|G|)   RMS(G) 
Convergence thresholds                0.002000  0.000500            
    0       -30.554501   -1.412505    0.014397  0.003076
    1       -30.558747   -4.076435    0.022597  0.004321
    2       -30.565632   -8.397349    0.029386  0.006571
    3       -30.574195   -13.770540    0.037121  0.007644
    4       -30.584620   -20.312096    0.037853  0.008851
    5       -30.595345   -27.041875    0.040904  0.008755
    6       -30.605892   -33.660634    0.034616  0.008063
    7       -30.615022   -39.389900    0.019467  0.006614
    8       -30.622243   -43.921068    0.017760  0.005258
    9       -30.628202   -47.660178    0.016213  0.004452
   10       -30.633138   -50.757328    0.014676  0.003890
   11       -30.637021   -53.194169    0.013275  0.003081
   12       -30.640295   -55.248676    0.011696  0.002514
   13       -30.642807   -56.824782    0.010173  0.001924
   14       -30.644796   -58.073259    0.008578  0.001477
   15       -30.646345   -59.045054    0.007072  0.001167
   16       -30.647586   -59.823887    0.005710  0.000980
   17       -30.648588   -60.452410    0.004670  0.000969
   18       -30.648796   -60.583431    0.004467  0.000900
   19       -30.648981   -60.699319    0.004291  0.000790

         *************************************************************
         *  MAXIMUM NUMBER OF ITERATIONS REACHED - STOPPING IRC RUN  *
         *************************************************************


         *************************************************************
         *                          BACKWARD IRC                     *
         *************************************************************

Iteration    E(Eh)      dE(kcal/mol)  max(|G|)   RMS(G) 
Convergence thresholds                0.002000  0.000500            
    0       -30.553871   -1.016970    0.011438  0.002140
    1       -30.556290   -2.534804    0.011855  0.002325
    2       -30.559117   -4.308637    0.011249  0.002305
    3       -30.561634   -5.888492    0.006251  0.001920
    4       -30.563643   -7.148850    0.004938  0.001614
    5       -30.565450   -8.282691    0.004900  0.001436
    6       -30.567062   -9.294206    0.003825  0.001318
    7       -30.568464   -10.174213    0.004354  0.001280
    8       -30.569599   -10.886489    0.004305  0.001434
    9       -30.569940   -11.100563    0.002855  0.001181
   10       -30.570481   -11.439562    0.003178  0.000983
   11       -30.571059   -11.802826    0.002557  0.000931
   12       -30.571616   -12.151959    0.002692  0.000890
   13       -30.572147   -12.485371    0.002320  0.000849
   14       -30.572657   -12.805223    0.002316  0.000815
   15       -30.573144   -13.110677    0.002284  0.000782
   16       -30.573609   -13.402913    0.002252  0.000754
   17       -30.574052   -13.680889    0.002209  0.000735
   18       -30.574469   -13.942587    0.002153  0.000721
   19       -30.574858   -14.186454    0.002113  0.000745

         *************************************************************
         *  MAXIMUM NUMBER OF ITERATIONS REACHED - STOPPING IRC RUN  *
         *************************************************************


---------------------------------------------------------------
                       IRC PATH SUMMARY              
---------------------------------------------------------------
All gradients are in Eh/Bohr.

Step        E(Eh)      dE(kcal/mol)  max(|G|)   RMS(G) 
   1       -30.574858   -14.186454    0.002113  0.000745
   2       -30.574469   -13.942587    0.002153  0.000721
   3       -30.574052   -13.680889    0.002209  0.000735
   4       -30.573609   -13.402913    0.002252  0.000754
   5       -30.573144   -13.110677    0.002284  0.000782
   6       -30.572657   -12.805223    0.002316  0.000815
   7       -30.572147   -12.485371    0.002320  0.000849
   8       -30.571616   -12.151959    0.002692  0.000890
   9       -30.571059   -11.802826    0.002557  0.000931
  10       -30.570481   -11.439562    0.003178  0.000983
  11       -30.569940   -11.100563    0.002855  0.001181
  12       -30.569599   -10.886489    0.004305  0.001434
  13       -30.568464   -10.174213    0.004354  0.001280
  14       -30.567062   -9.294206    0.003825  0.001318
  15       -30.565450   -8.282691    0.004900  0.001436
  16       -30.563643   -7.148850    0.004938  0.001614
  17       -30.561634   -5.888492    0.006251  0.001920
  18       -30.559117   -4.308637    0.011249  0.002305
  19       -30.556290   -2.534804    0.011855  0.002325
  20       -30.553871   -1.016970    0.011438  0.002140
  21       -30.552250    0.000000    0.000072  0.000020 <= TS
  22       -30.554501   -1.412505    0.014397  0.003076
  23       -30.558747   -4.076435    0.022597  0.004321
  24       -30.565632   -8.397349    0.029386  0.006571
  25       -30.574195   -13.770540    0.037121  0.007644
  26       -30.584620   -20.312096    0.037853  0.008851
  27       -30.595345   -27.041875    0.040904  0.008755
  28       -30.605892   -33.660634    0.034616  0.008063
  29       -30.615022   -39.389900    0.019467  0.006614
  30       -30.622243   -43.921068    0.017760  0.005258
  31       -30.628202   -47.660178    0.016213  0.004452
  32       -30.633138   -50.757328    0.014676  0.003890
  33       -30.637021   -53.194169    0.013275  0.003081
  34       -30.640295   -55.248676    0.011696  0.002514
  35       -30.642807   -56.824782    0.010173  0.001924
  36       -30.644796   -58.073259    0.008578  0.001477
  37       -30.646345   -59.045054    0.007072  0.001167
  38       -30.647586   -59.823887    0.005710  0.000980
  39       -30.648588   -60.452410    0.004670  0.000969
  40       -30.648796   -60.583431    0.004467  0.000900
  41       -30.648981   -60.699319    0.004291  0.000790

Timings for individual modules:

Sum of individual times         ...      342.419 sec (=   5.707 min)
Geometry relaxation             ...        8.070 sec (=   0.134 min)   2.4 %
XTB module                      ...       14.606 sec (=   0.243 min)   4.3 %
                             ****ORCA TERMINATED NORMALLY****
TOTAL RUN TIME: 0 days 0 hours 27 minutes 25 seconds 700 msec
