(SLURM) JOB ID:         158

                                 *****************
                                 * O   R   C   A *
                                 *****************

           --- An Ab Initio, DFT and Semiempirical electronic structure package ---

                  #######################################################
                  #                        -***-                        #
                  #          Department of theory and spectroscopy      #
                  #               Directorship: Frank Neese             #
                  #        Max Planck Institute fuer Kohlenforschung    #
                  #                Kaiser Wilhelm Platz 1               #
                  #                 D-45470 Muelheim/Ruhr               #
                  #                      Germany                        #
                  #                                                     #
                  #                  All rights reserved                #
                  #                        -***-                        #
                  #######################################################


                         Program Version 4.2.1 -  RELEASE  -


 With contributions from (in alphabetic order):
   Daniel Aravena         : Magnetic Suceptibility
   Michael Atanasov       : Ab Initio Ligand Field Theory (pilot matlab implementation)
   Alexander A. Auer      : GIAO ZORA, VPT2
   Ute Becker             : Parallelization
   Giovanni Bistoni       : ED, misc. LED, open-shell LED, HFLD
   Martin Brehm           : Molecular dynamics
   Dmytro Bykov           : SCF Hessian
   Vijay G. Chilkuri      : MRCI spin determinant printing, contributions to CSF-ICE
   Dipayan Datta          : RHF DLPNO-CCSD density
   Achintya Kumar Dutta   : EOM-CC, STEOM-CC
   Dmitry Ganyushin       : Spin-Orbit,Spin-Spin,Magnetic field MRCI
   Miquel Garcia          : C-PCM Hessian, Gaussian charge scheme
   Yang Guo               : DLPNO-NEVPT2, CIM, IAO-localization
   Andreas Hansen         : Spin unrestricted coupled pair/coupled cluster methods
   Benjamin Helmich-Paris : CASSCF linear response (MC-RPA)
   Lee Huntington         : MR-EOM, pCC
   Robert Izsak           : Overlap fitted RIJCOSX, COSX-SCS-MP3, EOM
   Christian Kollmar      : KDIIS, OOCD, Brueckner-CCSD(T), CCSD density
   Simone Kossmann        : Meta GGA functionals, TD-DFT gradient, OOMP2, MP2 Hessian
   Martin Krupicka        : AUTO-CI
   Lucas Lang             : DCDCAS
   Dagmar Lenk            : GEPOL surface, SMD
   Dimitrios Liakos       : Extrapolation schemes; Compound Job, initial MDCI parallelization
   Dimitrios Manganas     : Further ROCIS development; embedding schemes
   Dimitrios Pantazis     : SARC Basis sets
   Taras Petrenko         : DFT Hessian,TD-DFT gradient, ASA, ECA, R-Raman, ABS, FL, XAS/XES, NRVS
   Peter Pinski           : DLPNO-MP2, DLPNO-MP2 Gradient
   Christoph Reimann      : Effective Core Potentials
   Marius Retegan         : Local ZFS, SOC
   Christoph Riplinger    : Optimizer, TS searches, QM/MM, DLPNO-CCSD(T), (RO)-DLPNO pert. Triples
   Tobias Risthaus        : Range-separated hybrids, TD-DFT gradient, RPA, STAB
   Michael Roemelt        : Original ROCIS implementation
   Masaaki Saitow         : Open-shell DLPNO-CCSD energy and density
   Barbara Sandhoefer     : DKH picture change effects
   Avijit Sen             : IP-ROCIS
   Kantharuban Sivalingam : CASSCF convergence, NEVPT2, FIC-MRCI
   Bernardo de Souza      : ESD, SOC TD-DFT
   Georgi Stoychev        : AutoAux, RI-MP2 NMR
   Willem Van den Heuvel  : Paramagnetic NMR
   Boris Wezisla          : Elementary symmetry handling
   Frank Wennmohs         : Technical directorship


 We gratefully acknowledge several colleagues who have allowed us to
 interface, adapt or use parts of their codes:
   Stefan Grimme, W. Hujo, H. Kruse,             : VdW corrections, initial TS optimization,
                  C. Bannwarth                     DFT functionals, gCP, sTDA/sTD-DF
   Ed Valeev, F. Pavosevic, A. Kumar             : LibInt (2-el integral package), F12 methods
   Garnet Chan, S. Sharma, J. Yang, R. Olivares  : DMRG
   Ulf Ekstrom                                   : XCFun DFT Library
   Mihaly Kallay                                 : mrcc  (arbitrary order and MRCC methods)
   Andreas Klamt, Michael Diedenhofen            : otool_cosmo (COSMO solvation model)
   Jiri Pittner, Ondrej Demel                    : Mk-CCSD
   Frank Weinhold                                : gennbo (NPA and NBO analysis)
   Christopher J. Cramer and Donald G. Truhlar   : smd solvation model
   Lars Goerigk                                  : TD-DFT with DH, B97 family of functionals
   V. Asgeirsson, H. Jonsson                     : NEB implementation
   FAccTs GmbH                                   : IRC, NEB, NEB-TS, Multilevel, MM, QM/MM, CI optimization
   S Lehtola, MJT Oliveira, MAL Marques          : LibXC Library


 Your calculation uses the libint2 library for the computation of 2-el integrals
 For citations please refer to: http://libint.valeyev.net

 Your ORCA version has been built with support for libXC version: 4.2.3
 For citations please refer to: https://tddft.org/programs/libxc/

 This ORCA versions uses:
   CBLAS   interface :  Fast vector & matrix operations
   LAPACKE interface :  Fast linear algebra routines
   SCALAPACK package :  Parallel linear algebra routines




***************************************
The coordinates will be read from file: init.xyz
***************************************


Your calculation utilizes the SMD solvation module
Please cite in your paper:
A.V. Marenich, C.J. Cramer, D.G. Truhlar J. Phys. Chem. B, 113, (2009), 6378 

Your calculation utilizes the semiempirical GFN2-xTB method
Please cite in your paper:
C. Bannwarth, Ehlert S., S. Grimme,  J. Chem. Theory Comput., 15, (2019), 1652.
   

----- Orbital basis set information -----
Your calculation utilizes the basis: def2-SVP
   F. Weigend and R. Ahlrichs, Phys. Chem. Chem. Phys. 7, 3297 (2005).

================================================================================
                                        WARNINGS
                       Please study these warnings very carefully!
================================================================================

WARNING: Gradients needed for Numerical Frequencies
  ===> : Setting RunTyp to EnGrad

WARNING: The environment variable RSH_COMMAND is not set!
  ===> : All Displacements for the Numerical Hessian calculation
         will be started on localhost

WARNING: Found dipole moment calculation with XTB calculation
  ===> : Switching off dipole moment calculation


INFO   : the flag for use of LIBINT has been found!

================================================================================
                                       INPUT FILE
================================================================================
NAME = /tmp/slurm-scratch/freq.158/freq.inp
|  1> ! XTB2 NumFreq
|  2> %maxcore 1450
|  3> 
|  4> * xyzfile 0 1 init.xyz
|  5> 
|  6> %cpcm
|  7>  smd true
|  8>  smdsolvent "ch2cl2"
|  9> end
| 10> %pal nprocs 8 end
| 11> 
| 12>                          ****END OF INPUT****
================================================================================

                     *******************************
                     * Energy+Gradient Calculation *
                     *******************************

      -----------------------------------------------------------      
     |                   =====================                   |     
     |                           x T B                           |     
     |                   =====================                   |     
     |                         S. Grimme                         |     
     |          Mulliken Center for Theoretical Chemistry        |     
     |                    University of Bonn                     |     
      -----------------------------------------------------------      

   * xtb version 6.3.0 (preview) compiled by 'ehlert@majestix' on 2020-01-15

   This program is distributed in the hope that it will be useful,
   but WITHOUT ANY WARRANTY; without even the implied warranty of
   MERCHANTABILITY or FITNESS FOR A PARTICULAR PURPOSE.
   
   FOR NON-COMMERCIAL, ACADEMIA USE ONLY.
   
   Cite this work as:
   * S. Grimme, C. Bannwarth, P. Shushkov, J. Chem. Theory Comput., 2017,
     13, 1989-2009. DOI: 10.1021/acs.jctc.7b00118
   * C. Bannwarth, S. Ehlert and S. Grimme., J. Chem. Theory Comput., 2019,
     15, 1652-1671. DOI: 10.1021/acs.jctc.8b01176
   * P. Pracht, E. Caldeweyher, S. Ehlert, S. Grimme, ChemRxiv, 2019, preprint.
     DOI: 10.26434/chemrxiv.8326202.v1
   * S. Grimme, S. Spicher unpublished
   
   for DFT-D4:
   * E. Caldeweyher, C. Bannwarth and S. Grimme, J. Chem. Phys., 2017,
     147, 034112. DOI: 10.1063/1.4993215
   * E. Caldeweyher, S. Ehlert, A. Hansen, H. Neugebauer, S. Spicher,
     C. Bannwarth and S. Grimme, J. Chem. Phys., 2019, 150, 154122.
     DOI: 10.1063/1.5090222
   
   for sTDA-xTB:
   * S. Grimme and C. Bannwarth, J. Chem. Phys., 2016, 145, 054103.
     DOI: 10.1063/1.4959605
   
   in the mass-spec context:
   * V. Asgeirsson, C. Bauer and S. Grimme, Chem. Sci., 2017, 8, 4879.
     DOI: 10.1039/c7sc00601b
   
   for metadynamics refer to:
   * S. Grimme, J. Chem. Theory Comput., 2019, 155, 2847-2862
     DOI: 10.1021/acs.jctc.9b00143
   
   with help from (in alphabetical order)
   C. Bannwarth, F. Bohle, G. Brandenburg, E. Caldeweyher, M. Checinski,
   S. Dohm, S. Ehlert, S. Ehrlich, F. März, H. Neugebauer, J. Pisarek,
   P. Pracht, P. Shushkov, and S. Spicher.
   
 * started run on 2020/08/27 at 07:18:28.947     

           -------------------------------------------------
          |                Calculation Setup                |
           -------------------------------------------------

          program call               : /opt/orca/otool_xtb /tmp/slurm-scratch/freq.158/freq_XTB.xyz --grad -c 0 -u 0 -P 8 --namespace /tmp/slurm-scratch/freq.158/freq --gbsa CH2Cl2
          hostname                   : headnode-pbs
          calculation namespace      : /tmp/slurm-scratch/freq.158/freq
          coordinate file            : /tmp/slurm-scratch/freq.158/freq_XTB.xyz
          omp threads                :                     8
          number of atoms            :                    36
          number of electrons        :                    88
          charge                     :                     0
          spin                       :                   0.0
          first test random number   :      0.86803944631636


molecular fragmentation (1/2 indicates fragments):
111111111121222212112222222222222222
# atoms in fragment 1/2:    14    22
 fragment masses (1/2) :      106.12      109.17
CMA distance (Bohr)    :   9.273
constraining FC (au)   :  0.0500

########################################################################
# WARNING! Please study the warnings concerning your input carefully
#  - Process number higher than OMP_NUM_THREADS, I hope you know what you are doing.
########################################################################

           ------------------------------------------------- 
          |                 G F N 2 - x T B                 |
          | Geometry, Frequencies, Noncovalent interactions |
          |            JCTC 2019 parametrisation            |
           ------------------------------------------------- 
             k(s)              :                1.8500
             k(p)              :                2.2300
             k(d)              :                2.2300
             k(f)              :                2.0000
             kEN (H0ij)        :               -2.0000
             D4 a1             :                0.5200
             D4 a2             :                5.0000
             D4 s6             :                1.0000
             D4 s8             :                2.7000
             D4 s9             :                5.0000
             alphaj            :                2.0000

  Z AO/shell   Hii/eV     exponent
  1     Wed Apr 25 08:07:45 CEST 2018   EN: 2.200 GM2: 0.406  GM3: 0.0800  RAES: 1.40
     1s    -10.707211    1.230000
  6     Wed Apr 25 08:07:45 CEST 2018   EN: 2.550 GM2: 0.538  GM3: 0.1500  RAES: 3.00
     2s    -13.970922    2.096432
     2p    -10.063292    1.800000
  7     Wed Apr 25 08:07:45 CEST 2018   EN: 3.040 GM2: 0.461  GM3:-0.0640  RAES: 1.90
     2s    -16.686243    2.339881
     2p    -12.523956    2.014332
  8     Wed Apr 25 08:07:45 CEST 2018   EN: 3.440 GM2: 0.452  GM3:-0.0517  RAES: 1.80
     2s    -20.229985    2.439742
     2p    -15.503117    2.137023

 Solvent             : CH2Cl2
 Using internal parameter file: .param_gbsa2_CH2Cl2
 Gsolv ref. state (COSMO-RS): gsolv [1 M gas/solution]
 temperature (mdtemp)       :    298.150000000000     
 dielectric constant        :    8.93000000000000     
 rho                        :    1.33000000000000     
 mass                       :    84.9300000000000     
 surface tension            :    15.5689454083859     
 probe radius               :   0.719875900000000     
 Gshift (Eh)                :   4.440829173451759E-003
 c1                         :    1.49173776000000     
 soset                      :   0.000000000000000E+000
 HB correction              :  F
           ------------------------------------------------- 
          |        Self-Consistent Charge Iterations        |
           ------------------------------------------------- 

          ...................................................
          :                      SETUP                      :
          :.................................................:
          :  # basis functions                  81          :
          :  # atomic orbitals                  81          :
          :  # shells                           51          :
          :  # electrons                        88          :
          :  max. iterations                   250          :
          :  Hamiltonian                  GFN2-xTB          :
          :  GBSA solvation                   true          :
          :  PC potential                    false          :
          :  electronic temp.          300.0000000     K    :
          :  accuracy                    1.0000000          :
          :  -> integral cutoff          0.2500000E+02      :
          :  -> integral neglect         0.1000000E-07      :
          :  -> SCF convergence          0.1000000E-05 Eh   :
          :  -> wf. convergence          0.1000000E-03 e    :
          :  Broyden damping             0.4000000          :
          ...................................................
  Checking positiv definite overlap ...  done.
 

 iter      E             dE          RMSdq      gap      omega  full diag
   1    -49.9161642 -0.499162E+02  0.419E+00    2.40       0.0  T
   2    -49.9771892 -0.610250E-01  0.229E+00    2.26       1.0  T
   3    -49.9765238  0.665444E-03  0.101E+00    2.42       1.0  T
   4    -49.9829171 -0.639331E-02  0.205E-01    2.19       1.0  T
   5    -49.9835175 -0.600358E-03  0.748E-02    2.21       1.0  T
   6    -49.9835849 -0.674272E-04  0.372E-02    2.22       1.0  T
   7    -49.9835989 -0.140533E-04  0.136E-02    2.22       1.2  T
   8    -49.9835996 -0.656485E-06  0.378E-03    2.23       4.4  T
   9    -49.9835997 -0.106727E-06  0.155E-03    2.22      10.8  T
  10    -49.9835997 -0.143368E-07  0.739E-04    2.22      22.5  T
  11    -49.9835997 -0.324884E-08  0.312E-04    2.22      53.4  T

   *** convergence criteria satisfied after 11 iterations ***

         #    Occupation            Energy/Eh            Energy/eV
      -------------------------------------------------------------
         1        2.0000           -0.7256331             -19.7455
       ...           ...                  ...                  ...
        38        2.0000           -0.4345903             -11.8258
        39        2.0000           -0.4320538             -11.7568
        40        2.0000           -0.4247552             -11.5582
        41        2.0000           -0.4226692             -11.5014
        42        2.0000           -0.4195515             -11.4166
        43        2.0000           -0.4117193             -11.2035
        44        2.0000           -0.3830116             -10.4223 (HOMO)
        45                         -0.3013087              -8.1990 (LUMO)
        46                         -0.2385705              -6.4918
        47                         -0.2072775              -5.6403
        48                         -0.0996651              -2.7120
        49                          0.0080234               0.2183
       ...                                ...                  ...
        81                          0.6428226              17.4921
      -------------------------------------------------------------
                  HL-Gap            0.0817029 Eh            2.2232 eV
             Fermi-level           -0.3421602 Eh           -9.3107 eV

 SCC (total)                   0 d,  0 h,  0 min,  0.234 sec
 SCC setup                      ...        0 min,  0.008 sec (  3.329%)
 Dispersion                     ...        0 min,  0.002 sec (  0.887%)
 integral evaluation            ...        0 min,  0.032 sec ( 13.754%)
 zeroth order Hamiltonian       ...        0 min,  0.000 sec (  0.011%)
 iterations                     ...        0 min,  0.176 sec ( 75.203%)
 molecular gradient             ...        0 min,  0.013 sec (  5.694%)
 printout                       ...        0 min,  0.003 sec (  1.075%)

         :::::::::::::::::::::::::::::::::::::::::::::::::::::
         ::                     SUMMARY                     ::
         :::::::::::::::::::::::::::::::::::::::::::::::::::::
         :: total energy             -49.350503453548 Eh    ::
         :: total w/o Gsasa/hb       -49.331319804448 Eh    ::
         :: gradient norm              0.025865841740 Eh/a0 ::
         :: HOMO-LUMO gap              2.223248963310 eV    ::
         ::.................................................::
         :: SCC energy               -50.002783376010 Eh    ::
         :: -> isotropic ES            0.114976363737 Eh    ::
         :: -> anisotropic ES         -0.005090342912 Eh    ::
         :: -> anisotropic XC          0.024230172818 Eh    ::
         :: -> dispersion             -0.026557310399 Eh    ::
         :: -> Gsolv                  -0.029694760388 Eh    ::
         ::    -> Gborn               -0.010511111288 Eh    ::
         ::    -> Gsasa               -0.023624478274 Eh    ::
         ::    -> Ghb                  0.000000000000 Eh    ::
         ::    -> Gshift               0.004440829173 Eh    ::
         :: repulsion energy           0.651944296708 Eh    ::
         :: add. restraining           0.000000000000 Eh    ::
         :::::::::::::::::::::::::::::::::::::::::::::::::::::

           -------------------------------------------------
          |                Property Printout                |
           -------------------------------------------------

    * Orbital Energies and Occupations

         #    Occupation            Energy/Eh            Energy/eV
      -------------------------------------------------------------
         1        2.0000           -0.7256331             -19.7455
       ...           ...                  ...                  ...
        32        2.0000           -0.4693612             -12.7720
        33        2.0000           -0.4507589             -12.2658
        34        2.0000           -0.4492248             -12.2240
        35        2.0000           -0.4479008             -12.1880
        36        2.0000           -0.4382751             -11.9261
        37        2.0000           -0.4374735             -11.9043
        38        2.0000           -0.4345903             -11.8258
        39        2.0000           -0.4320538             -11.7568
        40        2.0000           -0.4247552             -11.5582
        41        2.0000           -0.4226692             -11.5014
        42        2.0000           -0.4195515             -11.4166
        43        2.0000           -0.4117193             -11.2035
        44        2.0000           -0.3830116             -10.4223 (HOMO)
        45                         -0.3013087              -8.1990 (LUMO)
        46                         -0.2385705              -6.4918
        47                         -0.2072775              -5.6403
        48                         -0.0996651              -2.7120
        49                          0.0080234               0.2183
        50                          0.0577112               1.5704
        51                          0.0890487               2.4231
        52                          0.0906189               2.4659
        53                          0.1058189               2.8795
        54                          0.1146624               3.1201
        55                          0.1190359               3.2391
       ...                                ...                  ...
        81                          0.6428226              17.4921
      -------------------------------------------------------------
                  HL-Gap            0.0817029 Eh            2.2232 eV
             Fermi-level           -0.3421602 Eh           -9.3107 eV

     #   Z        covCN         q      C6AA      α(0)
     1   6 C      2.969    -0.006    28.171     8.706
     2   6 C      2.922    -0.020    28.500     8.755
     3   6 C      2.913    -0.023    28.574     8.765
     4   6 C      2.917    -0.014    28.370     8.734
     5   6 C      2.914    -0.024    28.607     8.771
     6   6 C      2.918    -0.012    28.305     8.724
     7   6 C      2.769     0.208    23.582     7.953
     8   1 H      0.925     0.057     2.231     2.336
     9   1 H      0.926     0.057     2.240     2.340
    10   1 H      0.925     0.056     2.248     2.345
    11   1 H      0.801     0.308     0.698     1.313
    12   8 O      0.856    -0.406    21.794     6.259
    13   1 H      0.803     0.316     0.675     1.291
    14   1 H      0.805     0.287     0.762     1.371
    15   1 H      0.860     0.174     1.249     1.751
    16   1 H      0.860     0.144     1.443     1.882
    17   1 H      0.923     0.043     2.404     2.425
    18   1 H      0.805     0.273     0.809     1.412
    19   1 H      0.925     0.055     2.255     2.348
    20   1 H      0.925     0.053     2.286     2.364
    21   7 N      2.628    -0.376    29.705     8.094
    22   6 C      3.731     0.019    20.344     6.438
    23   1 H      0.924     0.034     2.530     2.488
    24   1 H      0.924     0.012     2.855     2.642
    25   6 C      3.802    -0.067    21.778     6.644
    26   1 H      0.924     0.033     2.543     2.494
    27   1 H      0.924     0.049     2.338     2.391
    28   6 C      3.800    -0.054    21.542     6.608
    29   1 H      0.924     0.032     2.554     2.499
    30   1 H      0.924     0.031     2.576     2.510
    31   6 C      3.750    -0.103    22.523     6.769
    32   1 H      0.924     0.037     2.490     2.468
    33   1 H      0.924     0.037     2.494     2.470
    34   1 H      0.924     0.035     2.512     2.478
    35   8 O      1.606    -0.626    25.810     6.857
    36   8 O      1.608    -0.621    25.703     6.842

 Mol. C6AA /au·bohr⁶  :      10933.464336
 Mol. C8AA /au·bohr⁸  :     240404.241541
 Mol. α(0) /au        :        160.537591


Wiberg/Mayer (AO) data.
largest (>0.10) Wiberg bond orders for each atom
          total WBO             WBO to atom ...
     1  C   3.989        C    2 1.362    C    6 1.356    C    7 1.091
     2  C   3.988        C    3 1.459    C    1 1.362    H    8 0.966    C    5 0.103
     3  C   3.991        C    2 1.459    C    4 1.430    H   19 0.969    C    6 0.104
     4  C   3.988        C    3 1.430    C    5 1.421    H   10 0.970
     5  C   3.991        C    6 1.468    C    4 1.421    H   20 0.969    C    2 0.103
     6  C   3.988        C    5 1.468    C    1 1.356    H    9 0.967    C    3 0.104
     7  C   3.904        O   12 1.783    C    1 1.091    H   17 0.933
     8  H   0.997        C    2 0.966
     9  H   0.997        C    6 0.967
    10  H   0.996        C    4 0.970
    11  H   0.905        O   35 0.835
    12  O   2.058        C    7 1.783
    13  H   0.900        O   36 0.854
    14  H   0.918        O   36 0.916
    15  H   0.970        N   21 0.938
    16  H   0.979        N   21 0.966
    17  H   0.998        C    7 0.933
    18  H   0.926        O   35 0.924
    19  H   0.997        C    3 0.969
    20  H   0.997        C    5 0.969
    21  N   3.064        C   22 1.011    H   16 0.966    H   15 0.938
    22  C   3.982        N   21 1.011    C   25 1.007    H   23 0.977    H   24 0.972
    23  H   0.999        C   22 0.977
    24  H   1.000        C   22 0.972
    25  C   3.995        C   28 1.007    C   22 1.007    H   27 0.974    H   26 0.973
    26  H   0.999        C   25 0.973
    27  H   0.998        C   25 0.974
    28  C   3.997        C   31 1.019    C   25 1.007    H   29 0.978    H   30 0.978
    29  H   0.999        C   28 0.978
    30  H   0.999        C   28 0.978
    31  C   3.996        C   28 1.019    H   34 0.988    H   32 0.987    H   33 0.987
    32  H   0.999        C   31 0.987
    33  H   0.998        C   31 0.987
    34  H   0.999        C   31 0.988
    35  O   1.810        H   18 0.924    H   11 0.835
    36  O   1.826        H   14 0.916    H   13 0.854

molecular dipole:
                 x           y           z       tot (Debye)
 q only:        0.056       1.487      -1.076
   full:        0.338       1.171      -1.175       4.302
molecular quadrupole (traceless):
                xx          xy          yy          xz          yz          zz
 q only:       13.125       1.405     -14.804      -0.274      -0.622       1.680
  q+dip:       17.471      -3.499     -14.486       1.817      -1.844      -2.985
   full:       16.051      -3.298     -15.979       0.338      -1.503      -0.073

           -------------------------------------------------
          |                Property Printout                |
           -------------------------------------------------

    * Orbital Energies and Occupations

         #    Occupation            Energy/Eh            Energy/eV
      -------------------------------------------------------------
         1        2.0000           -0.7256331             -19.7455
       ...           ...                  ...                  ...
        32        2.0000           -0.4693612             -12.7720
        33        2.0000           -0.4507589             -12.2658
        34        2.0000           -0.4492248             -12.2240
        35        2.0000           -0.4479008             -12.1880
        36        2.0000           -0.4382751             -11.9261
        37        2.0000           -0.4374735             -11.9043
        38        2.0000           -0.4345903             -11.8258
        39        2.0000           -0.4320538             -11.7568
        40        2.0000           -0.4247552             -11.5582
        41        2.0000           -0.4226692             -11.5014
        42        2.0000           -0.4195515             -11.4166
        43        2.0000           -0.4117193             -11.2035
        44        2.0000           -0.3830116             -10.4223 (HOMO)
        45                         -0.3013087              -8.1990 (LUMO)
        46                         -0.2385705              -6.4918
        47                         -0.2072775              -5.6403
        48                         -0.0996651              -2.7120
        49                          0.0080234               0.2183
        50                          0.0577112               1.5704
        51                          0.0890487               2.4231
        52                          0.0906189               2.4659
        53                          0.1058189               2.8795
        54                          0.1146624               3.1201
        55                          0.1190359               3.2391
       ...                                ...                  ...
        81                          0.6428226              17.4921
      -------------------------------------------------------------
                  HL-Gap            0.0817029 Eh            2.2232 eV
             Fermi-level           -0.3421602 Eh           -9.3107 eV

     #   Z        covCN         q      C6AA      α(0)
     1   6 C      2.969    -0.006    28.171     8.706
     2   6 C      2.922    -0.020    28.500     8.755
     3   6 C      2.913    -0.023    28.574     8.765
     4   6 C      2.917    -0.014    28.370     8.734
     5   6 C      2.914    -0.024    28.607     8.771
     6   6 C      2.918    -0.012    28.305     8.724
     7   6 C      2.769     0.208    23.582     7.953
     8   1 H      0.925     0.057     2.231     2.336
     9   1 H      0.926     0.057     2.240     2.340
    10   1 H      0.925     0.056     2.248     2.345
    11   1 H      0.801     0.308     0.698     1.313
    12   8 O      0.856    -0.406    21.794     6.259
    13   1 H      0.803     0.316     0.675     1.291
    14   1 H      0.805     0.287     0.762     1.371
    15   1 H      0.860     0.174     1.249     1.751
    16   1 H      0.860     0.144     1.443     1.882
    17   1 H      0.923     0.043     2.404     2.425
    18   1 H      0.805     0.273     0.809     1.412
    19   1 H      0.925     0.055     2.255     2.348
    20   1 H      0.925     0.053     2.286     2.364
    21   7 N      2.628    -0.376    29.705     8.094
    22   6 C      3.731     0.019    20.344     6.438
    23   1 H      0.924     0.034     2.530     2.488
    24   1 H      0.924     0.012     2.855     2.642
    25   6 C      3.802    -0.067    21.778     6.644
    26   1 H      0.924     0.033     2.543     2.494
    27   1 H      0.924     0.049     2.338     2.391
    28   6 C      3.800    -0.054    21.542     6.608
    29   1 H      0.924     0.032     2.554     2.499
    30   1 H      0.924     0.031     2.576     2.510
    31   6 C      3.750    -0.103    22.523     6.769
    32   1 H      0.924     0.037     2.490     2.468
    33   1 H      0.924     0.037     2.494     2.470
    34   1 H      0.924     0.035     2.512     2.478
    35   8 O      1.606    -0.626    25.810     6.857
    36   8 O      1.608    -0.621    25.703     6.842

 Mol. C6AA /au·bohr⁶  :      10933.464336
 Mol. C8AA /au·bohr⁸  :     240404.241541
 Mol. α(0) /au        :        160.537591


Wiberg/Mayer (AO) data.
largest (>0.10) Wiberg bond orders for each atom
          total WBO             WBO to atom ...
     1  C   3.989        C    2 1.362    C    6 1.356    C    7 1.091
     2  C   3.988        C    3 1.459    C    1 1.362    H    8 0.966    C    5 0.103
     3  C   3.991        C    2 1.459    C    4 1.430    H   19 0.969    C    6 0.104
     4  C   3.988        C    3 1.430    C    5 1.421    H   10 0.970
     5  C   3.991        C    6 1.468    C    4 1.421    H   20 0.969    C    2 0.103
     6  C   3.988        C    5 1.468    C    1 1.356    H    9 0.967    C    3 0.104
     7  C   3.904        O   12 1.783    C    1 1.091    H   17 0.933
     8  H   0.997        C    2 0.966
     9  H   0.997        C    6 0.967
    10  H   0.996        C    4 0.970
    11  H   0.905        O   35 0.835
    12  O   2.058        C    7 1.783
    13  H   0.900        O   36 0.854
    14  H   0.918        O   36 0.916
    15  H   0.970        N   21 0.938
    16  H   0.979        N   21 0.966
    17  H   0.998        C    7 0.933
    18  H   0.926        O   35 0.924
    19  H   0.997        C    3 0.969
    20  H   0.997        C    5 0.969
    21  N   3.064        C   22 1.011    H   16 0.966    H   15 0.938
    22  C   3.982        N   21 1.011    C   25 1.007    H   23 0.977    H   24 0.972
    23  H   0.999        C   22 0.977
    24  H   1.000        C   22 0.972
    25  C   3.995        C   28 1.007    C   22 1.007    H   27 0.974    H   26 0.973
    26  H   0.999        C   25 0.973
    27  H   0.998        C   25 0.974
    28  C   3.997        C   31 1.019    C   25 1.007    H   29 0.978    H   30 0.978
    29  H   0.999        C   28 0.978
    30  H   0.999        C   28 0.978
    31  C   3.996        C   28 1.019    H   34 0.988    H   32 0.987    H   33 0.987
    32  H   0.999        C   31 0.987
    33  H   0.998        C   31 0.987
    34  H   0.999        C   31 0.988
    35  O   1.810        H   18 0.924    H   11 0.835
    36  O   1.826        H   14 0.916    H   13 0.854

molecular dipole:
                 x           y           z       tot (Debye)
 q only:        0.056       1.487      -1.076
   full:        0.338       1.171      -1.175       4.302
molecular quadrupole (traceless):
                xx          xy          yy          xz          yz          zz
 q only:       13.125       1.405     -14.804      -0.274      -0.622       1.680
  q+dip:       17.471      -3.499     -14.486       1.817      -1.844      -2.985
   full:       16.051      -3.298     -15.979       0.338      -1.503      -0.073


           -------------------------------------------------
          | TOTAL ENERGY              -49.350503453548 Eh   |
          | GRADIENT NORM               0.025865841740 Eh/α |
          | HOMO-LUMO GAP               2.223248963310 eV   |
           -------------------------------------------------

------------------------------------------------------------------------
 * finished run on 2020/08/27 at 07:18:29.416     
------------------------------------------------------------------------
 total:
 * wall-time:     0 d,  0 h,  0 min,  0.469 sec
 *  cpu-time:     0 d,  0 h,  0 min,  2.238 sec
 * ratio c/w:     4.776 speedup
 SCF:
 * wall-time:     0 d,  0 h,  0 min,  0.244 sec
 *  cpu-time:     0 d,  0 h,  0 min,  1.226 sec
 * ratio c/w:     5.017 speedup


-------------------------   --------------------
FINAL SINGLE POINT ENERGY       -49.350503453550
-------------------------   --------------------


----------------------------------------------------------------------------
                           ORCA NUMERICAL FREQUENCIES
                              (8-process run)
----------------------------------------------------------------------------

Number of atoms                ... 36
Central differences            ... used
Number of displacements        ... 216
Numerical increment            ... 5.000e-03 bohr
IR-spectrum generation         ... on
Raman-spectrum generation      ... off
Surface Crossing Hessian       ... off
List of participating nodes    ...  /tmp/slurm-scratch/freq.158/freq.hostnames

The output will be reduced. Please look at the following files:
SCF program output             ... >/tmp/slurm-scratch/freq.158/freq.lastscf
Integral program output        ... >/tmp/slurm-scratch/freq.158/freq.lastint
Gradient program output        ... >/tmp/slurm-scratch/freq.158/freq.lastgrad
Dipole moment program output   ... >/tmp/slurm-scratch/freq.158/freq.lastmom
AutoCI program output          ... >/tmp/slurm-scratch/freq.158/freq.lastautoci


         <<< Energy and Gradient at the input geometry >>>

        <<< Energy and Gradient at displaced geometries >>>
             <<<Displacing   2/coordinate 2 (+)>>>
             <<<Displacing   3/coordinate 1 (+)>>>
             <<<Displacing   1/coordinate 2 (+)>>>
             <<<Displacing   2/coordinate 3 (+)>>>
             <<<Displacing   2/coordinate 1 (+)>>>
             <<<Displacing   1/coordinate 1 (+)>>>
             <<<Displacing   3/coordinate 2 (+)>>>
             <<<Displacing   1/coordinate 3 (+)>>>
             <<<Displacing   1/coordinate 1 (-)>>>
             <<<Displacing   1/coordinate 2 (-)>>>
             <<<Displacing   2/coordinate 1 (-)>>>
             <<<Displacing   1/coordinate 3 (-)>>>
             <<<Displacing   2/coordinate 3 (-)>>>
             <<<Displacing   3/coordinate 1 (-)>>>
             <<<Displacing   3/coordinate 2 (-)>>>
             <<<Displacing   2/coordinate 2 (-)>>>
             <<<Displacing   4/coordinate 2 (+)>>>
             <<<Displacing   4/coordinate 1 (+)>>>
             <<<Displacing   3/coordinate 3 (+)>>>
             <<<Displacing   4/coordinate 2 (-)>>>
             <<<Displacing   6/coordinate 1 (+)>>>
             <<<Displacing   4/coordinate 1 (-)>>>
             <<<Displacing   3/coordinate 3 (-)>>>
             <<<Displacing   6/coordinate 1 (-)>>>
             <<<Displacing   4/coordinate 3 (+)>>>
             <<<Displacing   5/coordinate 2 (+)>>>
             <<<Displacing   4/coordinate 3 (-)>>>
             <<<Displacing   5/coordinate 2 (-)>>>
             <<<Displacing   5/coordinate 3 (+)>>>
             <<<Displacing   5/coordinate 3 (-)>>>
             <<<Displacing   5/coordinate 1 (+)>>>
             <<<Displacing   5/coordinate 1 (-)>>>
             <<<Displacing   6/coordinate 2 (+)>>>
             <<<Displacing   6/coordinate 2 (-)>>>
             <<<Displacing   6/coordinate 3 (+)>>>
             <<<Displacing   7/coordinate 2 (+)>>>
             <<<Displacing   7/coordinate 2 (-)>>>
             <<<Displacing   6/coordinate 3 (-)>>>
             <<<Displacing   8/coordinate 1 (+)>>>
             <<<Displacing   7/coordinate 3 (+)>>>
             <<<Displacing   8/coordinate 1 (-)>>>
             <<<Displacing   7/coordinate 3 (-)>>>
             <<<Displacing   8/coordinate 2 (+)>>>
             <<<Displacing   7/coordinate 1 (+)>>>
             <<<Displacing   8/coordinate 2 (-)>>>
             <<<Displacing   7/coordinate 1 (-)>>>
             <<<Displacing   8/coordinate 3 (+)>>>
             <<<Displacing   8/coordinate 3 (-)>>>
             <<<Displacing   9/coordinate 3 (+)>>>
             <<<Displacing   9/coordinate 3 (-)>>>
             <<<Displacing   9/coordinate 2 (+)>>>
             <<<Displacing   9/coordinate 2 (-)>>>
             <<<Displacing   9/coordinate 1 (+)>>>
             <<<Displacing  10/coordinate 2 (+)>>>
             <<<Displacing   9/coordinate 1 (-)>>>
             <<<Displacing  10/coordinate 1 (+)>>>
             <<<Displacing  10/coordinate 2 (-)>>>
             <<<Displacing  10/coordinate 3 (+)>>>
             <<<Displacing  10/coordinate 1 (-)>>>
             <<<Displacing  10/coordinate 3 (-)>>>
             <<<Displacing  11/coordinate 2 (+)>>>
             <<<Displacing  11/coordinate 1 (+)>>>
             <<<Displacing  11/coordinate 2 (-)>>>
             <<<Displacing  11/coordinate 1 (-)>>>
             <<<Displacing  11/coordinate 3 (+)>>>
             <<<Displacing  12/coordinate 1 (+)>>>
             <<<Displacing  11/coordinate 3 (-)>>>
             <<<Displacing  12/coordinate 1 (-)>>>
             <<<Displacing  12/coordinate 2 (+)>>>
             <<<Displacing  12/coordinate 2 (-)>>>
             <<<Displacing  13/coordinate 1 (+)>>>
             <<<Displacing  13/coordinate 2 (+)>>>
             <<<Displacing  13/coordinate 1 (-)>>>
             <<<Displacing  13/coordinate 2 (-)>>>
             <<<Displacing  12/coordinate 3 (+)>>>
             <<<Displacing  13/coordinate 3 (+)>>>
             <<<Displacing  12/coordinate 3 (-)>>>
             <<<Displacing  13/coordinate 3 (-)>>>
             <<<Displacing  14/coordinate 1 (+)>>>
             <<<Displacing  14/coordinate 1 (-)>>>
             <<<Displacing  14/coordinate 3 (+)>>>
             <<<Displacing  14/coordinate 3 (-)>>>
             <<<Displacing  15/coordinate 1 (+)>>>
             <<<Displacing  15/coordinate 1 (-)>>>
             <<<Displacing  15/coordinate 3 (+)>>>
             <<<Displacing  15/coordinate 3 (-)>>>
             <<<Displacing  16/coordinate 1 (+)>>>
             <<<Displacing  14/coordinate 2 (+)>>>
             <<<Displacing  16/coordinate 1 (-)>>>
             <<<Displacing  15/coordinate 2 (+)>>>
             <<<Displacing  14/coordinate 2 (-)>>>
             <<<Displacing  15/coordinate 2 (-)>>>
             <<<Displacing  16/coordinate 2 (+)>>>
             <<<Displacing  16/coordinate 2 (-)>>>
             <<<Displacing  16/coordinate 3 (+)>>>
             <<<Displacing  16/coordinate 3 (-)>>>
             <<<Displacing  17/coordinate 1 (+)>>>
             <<<Displacing  17/coordinate 1 (-)>>>
             <<<Displacing  17/coordinate 2 (+)>>>
             <<<Displacing  17/coordinate 2 (-)>>>
             <<<Displacing  18/coordinate 2 (+)>>>
             <<<Displacing  18/coordinate 1 (+)>>>
             <<<Displacing  18/coordinate 1 (-)>>>
             <<<Displacing  18/coordinate 2 (-)>>>
             <<<Displacing  19/coordinate 1 (+)>>>
             <<<Displacing  17/coordinate 3 (+)>>>
             <<<Displacing  19/coordinate 1 (-)>>>
             <<<Displacing  18/coordinate 3 (+)>>>
             <<<Displacing  17/coordinate 3 (-)>>>
             <<<Displacing  18/coordinate 3 (-)>>>
             <<<Displacing  19/coordinate 2 (+)>>>
             <<<Displacing  19/coordinate 2 (-)>>>
             <<<Displacing  20/coordinate 1 (+)>>>
             <<<Displacing  20/coordinate 1 (-)>>>
             <<<Displacing  19/coordinate 3 (+)>>>
             <<<Displacing  19/coordinate 3 (-)>>>
             <<<Displacing  20/coordinate 3 (+)>>>
             <<<Displacing  20/coordinate 2 (+)>>>
             <<<Displacing  20/coordinate 3 (-)>>>
             <<<Displacing  20/coordinate 2 (-)>>>
             <<<Displacing  21/coordinate 1 (+)>>>
             <<<Displacing  21/coordinate 1 (-)>>>
             <<<Displacing  21/coordinate 3 (+)>>>
             <<<Displacing  21/coordinate 3 (-)>>>
             <<<Displacing  22/coordinate 1 (+)>>>
             <<<Displacing  22/coordinate 1 (-)>>>
             <<<Displacing  21/coordinate 2 (+)>>>
             <<<Displacing  21/coordinate 2 (-)>>>
             <<<Displacing  22/coordinate 3 (+)>>>
             <<<Displacing  22/coordinate 3 (-)>>>
             <<<Displacing  23/coordinate 1 (+)>>>
             <<<Displacing  23/coordinate 2 (+)>>>
             <<<Displacing  23/coordinate 1 (-)>>>
             <<<Displacing  22/coordinate 2 (+)>>>
             <<<Displacing  23/coordinate 2 (-)>>>
             <<<Displacing  22/coordinate 2 (-)>>>
             <<<Displacing  23/coordinate 3 (+)>>>
             <<<Displacing  24/coordinate 1 (+)>>>
             <<<Displacing  23/coordinate 3 (-)>>>
             <<<Displacing  24/coordinate 1 (-)>>>
             <<<Displacing  24/coordinate 2 (+)>>>
             <<<Displacing  24/coordinate 2 (-)>>>
             <<<Displacing  24/coordinate 3 (+)>>>
             <<<Displacing  24/coordinate 3 (-)>>>
             <<<Displacing  25/coordinate 1 (+)>>>
             <<<Displacing  25/coordinate 1 (-)>>>
             <<<Displacing  25/coordinate 3 (+)>>>
             <<<Displacing  25/coordinate 3 (-)>>>
             <<<Displacing  26/coordinate 2 (+)>>>
             <<<Displacing  25/coordinate 2 (+)>>>
             <<<Displacing  26/coordinate 2 (-)>>>
             <<<Displacing  25/coordinate 2 (-)>>>
             <<<Displacing  26/coordinate 1 (+)>>>
             <<<Displacing  26/coordinate 1 (-)>>>
             <<<Displacing  26/coordinate 3 (+)>>>
             <<<Displacing  26/coordinate 3 (-)>>>
             <<<Displacing  27/coordinate 1 (+)>>>
             <<<Displacing  27/coordinate 2 (+)>>>
             <<<Displacing  27/coordinate 1 (-)>>>
             <<<Displacing  27/coordinate 2 (-)>>>
             <<<Displacing  27/coordinate 3 (+)>>>
             <<<Displacing  28/coordinate 1 (+)>>>
             <<<Displacing  27/coordinate 3 (-)>>>
             <<<Displacing  28/coordinate 1 (-)>>>
             <<<Displacing  28/coordinate 2 (+)>>>
             <<<Displacing  28/coordinate 2 (-)>>>
             <<<Displacing  29/coordinate 1 (+)>>>
             <<<Displacing  29/coordinate 2 (+)>>>
             <<<Displacing  29/coordinate 1 (-)>>>
             <<<Displacing  28/coordinate 3 (+)>>>
             <<<Displacing  29/coordinate 2 (-)>>>
             <<<Displacing  28/coordinate 3 (-)>>>
             <<<Displacing  29/coordinate 3 (+)>>>
             <<<Displacing  30/coordinate 1 (+)>>>
             <<<Displacing  29/coordinate 3 (-)>>>
             <<<Displacing  30/coordinate 1 (-)>>>
             <<<Displacing  30/coordinate 2 (+)>>>
             <<<Displacing  30/coordinate 2 (-)>>>
             <<<Displacing  30/coordinate 3 (+)>>>
             <<<Displacing  30/coordinate 3 (-)>>>
             <<<Displacing  31/coordinate 1 (+)>>>
             <<<Displacing  31/coordinate 1 (-)>>>
             <<<Displacing  31/coordinate 2 (+)>>>
             <<<Displacing  31/coordinate 2 (-)>>>
             <<<Displacing  32/coordinate 1 (+)>>>
             <<<Displacing  32/coordinate 1 (-)>>>
             <<<Displacing  31/coordinate 3 (+)>>>
             <<<Displacing  31/coordinate 3 (-)>>>
             <<<Displacing  32/coordinate 2 (+)>>>
             <<<Displacing  32/coordinate 2 (-)>>>
             <<<Displacing  32/coordinate 3 (+)>>>
             <<<Displacing  32/coordinate 3 (-)>>>
             <<<Displacing  33/coordinate 1 (+)>>>
             <<<Displacing  33/coordinate 1 (-)>>>
             <<<Displacing  33/coordinate 2 (+)>>>
             <<<Displacing  33/coordinate 2 (-)>>>
             <<<Displacing  33/coordinate 3 (+)>>>
             <<<Displacing  33/coordinate 3 (-)>>>
             <<<Displacing  34/coordinate 1 (+)>>>
             <<<Displacing  34/coordinate 2 (+)>>>
             <<<Displacing  34/coordinate 3 (+)>>>
             <<<Displacing  34/coordinate 1 (-)>>>
             <<<Displacing  34/coordinate 2 (-)>>>
             <<<Displacing  34/coordinate 3 (-)>>>
             <<<Displacing  35/coordinate 1 (+)>>>
             <<<Displacing  35/coordinate 1 (-)>>>
             <<<Displacing  35/coordinate 2 (+)>>>
             <<<Displacing  35/coordinate 2 (-)>>>
             <<<Displacing  35/coordinate 3 (+)>>>
             <<<Displacing  35/coordinate 3 (-)>>>
             <<<Displacing  36/coordinate 1 (+)>>>
             <<<Displacing  36/coordinate 1 (-)>>>
             <<<Displacing  36/coordinate 2 (+)>>>
             <<<Displacing  36/coordinate 2 (-)>>>
             <<<Displacing  36/coordinate 3 (+)>>>
             <<<Displacing  36/coordinate 3 (-)>>>

-----------------------
VIBRATIONAL FREQUENCIES
-----------------------

Scaling factor for frequencies =  1.000000000 (already applied!)

   0:         0.00 cm**-1
   1:         0.00 cm**-1
   2:         0.00 cm**-1
   3:         0.00 cm**-1
   4:         0.00 cm**-1
   5:         0.00 cm**-1
   6:       -10.62 cm**-1 ***imaginary mode***
   7:        30.55 cm**-1
   8:        40.79 cm**-1
   9:        43.15 cm**-1
  10:        52.40 cm**-1
  11:        54.46 cm**-1
  12:        61.32 cm**-1
  13:        67.40 cm**-1
  14:        83.25 cm**-1
  15:       109.64 cm**-1
  16:       125.22 cm**-1
  17:       132.33 cm**-1
  18:       143.67 cm**-1
  19:       152.63 cm**-1
  20:       198.27 cm**-1
  21:       231.30 cm**-1
  22:       240.55 cm**-1
  23:       251.37 cm**-1
  24:       259.78 cm**-1
  25:       264.57 cm**-1
  26:       279.31 cm**-1
  27:       374.27 cm**-1
  28:       379.33 cm**-1
  29:       394.05 cm**-1
  30:       418.62 cm**-1
  31:       426.54 cm**-1
  32:       440.62 cm**-1
  33:       449.07 cm**-1
  34:       474.22 cm**-1
  35:       585.62 cm**-1
  36:       627.19 cm**-1
  37:       650.65 cm**-1
  38:       656.82 cm**-1
  39:       717.23 cm**-1
  40:       739.45 cm**-1
  41:       779.76 cm**-1
  42:       827.88 cm**-1
  43:       830.72 cm**-1
  44:       870.14 cm**-1
  45:       902.40 cm**-1
  46:       921.90 cm**-1
  47:       930.18 cm**-1
  48:       933.75 cm**-1
  49:       934.34 cm**-1
  50:       939.73 cm**-1
  51:       984.53 cm**-1
  52:      1003.18 cm**-1
  53:      1007.17 cm**-1
  54:      1062.61 cm**-1
  55:      1064.50 cm**-1
  56:      1095.01 cm**-1
  57:      1112.15 cm**-1
  58:      1122.80 cm**-1
  59:      1152.26 cm**-1
  60:      1176.15 cm**-1
  61:      1178.91 cm**-1
  62:      1204.72 cm**-1
  63:      1214.98 cm**-1
  64:      1239.18 cm**-1
  65:      1269.00 cm**-1
  66:      1276.62 cm**-1
  67:      1278.66 cm**-1
  68:      1290.75 cm**-1
  69:      1306.41 cm**-1
  70:      1351.24 cm**-1
  71:      1364.39 cm**-1
  72:      1378.91 cm**-1
  73:      1426.30 cm**-1
  74:      1427.23 cm**-1
  75:      1447.59 cm**-1
  76:      1491.64 cm**-1
  77:      1505.45 cm**-1
  78:      1508.21 cm**-1
  79:      1511.79 cm**-1
  80:      1515.08 cm**-1
  81:      1545.32 cm**-1
  82:      1548.81 cm**-1
  83:      1560.85 cm**-1
  84:      1564.32 cm**-1
  85:      1566.96 cm**-1
  86:      1651.78 cm**-1
  87:      2873.65 cm**-1
  88:      2884.10 cm**-1
  89:      2934.00 cm**-1
  90:      2946.06 cm**-1
  91:      2966.81 cm**-1
  92:      2973.37 cm**-1
  93:      2974.64 cm**-1
  94:      2978.97 cm**-1
  95:      2979.18 cm**-1
  96:      2985.61 cm**-1
  97:      2998.07 cm**-1
  98:      3059.84 cm**-1
  99:      3062.74 cm**-1
 100:      3069.68 cm**-1
 101:      3076.93 cm**-1
 102:      3081.84 cm**-1
 103:      3261.61 cm**-1
 104:      3327.39 cm**-1
 105:      3413.80 cm**-1
 106:      3581.86 cm**-1
 107:      3597.87 cm**-1


------------
NORMAL MODES
------------

These modes are the cartesian displacements weighted by the diagonal matrix
M(i,i)=1/sqrt(m[i]) where m[i] is the mass of the displaced atom
Thus, these vectors are normalized but *not* orthogonal

                  0          1          2          3          4          5    
      0       0.000000   0.000000   0.000000   0.000000   0.000000   0.000000
      1       0.000000   0.000000   0.000000   0.000000   0.000000   0.000000
      2       0.000000   0.000000   0.000000   0.000000   0.000000   0.000000
      3       0.000000   0.000000   0.000000   0.000000   0.000000   0.000000
      4       0.000000   0.000000   0.000000   0.000000   0.000000   0.000000
      5       0.000000   0.000000   0.000000   0.000000   0.000000   0.000000
      6       0.000000   0.000000   0.000000   0.000000   0.000000   0.000000
      7       0.000000   0.000000   0.000000   0.000000   0.000000   0.000000
      8       0.000000   0.000000   0.000000   0.000000   0.000000   0.000000
      9       0.000000   0.000000   0.000000   0.000000   0.000000   0.000000
     10       0.000000   0.000000   0.000000   0.000000   0.000000   0.000000
     11       0.000000   0.000000   0.000000   0.000000   0.000000   0.000000
     12       0.000000   0.000000   0.000000   0.000000   0.000000   0.000000
     13       0.000000   0.000000   0.000000   0.000000   0.000000   0.000000
     14       0.000000   0.000000   0.000000   0.000000   0.000000   0.000000
     15       0.000000   0.000000   0.000000   0.000000   0.000000   0.000000
     16       0.000000   0.000000   0.000000   0.000000   0.000000   0.000000
     17       0.000000   0.000000   0.000000   0.000000   0.000000   0.000000
     18       0.000000   0.000000   0.000000   0.000000   0.000000   0.000000
     19       0.000000   0.000000   0.000000   0.000000   0.000000   0.000000
     20       0.000000   0.000000   0.000000   0.000000   0.000000   0.000000
     21       0.000000   0.000000   0.000000   0.000000   0.000000   0.000000
     22       0.000000   0.000000   0.000000   0.000000   0.000000   0.000000
     23       0.000000   0.000000   0.000000   0.000000   0.000000   0.000000
     24       0.000000   0.000000   0.000000   0.000000   0.000000   0.000000
     25       0.000000   0.000000   0.000000   0.000000   0.000000   0.000000
     26       0.000000   0.000000   0.000000   0.000000   0.000000   0.000000
     27       0.000000   0.000000   0.000000   0.000000   0.000000   0.000000
     28       0.000000   0.000000   0.000000   0.000000   0.000000   0.000000
     29       0.000000   0.000000   0.000000   0.000000   0.000000   0.000000
     30       0.000000   0.000000   0.000000   0.000000   0.000000   0.000000
     31       0.000000   0.000000   0.000000   0.000000   0.000000   0.000000
     32       0.000000   0.000000   0.000000   0.000000   0.000000   0.000000
     33       0.000000   0.000000   0.000000   0.000000   0.000000   0.000000
     34       0.000000   0.000000   0.000000   0.000000   0.000000   0.000000
     35       0.000000   0.000000   0.000000   0.000000   0.000000   0.000000
     36       0.000000   0.000000   0.000000   0.000000   0.000000   0.000000
     37       0.000000   0.000000   0.000000   0.000000   0.000000   0.000000
     38       0.000000   0.000000   0.000000   0.000000   0.000000   0.000000
     39       0.000000   0.000000   0.000000   0.000000   0.000000   0.000000
     40       0.000000   0.000000   0.000000   0.000000   0.000000   0.000000
     41       0.000000   0.000000   0.000000   0.000000   0.000000   0.000000
     42       0.000000   0.000000   0.000000   0.000000   0.000000   0.000000
     43       0.000000   0.000000   0.000000   0.000000   0.000000   0.000000
     44       0.000000   0.000000   0.000000   0.000000   0.000000   0.000000
     45       0.000000   0.000000   0.000000   0.000000   0.000000   0.000000
     46       0.000000   0.000000   0.000000   0.000000   0.000000   0.000000
     47       0.000000   0.000000   0.000000   0.000000   0.000000   0.000000
     48       0.000000   0.000000   0.000000   0.000000   0.000000   0.000000
     49       0.000000   0.000000   0.000000   0.000000   0.000000   0.000000
     50       0.000000   0.000000   0.000000   0.000000   0.000000   0.000000
     51       0.000000   0.000000   0.000000   0.000000   0.000000   0.000000
     52       0.000000   0.000000   0.000000   0.000000   0.000000   0.000000
     53       0.000000   0.000000   0.000000   0.000000   0.000000   0.000000
     54       0.000000   0.000000   0.000000   0.000000   0.000000   0.000000
     55       0.000000   0.000000   0.000000   0.000000   0.000000   0.000000
     56       0.000000   0.000000   0.000000   0.000000   0.000000   0.000000
     57       0.000000   0.000000   0.000000   0.000000   0.000000   0.000000
     58       0.000000   0.000000   0.000000   0.000000   0.000000   0.000000
     59       0.000000   0.000000   0.000000   0.000000   0.000000   0.000000
     60       0.000000   0.000000   0.000000   0.000000   0.000000   0.000000
     61       0.000000   0.000000   0.000000   0.000000   0.000000   0.000000
     62       0.000000   0.000000   0.000000   0.000000   0.000000   0.000000
     63       0.000000   0.000000   0.000000   0.000000   0.000000   0.000000
     64       0.000000   0.000000   0.000000   0.000000   0.000000   0.000000
     65       0.000000   0.000000   0.000000   0.000000   0.000000   0.000000
     66       0.000000   0.000000   0.000000   0.000000   0.000000   0.000000
     67       0.000000   0.000000   0.000000   0.000000   0.000000   0.000000
     68       0.000000   0.000000   0.000000   0.000000   0.000000   0.000000
     69       0.000000   0.000000   0.000000   0.000000   0.000000   0.000000
     70       0.000000   0.000000   0.000000   0.000000   0.000000   0.000000
     71       0.000000   0.000000   0.000000   0.000000   0.000000   0.000000
     72       0.000000   0.000000   0.000000   0.000000   0.000000   0.000000
     73       0.000000   0.000000   0.000000   0.000000   0.000000   0.000000
     74       0.000000   0.000000   0.000000   0.000000   0.000000   0.000000
     75       0.000000   0.000000   0.000000   0.000000   0.000000   0.000000
     76       0.000000   0.000000   0.000000   0.000000   0.000000   0.000000
     77       0.000000   0.000000   0.000000   0.000000   0.000000   0.000000
     78       0.000000   0.000000   0.000000   0.000000   0.000000   0.000000
     79       0.000000   0.000000   0.000000   0.000000   0.000000   0.000000
     80       0.000000   0.000000   0.000000   0.000000   0.000000   0.000000
     81       0.000000   0.000000   0.000000   0.000000   0.000000   0.000000
     82       0.000000   0.000000   0.000000   0.000000   0.000000   0.000000
     83       0.000000   0.000000   0.000000   0.000000   0.000000   0.000000
     84       0.000000   0.000000   0.000000   0.000000   0.000000   0.000000
     85       0.000000   0.000000   0.000000   0.000000   0.000000   0.000000
     86       0.000000   0.000000   0.000000   0.000000   0.000000   0.000000
     87       0.000000   0.000000   0.000000   0.000000   0.000000   0.000000
     88       0.000000   0.000000   0.000000   0.000000   0.000000   0.000000
     89       0.000000   0.000000   0.000000   0.000000   0.000000   0.000000
     90       0.000000   0.000000   0.000000   0.000000   0.000000   0.000000
     91       0.000000   0.000000   0.000000   0.000000   0.000000   0.000000
     92       0.000000   0.000000   0.000000   0.000000   0.000000   0.000000
     93       0.000000   0.000000   0.000000   0.000000   0.000000   0.000000
     94       0.000000   0.000000   0.000000   0.000000   0.000000   0.000000
     95       0.000000   0.000000   0.000000   0.000000   0.000000   0.000000
     96       0.000000   0.000000   0.000000   0.000000   0.000000   0.000000
     97       0.000000   0.000000   0.000000   0.000000   0.000000   0.000000
     98       0.000000   0.000000   0.000000   0.000000   0.000000   0.000000
     99       0.000000   0.000000   0.000000   0.000000   0.000000   0.000000
    100       0.000000   0.000000   0.000000   0.000000   0.000000   0.000000
    101       0.000000   0.000000   0.000000   0.000000   0.000000   0.000000
    102       0.000000   0.000000   0.000000   0.000000   0.000000   0.000000
    103       0.000000   0.000000   0.000000   0.000000   0.000000   0.000000
    104       0.000000   0.000000   0.000000   0.000000   0.000000   0.000000
    105       0.000000   0.000000   0.000000   0.000000   0.000000   0.000000
    106       0.000000   0.000000   0.000000   0.000000   0.000000   0.000000
    107       0.000000   0.000000   0.000000   0.000000   0.000000   0.000000
                  6          7          8          9         10         11    
      0      -0.050793   0.063764  -0.049664   0.012316   0.026079  -0.018133
      1       0.032379  -0.031610  -0.046767  -0.078382   0.006389   0.006285
      2      -0.064654   0.024672   0.002455  -0.007779  -0.114129   0.015728
      3      -0.058807   0.119540  -0.028422   0.016979  -0.016961  -0.054197
      4       0.037903  -0.059494  -0.058489  -0.070682   0.033739   0.035928
      5      -0.060616   0.025763  -0.006583   0.124747  -0.037098   0.172320
      6      -0.054850   0.170612  -0.010139   0.039615  -0.070208  -0.045197
      7       0.025323  -0.030282  -0.050441  -0.037438   0.048046   0.039566
      8      -0.098195   0.017085  -0.016163   0.172852   0.084533   0.166633
      9      -0.043471   0.167684  -0.011163   0.055932  -0.082501  -0.001323
     10       0.008693   0.027034  -0.031393  -0.010470   0.036244   0.013738
     11      -0.136783   0.006547  -0.019469   0.098687   0.136594   0.005700
     12      -0.035221   0.113470  -0.031501   0.049465  -0.041264   0.032605
     13       0.003722   0.054869  -0.020419  -0.016720   0.009487  -0.015139
     14      -0.142593   0.003930  -0.012369  -0.024735   0.065712  -0.145719
     15      -0.038223   0.061801  -0.050890   0.028609   0.012731   0.024884
     16       0.014708   0.025953  -0.027779  -0.051880  -0.005431  -0.019126
     17      -0.110248   0.012761  -0.000332  -0.082076  -0.059755  -0.143584
     18      -0.057711   0.006012  -0.072535  -0.009886   0.071223  -0.026366
     19       0.047176  -0.064949  -0.056846  -0.105107   0.000135   0.001707
     20      -0.015765   0.037061   0.015474  -0.048552  -0.214163   0.019436
     21      -0.067814   0.120796  -0.028354   0.002636  -0.008078  -0.087921
     22       0.050867  -0.102924  -0.072882  -0.091339   0.043232   0.054854
     23      -0.029510   0.033943  -0.002699   0.185062  -0.074342   0.295289
     24      -0.031422   0.019557  -0.066603   0.024820   0.044942   0.051503
     25       0.011164   0.046688  -0.019554  -0.057582  -0.025731  -0.041311
     26      -0.113746   0.011353   0.006295  -0.180224  -0.116218  -0.261988
     27      -0.041120   0.207907   0.003911   0.072992  -0.124599   0.006493
     28      -0.000351   0.050243  -0.025031   0.016349   0.048208   0.016150
     29      -0.162972   0.000311  -0.027653   0.138473   0.233732  -0.000890
     30       0.126170  -0.005439   0.066886  -0.041442   0.121457  -0.082762
     31      -0.048452  -0.052716   0.114433   0.233487   0.071878  -0.081453
     32       0.292887   0.035285  -0.079577   0.142950  -0.025214   0.020156
     33      -0.041094  -0.046802  -0.104691  -0.003141   0.098442  -0.010538
     34       0.040727  -0.045513  -0.043418  -0.113443  -0.011712  -0.009608
     35      -0.035916   0.037579   0.046363  -0.153122  -0.255872  -0.074093
     36      -0.028134  -0.097344  -0.142462   0.068844  -0.045284  -0.084732
     37       0.047274  -0.097412  -0.086596  -0.053202  -0.060337  -0.037790
     38      -0.014557   0.044993   0.001136  -0.152648   0.091822   0.072544
     39      -0.016588  -0.128483  -0.190744   0.139479  -0.026348  -0.108694
     40       0.064981  -0.164908  -0.151993   0.084182  -0.280314  -0.181384
     41       0.002223   0.015719  -0.073252  -0.075108   0.305283   0.120433
     42       0.018182  -0.001959  -0.019123  -0.137470  -0.006484   0.047612
     43      -0.027361  -0.014670   0.041393   0.075226  -0.042274   0.067130
     44       0.021457  -0.052496  -0.145749  -0.032672   0.136520  -0.009758
     45       0.211477   0.079448  -0.030170  -0.153546   0.070681   0.028684
     46      -0.156785  -0.031159  -0.019438   0.069183   0.009883   0.109907
     47       0.007765  -0.061420  -0.147384  -0.032065   0.128359  -0.011048
     48      -0.082341   0.012327  -0.062447  -0.033152   0.072570  -0.051727
     49       0.070591  -0.112508  -0.081141  -0.109980   0.013398   0.009980
     50       0.077034   0.049240  -0.004455   0.061158  -0.230058   0.122848
     51       0.134486  -0.006249   0.057863  -0.044166   0.128269  -0.078874
     52      -0.041790  -0.069773   0.196853   0.363269   0.155940  -0.257863
     53       0.231076   0.052205   0.003388   0.150243  -0.131794   0.028472
     54      -0.060909   0.212255   0.005131   0.043682  -0.102441  -0.071113
     55       0.028467  -0.051381  -0.058658  -0.032009   0.068931   0.062056
     56      -0.096211   0.018515  -0.021432   0.269359   0.141519   0.284246
     57      -0.026013   0.111798  -0.031966   0.061598  -0.051704   0.066310
     58      -0.008631   0.098569  -0.006104   0.005487   0.001018  -0.035239
     59      -0.173566  -0.004403  -0.015406  -0.078735   0.108957  -0.268764
     60       0.125184   0.026705   0.006572  -0.132443   0.049708   0.037922
     61      -0.090531  -0.020863   0.012968   0.072633  -0.018426   0.089248
     62       0.058440  -0.051477  -0.126767  -0.031120   0.110268  -0.026181
     63       0.130127   0.003988   0.048086  -0.105991   0.057590   0.038640
     64      -0.112410   0.007757  -0.044236   0.033730  -0.044829   0.089045
     65      -0.028385  -0.099832  -0.084065  -0.021015   0.028548  -0.022304
     66       0.267793   0.057527   0.101843  -0.108181   0.138492   0.012364
     67      -0.201768  -0.034613  -0.139603   0.047748  -0.056729   0.118142
     68       0.004656  -0.082503  -0.034934  -0.029127   0.023550  -0.035778
     69       0.094840   0.007106   0.008382  -0.123333   0.035375   0.043120
     70      -0.125855   0.031107  -0.082443   0.003666  -0.060789   0.085644
     71      -0.203768  -0.191942  -0.164853   0.009221  -0.044466   0.023472
     72       0.010543  -0.093173   0.082211  -0.053485  -0.014276   0.077971
     73      -0.006392   0.063078   0.074955   0.013436  -0.030101   0.055511
     74       0.069665  -0.046161   0.012147  -0.041924   0.046320  -0.053930
     75      -0.100588  -0.098348   0.078811  -0.063700  -0.045656   0.081375
     76       0.075477   0.101278   0.173679   0.001607  -0.020786   0.034983
     77       0.040738  -0.068804  -0.047707  -0.032769   0.046706  -0.042110
     78       0.038065  -0.119544   0.096004  -0.029486  -0.020401   0.089408
     79      -0.005616   0.011218   0.080564   0.051020  -0.050080   0.079105
     80       0.221017   0.021661   0.065642  -0.064270   0.094315  -0.086924
     81       0.009009  -0.143647   0.107709  -0.019229  -0.040741   0.103268
     82      -0.016929   0.135652   0.059160  -0.037875  -0.001069   0.020814
     83       0.003348  -0.053886   0.117786  -0.044954  -0.000038  -0.051109
     84       0.082835  -0.149896   0.089745  -0.004376  -0.012717   0.103950
     85      -0.047272   0.119795  -0.013588  -0.032452  -0.007081   0.031738
     86       0.006198  -0.043240   0.164641  -0.051249  -0.002197  -0.057631
     87      -0.011727  -0.112859   0.098492  -0.043017  -0.032844   0.087727
     88      -0.024493   0.186298   0.051860  -0.072872   0.020584  -0.006125
     89      -0.077407  -0.093539   0.097589  -0.030831  -0.045216  -0.025499
     90      -0.056726  -0.223864   0.169152   0.023673  -0.114722   0.152028
     91       0.017300   0.160542   0.146484  -0.048749   0.009282   0.004846
     92       0.039315  -0.024596   0.185892  -0.058623   0.016447  -0.069792
     93      -0.048664  -0.253568   0.177522   0.043025  -0.126263   0.172185
     94       0.012094   0.115926   0.151879  -0.021602  -0.014337   0.034637
     95       0.103298   0.013989   0.205774  -0.075083   0.058202  -0.093997
     96      -0.062673  -0.255254   0.185621   0.042498  -0.134308   0.172527
     97       0.020564   0.207376   0.134474  -0.077441   0.033895  -0.026009
     98       0.007325  -0.032210   0.257409  -0.056873  -0.013578  -0.066140
     99      -0.105723  -0.220570   0.189324   0.016332  -0.138291   0.147546
    100       0.043919   0.176161   0.216125  -0.054577   0.015513  -0.004821
    101       0.033591  -0.033955   0.143489  -0.054018   0.017317  -0.063512
    102       0.124967  -0.013992   0.094032  -0.000022   0.161223  -0.150407
    103      -0.037407  -0.061082   0.156507   0.306757   0.115351  -0.173721
    104       0.389959   0.064739  -0.059849   0.237741  -0.103583   0.051427
    105      -0.026978  -0.108295  -0.146865   0.107346  -0.126629  -0.119935
    106       0.053864  -0.117758  -0.108040   0.029065  -0.125403  -0.071897
    107      -0.007308   0.038454  -0.033110  -0.108073   0.253918   0.129195
                 12         13         14         15         16         17    
      0      -0.018267  -0.090488  -0.008723   0.003422  -0.005991  -0.084181
      1      -0.047889  -0.067008   0.008648   0.004531   0.000568   0.045161
      2      -0.084600  -0.003069  -0.007297   0.012933  -0.001145   0.228481
      3       0.056772  -0.018347  -0.012729   0.001307  -0.002388  -0.047188
      4      -0.092056  -0.096286   0.011875   0.004894  -0.001505   0.019460
      5      -0.182566   0.096715   0.009344   0.006722  -0.004907   0.136649
      6       0.076940   0.070161  -0.012214  -0.000022   0.002231   0.030728
      7      -0.048253  -0.037332   0.013280   0.000206  -0.000749  -0.023407
      8      -0.103485   0.103613   0.011569  -0.003274  -0.010680  -0.097509
      9       0.019575   0.087041  -0.007114   0.000682   0.002380   0.056160
     10       0.043707   0.049917   0.010887  -0.004486   0.002694  -0.028992
     11       0.084680   0.005357  -0.007435  -0.004105  -0.012325  -0.192895
     12      -0.053982   0.015169  -0.002881   0.001794  -0.001780  -0.009748
     13       0.088938   0.079604   0.007294  -0.004242   0.005212   0.019569
     14       0.181696  -0.093298  -0.026552   0.006465  -0.007639  -0.001411
     15      -0.072689  -0.074224  -0.004184   0.003558  -0.006077  -0.077683
     16       0.043058   0.021345   0.006910   0.000098   0.004353   0.055071
     17       0.094800  -0.096594  -0.025110   0.014369  -0.002325   0.201213
     18      -0.046703  -0.165203  -0.011512   0.005584  -0.007331  -0.055991
     19      -0.086646  -0.119771   0.006375   0.003516  -0.000357   0.025091
     20      -0.142358  -0.011828  -0.004187   0.006757   0.002011   0.133420
     21       0.099637  -0.033018  -0.015971   0.000490  -0.002559  -0.061089
     22      -0.159244  -0.164236   0.013234   0.008460  -0.003184   0.019029
     23      -0.324602   0.173320   0.021966   0.007793  -0.003569   0.189833
     24      -0.130919  -0.131971  -0.001509   0.005391  -0.009935  -0.119394
     25       0.077496   0.043804   0.004514  -0.000338   0.006451   0.083858
     26       0.168970  -0.174253  -0.038828   0.020743   0.000581   0.308313
     27       0.032527   0.156526  -0.006019   0.000077   0.005862   0.123847
     28       0.080361   0.094802   0.011517  -0.008218   0.003063  -0.069729
     29       0.155855   0.006448  -0.007589  -0.012507  -0.016966  -0.402822
     30      -0.061009   0.119168   0.086187   0.015678  -0.038857   0.022043
     31      -0.055692  -0.023206  -0.031452  -0.000482   0.037776   0.008031
     32       0.087584  -0.080357   0.005381   0.002587   0.012096  -0.020804
     33      -0.075169  -0.225188  -0.023863   0.009725  -0.006255   0.069140
     34      -0.076449  -0.099071   0.012937   0.000858  -0.000368  -0.047368
     35      -0.162591  -0.020273   0.021332  -0.017826   0.002008  -0.310037
     36      -0.027892  -0.037909  -0.033431  -0.024630   0.007335   0.060915
     37      -0.017500   0.087706  -0.035056  -0.073484  -0.033926  -0.039471
     38      -0.041526   0.006901  -0.020181  -0.103164  -0.037266  -0.124819
     39      -0.000253   0.044138  -0.112199  -0.087173  -0.029320   0.122211
     40       0.010177   0.362169  -0.132631  -0.163774  -0.080234  -0.112758
     41       0.012629   0.017772  -0.142060  -0.190586  -0.090940   0.088863
     42       0.058248   0.092221   0.166267   0.063055   0.060428   0.001740
     43       0.069752  -0.001007  -0.044344   0.049978   0.009573  -0.008482
     44       0.011151   0.122404  -0.007120   0.017809   0.099810   0.007388
     45       0.018559   0.150946   0.027320   0.067784  -0.013456   0.007023
     46       0.061764  -0.009369  -0.025479  -0.038709   0.096691   0.001557
     47       0.015813   0.122048   0.008900   0.018549   0.105623   0.006787
     48      -0.036682  -0.151930  -0.004659   0.002228  -0.007415  -0.128889
     49      -0.121480  -0.177113  -0.003164   0.005344  -0.000176   0.075621
     50      -0.144681  -0.013025  -0.025395   0.019749   0.003900   0.398920
     51      -0.049436   0.119899   0.082673   0.019754  -0.034364   0.006245
     52      -0.190887  -0.025869   0.035306  -0.008060   0.008452   0.037753
     53       0.005245  -0.102536   0.023466  -0.032588  -0.015402   0.137012
     54       0.134245   0.126107  -0.015164  -0.001371   0.005976   0.075283
     55      -0.083539  -0.059663   0.015976   0.000329  -0.002902  -0.055506
     56      -0.180113   0.181991   0.026493  -0.010584  -0.013835  -0.217935
     57      -0.098205   0.028750   0.001381   0.001861  -0.001796  -0.000512
     58       0.159952   0.146389   0.004705  -0.007610   0.007492   0.022378
     59       0.328269  -0.168405  -0.042092   0.007302  -0.008427  -0.038482
     60       0.023832   0.112968   0.045900   0.042661   0.016879   0.006971
     61       0.065894  -0.007635  -0.036659   0.007983   0.050627  -0.003365
     62       0.018287   0.125705   0.000324   0.052444   0.071548   0.003231
     63       0.004764   0.093380  -0.031936   0.011251   0.013619   0.009760
     64       0.101279   0.014026   0.100425   0.065931   0.058985  -0.007706
     65       0.058854   0.077134   0.109377   0.087405   0.081978  -0.002729
     66      -0.074581   0.119468  -0.280455   0.045802  -0.077012   0.002605
     67       0.145954   0.023544   0.247768  -0.040900   0.169184   0.008492
     68       0.043986   0.067525   0.058293   0.145063   0.029225  -0.011220
     69       0.034681   0.101041   0.077593   0.022660   0.038490   0.010240
     70       0.124536   0.030865   0.200298   0.107729   0.063769  -0.010438
     71       0.145394   0.045979   0.363960  -0.038689   0.228466   0.015711
     72       0.052759   0.021896   0.045743  -0.082709   0.071324   0.017742
     73       0.048036  -0.001072  -0.074384   0.184347  -0.076752  -0.026039
     74       0.010658   0.070489  -0.042008   0.193740  -0.035102  -0.018807
     75       0.102576  -0.024331   0.273312  -0.349931   0.063208   0.064352
     76       0.006943  -0.015780  -0.220042   0.269090  -0.173154  -0.039044
     77       0.026303   0.088598   0.003330   0.192210   0.025811  -0.019961
     78       0.038693   0.022658  -0.061877   0.041081   0.086658  -0.005854
     79       0.046314  -0.008547  -0.164025   0.299365  -0.035757  -0.049745
     80      -0.061311   0.104229  -0.271573   0.401963  -0.115411  -0.050436
     81       0.057567   0.004690  -0.041848   0.019074   0.087277  -0.008530
     82       0.048650   0.007639   0.073729  -0.008204  -0.115775   0.018718
     83       0.042207  -0.009560   0.059861  -0.023278  -0.115085   0.013811
     84       0.011513   0.046398  -0.241157   0.224798   0.283376  -0.059778
     85       0.077605   0.026337   0.175916   0.027353  -0.291018   0.035858
     86       0.034441  -0.029136   0.039917  -0.086811  -0.050476   0.014126
     87       0.067180   0.002655   0.065315  -0.099764   0.026594   0.021987
     88       0.045753   0.012644   0.172592  -0.148530  -0.125616   0.050680
     89       0.104522  -0.040905   0.233598  -0.094556  -0.392682   0.048266
     90       0.114022  -0.062966  -0.011834   0.011960  -0.093298  -0.011056
     91       0.013880  -0.015058  -0.037469  -0.077814   0.108525   0.001799
     92       0.006888  -0.021667  -0.037776  -0.082043   0.093772  -0.000342
     93       0.108189  -0.066810  -0.082355   0.092580  -0.034472  -0.032567
     94       0.020405  -0.025306  -0.090829   0.013576   0.112755  -0.018291
     95      -0.051156   0.002391  -0.173667  -0.057740   0.380612  -0.025471
     96       0.120231  -0.076915  -0.050526   0.059464  -0.087954  -0.024828
     97       0.009040  -0.002789   0.028832  -0.173522   0.088152   0.025135
     98       0.032134  -0.071630  -0.000802  -0.204474   0.028063   0.011340
     99       0.156658  -0.095646   0.119187  -0.121913  -0.294639   0.021310
    100      -0.013246  -0.034001  -0.131401  -0.127324   0.291306  -0.013872
    101       0.014032  -0.005033  -0.009947  -0.029628   0.029725   0.002343
    102      -0.111982   0.127375   0.107037   0.018542  -0.045758   0.029708
    103      -0.122012  -0.030715   0.005758  -0.006521   0.021448   0.017187
    104       0.136732  -0.201725   0.031945  -0.034279   0.001081  -0.038915
    105      -0.008674   0.055942  -0.048479  -0.046133  -0.004390   0.023436
    106       0.037608   0.241859  -0.084403  -0.127420  -0.063660  -0.037907
    107       0.010665   0.007867  -0.086331  -0.153998  -0.069667   0.025949
                 18         19         20         21         22         23    
      0       0.013689   0.130248   0.008764   0.008600   0.003125  -0.058052
      1       0.001543   0.008088   0.005946   0.003133   0.015009  -0.039214
      2      -0.000877   0.046323   0.007768  -0.003291   0.037412  -0.004280
      3       0.005643   0.068822   0.003055   0.005644  -0.012391  -0.029523
      4       0.005038   0.033038   0.008646   0.003959   0.026234  -0.051963
      5       0.000770   0.019812   0.007184  -0.007742   0.074090   0.015097
      6      -0.005785  -0.014411  -0.003608  -0.001557  -0.010539   0.021887
      7       0.000030  -0.030658   0.002728   0.001186   0.009332  -0.023138
      8       0.006216  -0.008694   0.002220  -0.004442   0.028163   0.016038
      9      -0.006084  -0.010195  -0.000966  -0.004770   0.021583   0.026076
     10      -0.010169  -0.130966  -0.007317  -0.001988  -0.027311   0.018887
     11       0.010532   0.007023  -0.004725   0.008919  -0.085028  -0.011172
     12       0.003512   0.056276   0.004137   0.001753   0.006810  -0.014945
     13      -0.015443  -0.162174  -0.009365  -0.005577  -0.014039   0.038753
     14       0.006621   0.049547   0.001588   0.004082  -0.006337  -0.012367
     15       0.014226   0.134898   0.009079   0.010398  -0.010983  -0.064715
     16      -0.009886  -0.096025  -0.001944  -0.003516   0.014625   0.005172
     17       0.001314   0.070852   0.010755  -0.005940   0.090773  -0.004858
     18       0.008713   0.093155   0.005623  -0.002466   0.032419   0.024518
     19       0.000582  -0.007734  -0.001343   0.001918  -0.027353   0.010014
     20       0.000108   0.013475  -0.008012   0.015222  -0.143952  -0.026630
     21       0.006137   0.066350   0.002211   0.006519  -0.022444  -0.030413
     22       0.010889   0.095860   0.015276   0.008119   0.040057  -0.087823
     23      -0.002838   0.006782   0.008259  -0.012569   0.107806   0.029981
     24       0.024127   0.214864   0.015641   0.016856  -0.012040  -0.109115
     25      -0.014820  -0.132139  -0.004853  -0.006833   0.018267   0.026503
     26       0.000313   0.108801   0.015235  -0.007653   0.131643  -0.015017
     27      -0.014101  -0.063953  -0.003460  -0.011661   0.049249   0.059314
     28      -0.013055  -0.174435  -0.012674  -0.001734  -0.058578   0.034219
     29       0.016065  -0.016332  -0.014172   0.020425  -0.207176  -0.025629
     30      -0.190089   0.039562   0.119753  -0.239590  -0.032758   0.009067
     31       0.135473  -0.015728  -0.017674  -0.005371   0.024111   0.011179
     32       0.050981   0.015751   0.097977   0.004844   0.075956   0.017094
     33      -0.006981  -0.021245  -0.011720  -0.006517  -0.041146   0.131677
     34       0.006139   0.023534   0.005530   0.002355   0.009153  -0.025463
     35      -0.001812  -0.105986   0.002254  -0.012552   0.030618   0.035501
     36      -0.032382  -0.354223  -0.004946  -0.004811   0.008087   0.018702
     37      -0.011553   0.230847  -0.032135   0.018857  -0.012591   0.182220
     38      -0.088986  -0.042365  -0.084070   0.058328  -0.000848   0.064882
     39      -0.038712  -0.385813   0.070271  -0.024516   0.002460  -0.417207
     40      -0.000341   0.251992   0.114246   0.029611  -0.039697  -0.686362
     41      -0.108965  -0.137876   0.006999   0.005887   0.000639  -0.423880
     42      -0.084598  -0.029886  -0.168758   0.219551   0.030735  -0.048652
     43       0.066968   0.065842  -0.050282  -0.141753  -0.007567   0.078510
     44       0.154126  -0.046557   0.350195  -0.004881  -0.026852  -0.017145
     45       0.069640   0.008014   0.080702   0.418590   0.035744   0.051568
     46       0.080701  -0.052226   0.228907  -0.284274  -0.044650  -0.053567
     47       0.134338  -0.042205   0.329561  -0.024282  -0.027348  -0.021914
     48       0.010963   0.092549   0.014860  -0.013255   0.125593   0.025516
     49      -0.011936  -0.104142  -0.017670   0.000175  -0.105625   0.096428
     50       0.003743   0.081990  -0.037898   0.060146  -0.470874  -0.107019
     51      -0.174548   0.033571   0.136651  -0.256423   0.041321   0.007622
     52       0.065832  -0.012859  -0.116387   0.240010  -0.024383  -0.015042
     53      -0.038938   0.064747  -0.109256   0.229825  -0.767704   0.058228
     54      -0.014816  -0.083787  -0.009836  -0.005722  -0.022118   0.057988
     55       0.004729   0.001755   0.005773   0.003113   0.015690  -0.040535
     56       0.007388  -0.045897   0.000384  -0.007694   0.035712   0.032252
     57       0.003682   0.058889   0.005537   0.000709   0.016020  -0.015476
     58      -0.022810  -0.230608  -0.016528  -0.009231  -0.028228   0.077448
[...]
     73       0.000005  -0.000122  -0.000037   0.000003   0.000027   0.000087
     74       0.000019  -0.000013   0.000166  -0.000013   0.000051  -0.000005
     75       0.000034   0.000342   0.000150  -0.000195   0.000328   0.000363
     76      -0.000420   0.001525  -0.000519  -0.001527   0.000239   0.000013
     77      -0.000500   0.000392  -0.002599  -0.004799  -0.000746   0.000173
     78      -0.000236  -0.000523   0.000419  -0.002245   0.000097   0.000894
     79       0.000250   0.000292   0.000053   0.002504  -0.000109  -0.001186
     80       0.000242  -0.000316   0.000532   0.000281  -0.000077   0.000366
     81       0.000015   0.000050   0.000106   0.000070  -0.000021  -0.000005
     82      -0.000011  -0.000063   0.000015  -0.000019   0.000009   0.000000
     83       0.000001   0.000026   0.000120   0.000090   0.000002   0.000029
     84       0.000045  -0.000171  -0.000583  -0.000235  -0.000104  -0.000113
     85      -0.000003  -0.000221  -0.001181  -0.000456  -0.000107  -0.000210
     86       0.000004  -0.000399  -0.001384  -0.000465  -0.000091  -0.000349
     87      -0.000121  -0.000614  -0.000905  -0.000098   0.000199   0.000442
     88       0.000133   0.000470   0.000641   0.000073  -0.000116  -0.000027
     89       0.000041   0.000054   0.000118   0.000048  -0.000068  -0.000074
     90       0.000074   0.000058   0.000010  -0.000002   0.000004  -0.000031
     91      -0.000023  -0.000063   0.000048   0.000003   0.000017   0.000013
     92       0.000022   0.000010   0.000003   0.000011   0.000024   0.000013
     93      -0.000716  -0.000469   0.000393  -0.000110  -0.000022   0.000249
     94       0.000745   0.000346  -0.000248   0.000199   0.000018  -0.000250
     95       0.000247  -0.000097  -0.000045  -0.000008   0.000024   0.000023
     96      -0.000218  -0.000073  -0.000860  -0.000326  -0.000034   0.000111
     97      -0.000126   0.000015  -0.000657  -0.000317  -0.000034   0.000066
     98       0.000011  -0.000027   0.000174   0.000129  -0.000020  -0.000068
     99       0.000053  -0.000090   0.000033  -0.000005  -0.000001   0.000040
    100      -0.000350   0.000189  -0.000011  -0.000098  -0.000112   0.000012
    101      -0.000598  -0.000004  -0.000145  -0.000452  -0.000229  -0.000020
    102      -0.000188   0.000299   0.001781  -0.000225   0.000242   0.046933
    103       0.000130  -0.000067  -0.001249   0.000244   0.000172   0.038547
    104      -0.000048   0.000155   0.000158  -0.000134  -0.000003   0.001775
    105       0.000341   0.052539  -0.008002  -0.000248  -0.035908   0.000071
    106      -0.000191  -0.031005   0.004158   0.000197  -0.007543   0.000088
    107       0.000058   0.009729  -0.000630  -0.000174   0.047741  -0.000221


-----------
IR SPECTRUM  
-----------

 Mode    freq (cm**-1)   T**2         TX         TY         TZ
-------------------------------------------------------------------
   7:        30.55    0.000000  (  0.000000   0.000000   0.000000)
   8:        40.79    0.000000  (  0.000000   0.000000   0.000000)
   9:        43.15    0.000000  (  0.000000   0.000000   0.000000)
  10:        52.40    0.000000  (  0.000000   0.000000   0.000000)
  11:        54.46    0.000000  (  0.000000   0.000000   0.000000)
  12:        61.32    0.000000  (  0.000000   0.000000   0.000000)
  13:        67.40    0.000000  (  0.000000   0.000000   0.000000)
  14:        83.25    0.000000  (  0.000000   0.000000   0.000000)
  15:       109.64    0.000000  (  0.000000   0.000000   0.000000)
  16:       125.22    0.000000  (  0.000000   0.000000   0.000000)
  17:       132.33    0.000000  (  0.000000   0.000000   0.000000)
  18:       143.67    0.000000  (  0.000000   0.000000   0.000000)
  19:       152.63    0.000000  (  0.000000   0.000000   0.000000)
  20:       198.27    0.000000  (  0.000000   0.000000   0.000000)
  21:       231.30    0.000000  (  0.000000   0.000000   0.000000)
  22:       240.55    0.000000  (  0.000000   0.000000   0.000000)
  23:       251.37    0.000000  (  0.000000   0.000000   0.000000)
  24:       259.78    0.000000  (  0.000000   0.000000   0.000000)
  25:       264.57    0.000000  (  0.000000   0.000000   0.000000)
  26:       279.31    0.000000  (  0.000000   0.000000   0.000000)
  27:       374.27    0.000000  (  0.000000   0.000000   0.000000)
  28:       379.33    0.000000  (  0.000000   0.000000   0.000000)
  29:       394.05    0.000000  (  0.000000   0.000000   0.000000)
  30:       418.62    0.000000  (  0.000000   0.000000   0.000000)
  31:       426.54    0.000000  (  0.000000   0.000000   0.000000)
  32:       440.62    0.000000  (  0.000000   0.000000   0.000000)
  33:       449.07    0.000000  (  0.000000   0.000000   0.000000)
  34:       474.22    0.000000  (  0.000000   0.000000   0.000000)
  35:       585.62    0.000000  (  0.000000   0.000000   0.000000)
  36:       627.19    0.000000  (  0.000000   0.000000   0.000000)
  37:       650.65    0.000000  (  0.000000   0.000000   0.000000)
  38:       656.82    0.000000  (  0.000000   0.000000   0.000000)
  39:       717.23    0.000000  (  0.000000   0.000000   0.000000)
  40:       739.45    0.000000  (  0.000000   0.000000   0.000000)
  41:       779.76    0.000000  (  0.000000   0.000000   0.000000)
  42:       827.88    0.000000  (  0.000000   0.000000   0.000000)
  43:       830.72    0.000000  (  0.000000   0.000000   0.000000)
  44:       870.14    0.000000  (  0.000000   0.000000   0.000000)
  45:       902.40    0.000000  (  0.000000   0.000000   0.000000)
  46:       921.90    0.000000  (  0.000000   0.000000   0.000000)
  47:       930.18    0.000000  (  0.000000   0.000000   0.000000)
  48:       933.75    0.000000  (  0.000000   0.000000   0.000000)
  49:       934.34    0.000000  (  0.000000   0.000000   0.000000)
  50:       939.73    0.000000  (  0.000000   0.000000   0.000000)
  51:       984.53    0.000000  (  0.000000   0.000000   0.000000)
  52:      1003.18    0.000000  (  0.000000   0.000000   0.000000)
  53:      1007.17    0.000000  (  0.000000   0.000000   0.000000)
  54:      1062.61    0.000000  (  0.000000   0.000000   0.000000)
  55:      1064.50    0.000000  (  0.000000   0.000000   0.000000)
  56:      1095.01    0.000000  (  0.000000   0.000000   0.000000)
  57:      1112.15    0.000000  (  0.000000   0.000000   0.000000)
  58:      1122.80    0.000000  (  0.000000   0.000000   0.000000)
  59:      1152.26    0.000000  (  0.000000   0.000000   0.000000)
  60:      1176.15    0.000000  (  0.000000   0.000000   0.000000)
  61:      1178.91    0.000000  (  0.000000   0.000000   0.000000)
  62:      1204.72    0.000000  (  0.000000   0.000000   0.000000)
  63:      1214.98    0.000000  (  0.000000   0.000000   0.000000)
  64:      1239.18    0.000000  (  0.000000   0.000000   0.000000)
  65:      1269.00    0.000000  (  0.000000   0.000000   0.000000)
  66:      1276.62    0.000000  (  0.000000   0.000000   0.000000)
  67:      1278.66    0.000000  (  0.000000   0.000000   0.000000)
  68:      1290.75    0.000000  (  0.000000   0.000000   0.000000)
  69:      1306.41    0.000000  (  0.000000   0.000000   0.000000)
  70:      1351.24    0.000000  (  0.000000   0.000000   0.000000)
  71:      1364.39    0.000000  (  0.000000   0.000000   0.000000)
  72:      1378.91    0.000000  (  0.000000   0.000000   0.000000)
  73:      1426.30    0.000000  (  0.000000   0.000000   0.000000)
  74:      1427.23    0.000000  (  0.000000   0.000000   0.000000)
  75:      1447.59    0.000000  (  0.000000   0.000000   0.000000)
  76:      1491.64    0.000000  (  0.000000   0.000000   0.000000)
  77:      1505.45    0.000000  (  0.000000   0.000000   0.000000)
  78:      1508.21    0.000000  (  0.000000   0.000000   0.000000)
  79:      1511.79    0.000000  (  0.000000   0.000000   0.000000)
  80:      1515.08    0.000000  (  0.000000   0.000000   0.000000)
  81:      1545.32    0.000000  (  0.000000   0.000000   0.000000)
  82:      1548.81    0.000000  (  0.000000   0.000000   0.000000)
  83:      1560.85    0.000000  (  0.000000   0.000000   0.000000)
  84:      1564.32    0.000000  (  0.000000   0.000000   0.000000)
  85:      1566.96    0.000000  (  0.000000   0.000000   0.000000)
  86:      1651.78    0.000000  (  0.000000   0.000000   0.000000)
  87:      2873.65    0.000000  (  0.000000   0.000000   0.000000)
  88:      2884.10    0.000000  (  0.000000   0.000000   0.000000)
  89:      2934.00    0.000000  (  0.000000   0.000000   0.000000)
  90:      2946.06    0.000000  (  0.000000   0.000000   0.000000)
  91:      2966.81    0.000000  (  0.000000   0.000000   0.000000)
  92:      2973.37    0.000000  (  0.000000   0.000000   0.000000)
  93:      2974.64    0.000000  (  0.000000   0.000000   0.000000)
  94:      2978.97    0.000000  (  0.000000   0.000000   0.000000)
  95:      2979.18    0.000000  (  0.000000   0.000000   0.000000)
  96:      2985.61    0.000000  (  0.000000   0.000000   0.000000)
  97:      2998.07    0.000000  (  0.000000   0.000000   0.000000)
  98:      3059.84    0.000000  (  0.000000   0.000000   0.000000)
  99:      3062.74    0.000000  (  0.000000   0.000000   0.000000)
 100:      3069.68    0.000000  (  0.000000   0.000000   0.000000)
 101:      3076.93    0.000000  (  0.000000   0.000000   0.000000)
 102:      3081.84    0.000000  (  0.000000   0.000000   0.000000)
 103:      3261.61    0.000000  (  0.000000   0.000000   0.000000)
 104:      3327.39    0.000000  (  0.000000   0.000000   0.000000)
 105:      3413.80    0.000000  (  0.000000   0.000000   0.000000)
 106:      3581.86    0.000000  (  0.000000   0.000000   0.000000)
 107:      3597.87    0.000000  (  0.000000   0.000000   0.000000)

The first frequency considered to be a vibration is 7
The total number of vibrations considered is 101


--------------------------
THERMOCHEMISTRY AT 298.15K
--------------------------

Temperature         ... 298.15 K
Pressure            ... 1.00 atm
Total Mass          ... 215.29 AMU

Throughout the following assumptions are being made:
  (1) The electronic state is orbitally nondegenerate
  (2) There are no thermally accessible electronically excited states
  (3) Hindered rotations indicated by low frequency modes are not
      treated as such but are treated as vibrations and this may
      cause some error
  (4) All equations used are the standard statistical mechanics
      equations for an ideal gas
  (5) All vibrations are strictly harmonic

freq.      30.55  E(vib)   ...       0.55 
freq.      40.79  E(vib)   ...       0.54 
freq.      43.15  E(vib)   ...       0.53 
freq.      52.40  E(vib)   ...       0.52 
freq.      54.46  E(vib)   ...       0.52 
freq.      61.32  E(vib)   ...       0.51 
freq.      67.40  E(vib)   ...       0.50 
freq.      83.25  E(vib)   ...       0.48 
freq.     109.64  E(vib)   ...       0.45 
freq.     125.22  E(vib)   ...       0.43 
freq.     132.33  E(vib)   ...       0.42 
freq.     143.67  E(vib)   ...       0.41 
freq.     152.63  E(vib)   ...       0.40 
freq.     198.27  E(vib)   ...       0.35 
freq.     231.30  E(vib)   ...       0.32 
freq.     240.55  E(vib)   ...       0.31 
freq.     251.37  E(vib)   ...       0.30 
freq.     259.78  E(vib)   ...       0.30 
freq.     264.57  E(vib)   ...       0.29 
freq.     279.31  E(vib)   ...       0.28 
freq.     374.27  E(vib)   ...       0.21 
freq.     379.33  E(vib)   ...       0.21 
freq.     394.05  E(vib)   ...       0.20 
freq.     418.62  E(vib)   ...       0.18 
freq.     426.54  E(vib)   ...       0.18 
freq.     440.62  E(vib)   ...       0.17 
freq.     449.07  E(vib)   ...       0.17 
freq.     474.22  E(vib)   ...       0.15 
freq.     585.62  E(vib)   ...       0.11 
freq.     627.19  E(vib)   ...       0.09 
freq.     650.65  E(vib)   ...       0.08 
freq.     656.82  E(vib)   ...       0.08 
freq.     717.23  E(vib)   ...       0.07 
freq.     739.45  E(vib)   ...       0.06 
freq.     779.76  E(vib)   ...       0.05 
freq.     827.88  E(vib)   ...       0.04 
freq.     830.72  E(vib)   ...       0.04 
freq.     870.14  E(vib)   ...       0.04 
freq.     902.40  E(vib)   ...       0.03 
freq.     921.90  E(vib)   ...       0.03 
freq.     930.18  E(vib)   ...       0.03 
freq.     933.75  E(vib)   ...       0.03 
freq.     934.34  E(vib)   ...       0.03 
freq.     939.73  E(vib)   ...       0.03 
freq.     984.53  E(vib)   ...       0.02 
freq.    1003.18  E(vib)   ...       0.02 
freq.    1007.17  E(vib)   ...       0.02 
freq.    1062.61  E(vib)   ...       0.02 
freq.    1064.50  E(vib)   ...       0.02 
freq.    1095.01  E(vib)   ...       0.02 
freq.    1112.15  E(vib)   ...       0.01 
freq.    1122.80  E(vib)   ...       0.01 
freq.    1152.26  E(vib)   ...       0.01 
freq.    1176.15  E(vib)   ...       0.01 
freq.    1178.91  E(vib)   ...       0.01 
freq.    1204.72  E(vib)   ...       0.01 
freq.    1214.98  E(vib)   ...       0.01 
freq.    1239.18  E(vib)   ...       0.01 
freq.    1269.00  E(vib)   ...       0.01 
freq.    1276.62  E(vib)   ...       0.01 
freq.    1278.66  E(vib)   ...       0.01 
freq.    1290.75  E(vib)   ...       0.01 
freq.    1306.41  E(vib)   ...       0.01 
freq.    1351.24  E(vib)   ...       0.01 
freq.    1364.39  E(vib)   ...       0.01 
freq.    1378.91  E(vib)   ...       0.01 
freq.    1426.30  E(vib)   ...       0.00 
freq.    1427.23  E(vib)   ...       0.00 
freq.    1447.59  E(vib)   ...       0.00 
freq.    1491.64  E(vib)   ...       0.00 
freq.    1505.45  E(vib)   ...       0.00 
freq.    1508.21  E(vib)   ...       0.00 
freq.    1511.79  E(vib)   ...       0.00 
freq.    1515.08  E(vib)   ...       0.00 
freq.    1545.32  E(vib)   ...       0.00 
freq.    1548.81  E(vib)   ...       0.00 
freq.    1560.85  E(vib)   ...       0.00 
freq.    1564.32  E(vib)   ...       0.00 
freq.    1566.96  E(vib)   ...       0.00 
freq.    1651.78  E(vib)   ...       0.00 
freq.    2873.65  E(vib)   ...       0.00 
freq.    2884.10  E(vib)   ...       0.00 
freq.    2934.00  E(vib)   ...       0.00 
freq.    2946.06  E(vib)   ...       0.00 
freq.    2966.81  E(vib)   ...       0.00 
freq.    2973.37  E(vib)   ...       0.00 
freq.    2974.64  E(vib)   ...       0.00 
freq.    2978.97  E(vib)   ...       0.00 
freq.    2979.18  E(vib)   ...       0.00 
freq.    2985.61  E(vib)   ...       0.00 
freq.    2998.07  E(vib)   ...       0.00 
freq.    3059.84  E(vib)   ...       0.00 
freq.    3062.74  E(vib)   ...       0.00 
freq.    3069.68  E(vib)   ...       0.00 
freq.    3076.93  E(vib)   ...       0.00 
freq.    3081.84  E(vib)   ...       0.00 
freq.    3261.61  E(vib)   ...       0.00 
freq.    3327.39  E(vib)   ...       0.00 
freq.    3413.80  E(vib)   ...       0.00 
freq.    3581.86  E(vib)   ...       0.00 
freq.    3597.87  E(vib)   ...       0.00 

------------
INNER ENERGY
------------

The inner energy is: U= E(el) + E(ZPE) + E(vib) + E(rot) + E(trans)
    E(el)   - is the total energy from the electronic structure calculation
              = E(kin-el) + E(nuc-el) + E(el-el) + E(nuc-nuc)
    E(ZPE)  - the the zero temperature vibrational energy from the frequency calculation
    E(vib)  - the the finite temperature correction to E(ZPE) due to population
              of excited vibrational states
    E(rot)  - is the rotational thermal energy
    E(trans)- is the translational thermal energy

Summary of contributions to the inner energy U:
Electronic energy                ...    -49.35050345 Eh
Zero point energy                ...      0.29948776 Eh     187.93 kcal/mol
Thermal vibrational correction   ...      0.01762550 Eh      11.06 kcal/mol
Thermal rotational correction    ...      0.00141627 Eh       0.89 kcal/mol
Thermal translational correction ...      0.00141627 Eh       0.89 kcal/mol
-----------------------------------------------------------------------
Total thermal energy                    -49.03055764 Eh


Summary of corrections to the electronic energy:
(perhaps to be used in another calculation)
Total thermal correction                  0.02045805 Eh      12.84 kcal/mol
Non-thermal (ZPE) correction              0.29948776 Eh     187.93 kcal/mol
-----------------------------------------------------------------------
Total correction                          0.31994581 Eh     200.77 kcal/mol


--------
ENTHALPY
--------

The enthalpy is H = U + kB*T
                kB is Boltzmann's constant
Total free energy                 ...    -49.03055764 Eh 
Thermal Enthalpy correction       ...      0.00094421 Eh       0.59 kcal/mol
-----------------------------------------------------------------------
Total Enthalpy                    ...    -49.02961344 Eh


Note: Only C1 symmetry has been detected, increase convergence thresholds 
      if your molecule has a higher symmetry. Symmetry factor of 1.0 is   
      used for the rotational entropy correction. 
 

Note: Rotational entropy computed according to Herzberg 
Infrared and Raman Spectra, Chapter V,1, Van Nostrand Reinhold, 1945 
Point Group:  C1, Symmetry Number:   1  
Rotational constants in cm-1:     0.020516     0.009326     0.007433 

Vibrational entropy computed according to the QRRHO of S. Grimme
Chem.Eur.J. 2012 18 9955


-------
ENTROPY
-------

The entropy contributions are T*S = T*(S(el)+S(vib)+S(rot)+S(trans))
     S(el)   - electronic entropy
     S(vib)  - vibrational entropy
     S(rot)  - rotational entropy
     S(trans)- translational entropy
The entropies will be listed as mutliplied by the temperature to get
units of energy

Electronic entropy                ...      0.00000000 Eh      0.00 kcal/mol
Vibrational entropy               ...      0.03208228 Eh     20.13 kcal/mol
Rotational entropy                ...      0.01586670 Eh      9.96 kcal/mol
Translational entropy             ...      0.01995728 Eh     12.52 kcal/mol
-----------------------------------------------------------------------
Final entropy term                ...      0.06790626 Eh     42.61 kcal/mol

In case the symmetry of your molecule has not been determined correctly
or in case you have a reason to use a different symmetry number we print 
out the resulting rotational entropy values for sn=1,12 :
 --------------------------------------------------------
|  sn= 1 | S(rot)=       0.01586670 Eh      9.96 kcal/mol|
|  sn= 2 | S(rot)=       0.01521225 Eh      9.55 kcal/mol|
|  sn= 3 | S(rot)=       0.01482941 Eh      9.31 kcal/mol|
|  sn= 4 | S(rot)=       0.01455779 Eh      9.14 kcal/mol|
|  sn= 5 | S(rot)=       0.01434710 Eh      9.00 kcal/mol|
|  sn= 6 | S(rot)=       0.01417496 Eh      8.89 kcal/mol|
|  sn= 7 | S(rot)=       0.01402941 Eh      8.80 kcal/mol|
|  sn= 8 | S(rot)=       0.01390333 Eh      8.72 kcal/mol|
|  sn= 9 | S(rot)=       0.01379213 Eh      8.65 kcal/mol|
|  sn=10 | S(rot)=       0.01369265 Eh      8.59 kcal/mol|
|  sn=11 | S(rot)=       0.01360266 Eh      8.54 kcal/mol|
|  sn=12 | S(rot)=       0.01352050 Eh      8.48 kcal/mol|
 --------------------------------------------------------


-------------------
GIBBS FREE ENERGY
-------------------

The Gibbs free energy is G = H - T*S

Total enthalpy                    ...    -49.02961344 Eh 
Total entropy correction          ...     -0.06790626 Eh    -42.61 kcal/mol
-----------------------------------------------------------------------
Final Gibbs free energy         ...    -49.09751970 Eh

For completeness - the Gibbs free energy minus the electronic energy
G-E(el)                           ...      0.25298375 Eh    158.75 kcal/mol


Total Time for Numerical Frequencies  :        87.526 sec
Time for Reference State(s)           :         0.126 sec
Time for Displacements                :        79.589 sec

Timings for individual modules:

Sum of individual times         ...        0.606 sec (=   0.010 min)
XTB module                      ...        0.606 sec (=   0.010 min) 100.0 %
                             ****ORCA TERMINATED NORMALLY****
TOTAL RUN TIME: 0 days 0 hours 1 minutes 28 seconds 873 msec
(SLURM) EXECUTION TIME: 88.905714963 seconds.
