SLURM_JOB_ID=90

                                 *****************
                                 * O   R   C   A *
                                 *****************

           --- An Ab Initio, DFT and Semiempirical electronic structure package ---

                  #######################################################
                  #                        -***-                        #
                  #          Department of theory and spectroscopy      #
                  #               Directorship: Frank Neese             #
                  #        Max Planck Institute fuer Kohlenforschung    #
                  #                Kaiser Wilhelm Platz 1               #
                  #                 D-45470 Muelheim/Ruhr               #
                  #                      Germany                        #
                  #                                                     #
                  #                  All rights reserved                #
                  #                        -***-                        #
                  #######################################################


                         Program Version 4.2.1 -  RELEASE  -


 With contributions from (in alphabetic order):
   Daniel Aravena         : Magnetic Suceptibility
   Michael Atanasov       : Ab Initio Ligand Field Theory (pilot matlab implementation)
   Alexander A. Auer      : GIAO ZORA, VPT2
   Ute Becker             : Parallelization
   Giovanni Bistoni       : ED, misc. LED, open-shell LED, HFLD
   Martin Brehm           : Molecular dynamics
   Dmytro Bykov           : SCF Hessian
   Vijay G. Chilkuri      : MRCI spin determinant printing, contributions to CSF-ICE
   Dipayan Datta          : RHF DLPNO-CCSD density
   Achintya Kumar Dutta   : EOM-CC, STEOM-CC
   Dmitry Ganyushin       : Spin-Orbit,Spin-Spin,Magnetic field MRCI
   Miquel Garcia          : C-PCM Hessian, Gaussian charge scheme
   Yang Guo               : DLPNO-NEVPT2, CIM, IAO-localization
   Andreas Hansen         : Spin unrestricted coupled pair/coupled cluster methods
   Benjamin Helmich-Paris : CASSCF linear response (MC-RPA)
   Lee Huntington         : MR-EOM, pCC
   Robert Izsak           : Overlap fitted RIJCOSX, COSX-SCS-MP3, EOM
   Christian Kollmar      : KDIIS, OOCD, Brueckner-CCSD(T), CCSD density
   Simone Kossmann        : Meta GGA functionals, TD-DFT gradient, OOMP2, MP2 Hessian
   Martin Krupicka        : AUTO-CI
   Lucas Lang             : DCDCAS
   Dagmar Lenk            : GEPOL surface, SMD
   Dimitrios Liakos       : Extrapolation schemes; Compound Job, initial MDCI parallelization
   Dimitrios Manganas     : Further ROCIS development; embedding schemes
   Dimitrios Pantazis     : SARC Basis sets
   Taras Petrenko         : DFT Hessian,TD-DFT gradient, ASA, ECA, R-Raman, ABS, FL, XAS/XES, NRVS
   Peter Pinski           : DLPNO-MP2, DLPNO-MP2 Gradient
   Christoph Reimann      : Effective Core Potentials
   Marius Retegan         : Local ZFS, SOC
   Christoph Riplinger    : Optimizer, TS searches, QM/MM, DLPNO-CCSD(T), (RO)-DLPNO pert. Triples
   Tobias Risthaus        : Range-separated hybrids, TD-DFT gradient, RPA, STAB
   Michael Roemelt        : Original ROCIS implementation
   Masaaki Saitow         : Open-shell DLPNO-CCSD energy and density
   Barbara Sandhoefer     : DKH picture change effects
   Avijit Sen             : IP-ROCIS
   Kantharuban Sivalingam : CASSCF convergence, NEVPT2, FIC-MRCI
   Bernardo de Souza      : ESD, SOC TD-DFT
   Georgi Stoychev        : AutoAux, RI-MP2 NMR
   Willem Van den Heuvel  : Paramagnetic NMR
   Boris Wezisla          : Elementary symmetry handling
   Frank Wennmohs         : Technical directorship


 We gratefully acknowledge several colleagues who have allowed us to
 interface, adapt or use parts of their codes:
   Stefan Grimme, W. Hujo, H. Kruse,             : VdW corrections, initial TS optimization,
                  C. Bannwarth                     DFT functionals, gCP, sTDA/sTD-DF
   Ed Valeev, F. Pavosevic, A. Kumar             : LibInt (2-el integral package), F12 methods
   Garnet Chan, S. Sharma, J. Yang, R. Olivares  : DMRG
   Ulf Ekstrom                                   : XCFun DFT Library
   Mihaly Kallay                                 : mrcc  (arbitrary order and MRCC methods)
   Andreas Klamt, Michael Diedenhofen            : otool_cosmo (COSMO solvation model)
   Jiri Pittner, Ondrej Demel                    : Mk-CCSD
   Frank Weinhold                                : gennbo (NPA and NBO analysis)
   Christopher J. Cramer and Donald G. Truhlar   : smd solvation model
   Lars Goerigk                                  : TD-DFT with DH, B97 family of functionals
   V. Asgeirsson, H. Jonsson                     : NEB implementation
   FAccTs GmbH                                   : IRC, NEB, NEB-TS, Multilevel, MM, QM/MM, CI optimization
   S Lehtola, MJT Oliveira, MAL Marques          : LibXC Library


 Your calculation uses the libint2 library for the computation of 2-el integrals
 For citations please refer to: http://libint.valeyev.net

 Your ORCA version has been built with support for libXC version: 4.2.3
 For citations please refer to: https://tddft.org/programs/libxc/

 This ORCA versions uses:
   CBLAS   interface :  Fast vector & matrix operations
   LAPACKE interface :  Fast linear algebra routines
   SCALAPACK package :  Parallel linear algebra routines




***************************************
The coordinates will be read from file: init.xyz
***************************************


Your calculation utilizes the SMD solvation module
Please cite in your paper:
A.V. Marenich, C.J. Cramer, D.G. Truhlar J. Phys. Chem. B, 113, (2009), 6378 

Your calculation utilizes the semiempirical GFN2-xTB method
Please cite in your paper:
C. Bannwarth, Ehlert S., S. Grimme,  J. Chem. Theory Comput., 15, (2019), 1652.
   

----- Orbital basis set information -----
Your calculation utilizes the basis: def2-SVP
   F. Weigend and R. Ahlrichs, Phys. Chem. Chem. Phys. 7, 3297 (2005).

================================================================================
                                        WARNINGS
                       Please study these warnings very carefully!
================================================================================

WARNING: Gradients needed for Numerical Frequencies
  ===> : Setting RunTyp to EnGrad

WARNING: The environment variable RSH_COMMAND is not set!
  ===> : All Displacements for the Numerical Hessian calculation
         will be started on localhost

WARNING: Found dipole moment calculation with XTB calculation
  ===> : Switching off dipole moment calculation


INFO   : the flag for use of LIBINT has been found!

================================================================================
                                       INPUT FILE
================================================================================
NAME = /tmp/slurm-scratch/freq.90/freq.inp
|  1> ! XTB2 NumFreq
|  2> %maxcore 2000
|  3> 
|  4> * xyzfile 0 1 init.xyz
|  5> 
|  6> %cpcm
|  7>  smd true
|  8>  smdsolvent "ch2cl2"
|  9> end
| 10> %pal nprocs 11 end
| 11> 
| 12>                          ****END OF INPUT****
================================================================================

                     *******************************
                     * Energy+Gradient Calculation *
                     *******************************

      -----------------------------------------------------------      
     |                   =====================                   |     
     |                           x T B                           |     
     |                   =====================                   |     
     |                         S. Grimme                         |     
     |          Mulliken Center for Theoretical Chemistry        |     
     |                    University of Bonn                     |     
      -----------------------------------------------------------      

   * xtb version 6.3.1 (461a024) compiled by 'schneider@apollo14' on 2020-06-26

   xtb is free software: you can redistribute it and/or modify it under
   the terms of the GNU Lesser General Public License as published by
   the Free Software Foundation, either version 3 of the License, or
   (at your option) any later version.
   
   xtb is distributed in the hope that it will be useful,
   but WITHOUT ANY WARRANTY; without even the implied warranty of
   MERCHANTABILITY or FITNESS FOR A PARTICULAR PURPOSE.  See the
   GNU Lesser General Public License for more details.
   
   Cite this work as:
   * S. Grimme, C. Bannwarth, P. Shushkov, J. Chem. Theory Comput., 2017,
     13, 1989-2009. DOI: 10.1021/acs.jctc.7b00118
   * C. Bannwarth, S. Ehlert and S. Grimme., J. Chem. Theory Comput., 2019,
     15, 1652-1671. DOI: 10.1021/acs.jctc.8b01176
   * P. Pracht, E. Caldeweyher, S. Ehlert, S. Grimme, ChemRxiv, 2019, preprint.
     DOI: 10.26434/chemrxiv.8326202.v1
   
   for GFN-FF:
   * S. Spicher and S. Grimme, Angew. Chem. Int. Ed., 2020,
     DOI: 10.1002/anie.202004239
   
   for DFT-D4:
   * E. Caldeweyher, C. Bannwarth and S. Grimme, J. Chem. Phys., 2017,
     147, 034112. DOI: 10.1063/1.4993215
   * E. Caldeweyher, S. Ehlert, A. Hansen, H. Neugebauer, S. Spicher,
     C. Bannwarth and S. Grimme, J. Chem. Phys., 2019, 150, 154122.
     DOI: 10.1063/1.5090222
   
   for sTDA-xTB:
   * S. Grimme and C. Bannwarth, J. Chem. Phys., 2016, 145, 054103.
     DOI: 10.1063/1.4959605
   
   in the mass-spec context:
   * V. Asgeirsson, C. Bauer and S. Grimme, Chem. Sci., 2017, 8, 4879.
     DOI: 10.1039/c7sc00601b
   * J. Koopman and S. Grimme, ACS Omega 2019, 4, 12, 15120-15133.
     DOI: 10.1021/acsomega.9b02011
   
   for metadynamics refer to:
   * S. Grimme, J. Chem. Theory Comput., 2019, 155, 2847-2862
     DOI: 10.1021/acs.jctc.9b00143
   
   with help from (in alphabetical order)
   C. Bannwarth, F. Bohle, G. Brandenburg, E. Caldeweyher, M. Checinski,
   S. Dohm, S. Ehlert, S. Ehrlich, F. März, H. Neugebauer, J. Pisarek,
   P. Pracht, P. Shushkov, and S. Spicher.
   
 * started run on 2020/08/05 at 11:57:14.867     

           -------------------------------------------------
          |                Calculation Setup                |
           -------------------------------------------------

          program call               : /opt/orca/otool_xtb /tmp/slurm-scratch/freq.90/freq_XTB.xyz --grad -c 0 -u 0 -P 11 --namespace /tmp/slurm-scratch/freq.90/freq --gbsa CH2Cl2
          hostname                   : apollo14
          calculation namespace      : /tmp/slurm-scratch/freq.90/freq
          coordinate file            : /tmp/slurm-scratch/freq.90/freq_XTB.xyz
          omp threads                :                    11
          number of atoms            :                    33
          number of electrons        :                    80
          charge                     :                     0
          spin                       :                   0.0
          first test random number   :      0.77375901511793

   ID    Z sym.   atoms
    1    6 C      1-6, 12, 18, 21, 25, 30
    2    1 H      7-9, 11, 13-17, 19, 22, 23, 26-29, 31-33
    3    7 N      10
    4    8 O      20, 24

molecular fragmentation (1/2 indicates fragments):
111111111121111211111112111111111
# atoms in fragment 1/2:    30     3
 fragment masses (1/2) :      179.26       18.02
CMA distance (Bohr)    :   6.896
constraining FC (au)   :  0.0500
########################################################################
[WARNING] Please study the warnings concerning your input carefully
-1- prog_main_parseArguments: Process number higher than OMP_NUM_THREADS, I hope you know what you are doing.
########################################################################

           -------------------------------------------------
          |                 G F N 2 - x T B                 |
           -------------------------------------------------

        Reference                      10.1021/acs.jctc.8b01176
      * Hamiltonian:
        H0-scaling (s, p, d)           1.850000    2.230000    2.230000
        zeta-weighting                 0.500000
      * Dispersion:
        s8                             2.700000
        a1                             0.520000
        a2                             5.000000
        s9                             5.000000
      * Repulsion:
        kExp                           1.500000    1.000000
        rExp                           1.000000
      * Coulomb:
        alpha                          2.000000
        third order                    shell-resolved
        anisotropic                    true
        a3                             3.000000
        a5                             4.000000
        cn-shift                       1.200000
        cn-exp                         4.000000
        max-rad                        5.000000

      * Solvation model:               GBSA
        Solvent                        CH2Cl2
        Parameter file                 internal GFN2-xTB/GBSA
        Dielectric constant                8.9300E+00
        Reference state                gsolv [1 M gas/solution]
        Free energy shift                  4.4408E-03 Eh       2.7867E+00 kcal/mol
        Temperature                        2.9815E+02 K
        Density                            1.3300E+00 kg/L
        Solvent mass                       8.4930E+01 g/mol
        Interaction kernel             Still
        Born radius scaling (c1)           1.4917E+00
        Born radii integrator          GBOBC
        Born offset                        0.0000E+00 a0       0.0000E+00 AA
        H-bond correction              false
        Ion screening                  false
        Surface tension                    1.0000E-05 Eh       1.5569E+01 dyn/cm
        Grid points                               230 per atom

          ...................................................
          :                      SETUP                      :
          :.................................................:
          :  # basis functions                  75          :
          :  # atomic orbitals                  75          :
          :  # shells                           47          :
          :  # electrons                        80          :
          :  max. iterations                   250          :
          :  Hamiltonian                  GFN2-xTB          :
          :  restarted?                      false          :
          :  GBSA solvation                   true          :
          :  PC potential                    false          :
          :  electronic temp.          300.0000000     K    :
          :  accuracy                    1.0000000          :
          :  -> integral cutoff          0.2500000E+02      :
          :  -> integral neglect         0.1000000E-07      :
          :  -> SCF convergence          0.1000000E-05 Eh   :
          :  -> wf. convergence          0.1000000E-03 e    :
          :  Broyden damping             0.4000000          :
          ...................................................

 iter      E             dE          RMSdq      gap      omega  full diag
   1    -44.8523750 -0.448524E+02  0.347E+00    3.83       0.0  T
   2    -44.8946947 -0.423197E-01  0.196E+00    4.20       1.0  T
   3    -44.8944653  0.229404E-03  0.653E-01    4.21       1.0  T
   4    -44.8962298 -0.176449E-02  0.242E-01    4.22       1.0  T
   5    -44.8979113 -0.168151E-02  0.672E-02    4.22       1.0  T
   6    -44.8979270 -0.157527E-04  0.284E-02    4.23       1.0  T
   7    -44.8979278 -0.812854E-06  0.104E-02    4.23       1.7  T
   8    -44.8979296 -0.171110E-05  0.362E-03    4.23       4.8  T
   9    -44.8979297 -0.978943E-07  0.183E-03    4.23       9.5  T
  10    -44.8979297 -0.102602E-07  0.738E-04    4.23      23.6  T
  11    -44.8979297 -0.477844E-08  0.299E-04    4.23      58.3  T

   *** convergence criteria satisfied after 11 iterations ***

         #    Occupation            Energy/Eh            Energy/eV
      -------------------------------------------------------------
         1        2.0000           -0.6929868             -18.8571
       ...           ...                  ...                  ...
        34        2.0000           -0.4413725             -12.0104
        35        2.0000           -0.4291491             -11.6777
        36        2.0000           -0.4255040             -11.5786
        37        2.0000           -0.4127985             -11.2328
        38        2.0000           -0.4080941             -11.1048
        39        2.0000           -0.4065206             -11.0620
        40        2.0000           -0.3871712             -10.5355 (HOMO)
        41                         -0.2318746              -6.3096 (LUMO)
        42                         -0.2287076              -6.2235
        43                         -0.1047871              -2.8514
        44                         -0.0057343              -0.1560
        45                          0.0454994               1.2381
       ...                                ...                  ...
        75                          0.6428591              17.4931
      -------------------------------------------------------------
                  HL-Gap            0.1552967 Eh            4.2258 eV
             Fermi-level           -0.3095229 Eh           -8.4225 eV

 SCC (total)                   0 d,  0 h,  0 min,  0.140 sec
 SCC setup                      ...        0 min,  0.006 sec (  4.469%)
 Dispersion                     ...        0 min,  0.007 sec (  4.908%)
 classical contributions        ...        0 min,  0.003 sec (  1.975%)
 integral evaluation            ...        0 min,  0.021 sec ( 15.187%)
 iterations                     ...        0 min,  0.031 sec ( 22.489%)
 molecular gradient             ...        0 min,  0.068 sec ( 48.720%)
 printout                       ...        0 min,  0.003 sec (  2.234%)

         :::::::::::::::::::::::::::::::::::::::::::::::::::::
         ::                     SUMMARY                     ::
         :::::::::::::::::::::::::::::::::::::::::::::::::::::
         :: total energy             -44.300158833081 Eh    ::
         :: total w/o Gsasa/hb       -44.283529093397 Eh    ::
         :: gradient norm              0.024651179004 Eh/a0 ::
         :: HOMO-LUMO gap              4.225836964456 eV    ::
         ::.................................................::
         :: SCC energy               -44.897929672945 Eh    ::
         :: -> isotropic ES            0.075084799994 Eh    ::
         :: -> anisotropic ES         -0.000027640928 Eh    ::
         :: -> anisotropic XC          0.021794442292 Eh    ::
         :: -> dispersion             -0.026545234957 Eh    ::
         :: -> Gsolv                  -0.022022683591 Eh    ::
         ::    -> Gborn               -0.005392943907 Eh    ::
         ::    -> Gsasa               -0.021070568858 Eh    ::
         ::    -> Ghb                  0.000000000000 Eh    ::
         ::    -> Gshift               0.004440829173 Eh    ::
         :: repulsion energy           0.597698231061 Eh    ::
         :: add. restraining           0.000000000000 Eh    ::
         :::::::::::::::::::::::::::::::::::::::::::::::::::::

           -------------------------------------------------
          |                Property Printout                |
           -------------------------------------------------

    * Orbital Energies and Occupations

         #    Occupation            Energy/Eh            Energy/eV
      -------------------------------------------------------------
         1        2.0000           -0.6929868             -18.8571
       ...           ...                  ...                  ...
        28        2.0000           -0.4734541             -12.8833
        29        2.0000           -0.4716360             -12.8339
        30        2.0000           -0.4602474             -12.5240
        31        2.0000           -0.4491388             -12.2217
        32        2.0000           -0.4449677             -12.1082
        33        2.0000           -0.4442484             -12.0886
        34        2.0000           -0.4413725             -12.0104
        35        2.0000           -0.4291491             -11.6777
        36        2.0000           -0.4255040             -11.5786
        37        2.0000           -0.4127985             -11.2328
        38        2.0000           -0.4080941             -11.1048
        39        2.0000           -0.4065206             -11.0620
        40        2.0000           -0.3871712             -10.5355 (HOMO)
        41                         -0.2318746              -6.3096 (LUMO)
        42                         -0.2287076              -6.2235
        43                         -0.1047871              -2.8514
        44                         -0.0057343              -0.1560
        45                          0.0454994               1.2381
        46                          0.0631431               1.7182
        47                          0.0737420               2.0066
        48                          0.0828344               2.2540
        49                          0.0990795               2.6961
        50                          0.1046047               2.8464
        51                          0.1194098               3.2493
       ...                                ...                  ...
        75                          0.6428591              17.4931
      -------------------------------------------------------------
                  HL-Gap            0.1552967 Eh            4.2258 eV
             Fermi-level           -0.3095229 Eh           -8.4225 eV

     #   Z        covCN         q      C6AA      α(0)
     1   6 C      2.914    -0.030    28.753     8.793
     2   6 C      2.920    -0.039    28.967     8.826
     3   6 C      2.967    -0.017    28.429     8.746
     4   6 C      2.918    -0.034    28.845     8.807
     5   6 C      2.915    -0.029    28.736     8.790
     6   6 C      2.915    -0.030    28.761     8.794
     7   1 H      0.925     0.031     2.577     2.510
     8   1 H      0.925     0.051     2.304     2.373
     9   1 H      0.925     0.040     2.444     2.445
    10   7 N      2.677    -0.298    27.678     7.814
    11   1 H      0.802     0.310     0.693     1.308
    12   6 C      3.737     0.005    20.577     6.473
    13   1 H      0.924     0.042     2.425     2.435
    14   1 H      0.924     0.047     2.360     2.402
    15   1 H      0.860     0.149     1.406     1.857
    16   1 H      0.805     0.289     0.754     1.364
    17   1 H      0.804     0.323     0.656     1.272
    18   6 C      3.667     0.177    17.996     6.083
    19   1 H      0.924     0.023     2.691     2.565
    20   8 O      1.654    -0.486    22.587     6.416
    21   6 C      3.800    -0.064    21.733     6.637
    22   1 H      0.924     0.030     2.589     2.516
    23   1 H      0.924     0.032     2.554     2.499
    24   8 O      1.606    -0.621    25.685     6.840
    25   6 C      3.800    -0.054    21.545     6.609
    26   1 H      0.924     0.034     2.536     2.490
    27   1 H      0.924     0.033     2.546     2.495
    28   1 H      0.925     0.040     2.448     2.447
    29   1 H      0.925     0.041     2.433     2.439
    30   6 C      3.750    -0.102    22.510     6.767
    31   1 H      0.924     0.035     2.510     2.478
    32   1 H      0.924     0.037     2.486     2.466
    33   1 H      0.924     0.034     2.525     2.485

 Mol. C6AA /au·bohr⁶  :       9457.333130
 Mol. C8AA /au·bohr⁸  :     210527.858201
 Mol. α(0) /au        :        149.242846


Wiberg/Mayer (AO) data.
largest (>0.10) Wiberg bond orders for each atom
          total WBO             WBO to atom ...
     1  C   3.991        C    2 1.441    C    6 1.441    H   28 0.971    C    4 0.112
     2  C   3.991        C    1 1.441    C    3 1.418    H    7 0.969    C    5 0.112
     3  C   3.987        C    2 1.418    C    4 1.414    C   18 0.977    C    6 0.110
     4  C   3.991        C    5 1.445    C    3 1.414    H    8 0.965    C    1 0.112
     5  C   3.991        C    4 1.445    C    6 1.437    H   29 0.971    C    2 0.112
     6  C   3.991        C    1 1.441    C    5 1.437    H    9 0.971    C    3 0.110
     7  H   0.999        C    2 0.969
     8  H   0.997        C    4 0.965
     9  H   0.998        C    6 0.971
    10  N   3.125        C   12 0.997    C   18 0.979    H   15 0.951
    11  H   0.904        O   24 0.844
    12  C   3.977        C   21 1.001    N   10 0.997    H   14 0.974    H   13 0.972
    13  H   0.998        C   12 0.972
    14  H   0.998        C   12 0.974
    15  H   0.978        N   10 0.951
    16  H   0.916        O   24 0.914
    17  H   0.896        O   20 0.848
    18  C   3.951        O   20 0.991    N   10 0.979    C    3 0.977    H   19 0.952
    19  H   0.999        C   18 0.952
    20  O   1.948        C   18 0.991    H   17 0.848
    21  C   3.997        C   25 1.006    C   12 1.001    H   23 0.976    H   22 0.974
    22  H   0.999        C   21 0.974
    23  H   0.999        C   21 0.976
    24  O   1.833        H   16 0.914    H   11 0.844
    25  C   3.997        C   30 1.020    C   21 1.006    H   27 0.978    H   26 0.978
    26  H   0.999        C   25 0.978
    27  H   0.999        C   25 0.978
    28  H   0.998        C    1 0.971
    29  H   0.998        C    5 0.971
    30  C   3.996        C   25 1.020    H   33 0.988    H   31 0.988    H   32 0.987
    31  H   0.999        C   30 0.988
    32  H   0.998        C   30 0.987
    33  H   0.999        C   30 0.988
Topologies differ in total number of bonds
Writing topology from bond orders to xtbtopo.mol

molecular dipole:
                 x           y           z       tot (Debye)
 q only:       -0.915      -0.433      -0.378
   full:       -1.324      -0.440      -0.445       3.723
molecular quadrupole (traceless):
                xx          xy          yy          xz          yz          zz
 q only:        1.785       3.975      -0.236      -6.536      -7.125      -1.549
  q+dip:        1.252       2.921       0.182      -8.655      -9.469      -1.433
   full:        1.565       4.456       0.269      -7.728      -8.596      -1.834


           -------------------------------------------------
          | TOTAL ENERGY              -44.300158833081 Eh   |
          | GRADIENT NORM               0.024651179004 Eh/α |
          | HOMO-LUMO GAP               4.225836964456 eV   |
           -------------------------------------------------

------------------------------------------------------------------------
 * finished run on 2020/08/05 at 11:57:15.076     
------------------------------------------------------------------------
 total:
 * wall-time:     0 d,  0 h,  0 min,  0.209 sec
 *  cpu-time:     0 d,  0 h,  0 min,  2.434 sec
 * ratio c/w:    11.634 speedup
 SCF:
 * wall-time:     0 d,  0 h,  0 min,  0.150 sec
 *  cpu-time:     0 d,  0 h,  0 min,  1.744 sec
 * ratio c/w:    11.640 speedup


-------------------------   --------------------
FINAL SINGLE POINT ENERGY       -44.300158833080
-------------------------   --------------------


----------------------------------------------------------------------------
                           ORCA NUMERICAL FREQUENCIES
                              (11-process run)
----------------------------------------------------------------------------

Number of atoms                ... 33
Central differences            ... used
Number of displacements        ... 198
Numerical increment            ... 5.000e-03 bohr
IR-spectrum generation         ... on
Raman-spectrum generation      ... off
Surface Crossing Hessian       ... off
List of participating nodes    ...  /tmp/slurm-scratch/freq.90/freq.hostnames

The output will be reduced. Please look at the following files:
SCF program output             ... >/tmp/slurm-scratch/freq.90/freq.lastscf
Integral program output        ... >/tmp/slurm-scratch/freq.90/freq.lastint
Gradient program output        ... >/tmp/slurm-scratch/freq.90/freq.lastgrad
Dipole moment program output   ... >/tmp/slurm-scratch/freq.90/freq.lastmom
AutoCI program output          ... >/tmp/slurm-scratch/freq.90/freq.lastautoci


         <<< Energy and Gradient at the input geometry >>>

        <<< Energy and Gradient at displaced geometries >>>
             <<<Displacing   2/coordinate 2 (+)>>>
             <<<Displacing   1/coordinate 2 (+)>>>
             <<<Displacing   3/coordinate 2 (+)>>>
             <<<Displacing   2/coordinate 1 (+)>>>
             <<<Displacing   1/coordinate 3 (+)>>>
             <<<Displacing   3/coordinate 1 (+)>>>
             <<<Displacing   2/coordinate 1 (-)>>>
             <<<Displacing   1/coordinate 2 (-)>>>
             <<<Displacing   2/coordinate 2 (-)>>>
             <<<Displacing   3/coordinate 3 (+)>>>
             <<<Displacing   3/coordinate 2 (-)>>>
             <<<Displacing   3/coordinate 1 (-)>>>
             <<<Displacing   1/coordinate 1 (+)>>>
             <<<Displacing   1/coordinate 3 (-)>>>
             <<<Displacing   2/coordinate 3 (+)>>>
             <<<Displacing   4/coordinate 1 (+)>>>
             <<<Displacing   4/coordinate 2 (+)>>>
             <<<Displacing   3/coordinate 3 (-)>>>
             <<<Displacing   1/coordinate 1 (-)>>>
             <<<Displacing   4/coordinate 1 (-)>>>
             <<<Displacing   2/coordinate 3 (-)>>>
             <<<Displacing   4/coordinate 2 (-)>>>
             <<<Displacing   4/coordinate 3 (+)>>>
             <<<Displacing   5/coordinate 3 (+)>>>
             <<<Displacing   5/coordinate 1 (+)>>>
             <<<Displacing   5/coordinate 2 (+)>>>
             <<<Displacing   6/coordinate 2 (+)>>>
             <<<Displacing   5/coordinate 1 (-)>>>
             <<<Displacing   5/coordinate 3 (-)>>>
             <<<Displacing   4/coordinate 3 (-)>>>
             <<<Displacing   5/coordinate 2 (-)>>>
             <<<Displacing   6/coordinate 3 (+)>>>
             <<<Displacing   8/coordinate 1 (+)>>>
             <<<Displacing   6/coordinate 2 (-)>>>
             <<<Displacing   6/coordinate 1 (+)>>>
             <<<Displacing   7/coordinate 1 (+)>>>
             <<<Displacing   8/coordinate 1 (-)>>>
             <<<Displacing   6/coordinate 3 (-)>>>
             <<<Displacing   6/coordinate 1 (-)>>>
             <<<Displacing   7/coordinate 2 (+)>>>
             <<<Displacing   7/coordinate 3 (+)>>>
             <<<Displacing   7/coordinate 1 (-)>>>
             <<<Displacing   7/coordinate 2 (-)>>>
             <<<Displacing   7/coordinate 3 (-)>>>
             <<<Displacing   8/coordinate 2 (+)>>>
             <<<Displacing   8/coordinate 3 (+)>>>
             <<<Displacing   9/coordinate 1 (+)>>>
             <<<Displacing   9/coordinate 2 (+)>>>
             <<<Displacing   8/coordinate 2 (-)>>>
             <<<Displacing   8/coordinate 3 (-)>>>
             <<<Displacing   9/coordinate 1 (-)>>>
             <<<Displacing  10/coordinate 1 (+)>>>
             <<<Displacing   9/coordinate 2 (-)>>>
             <<<Displacing  11/coordinate 1 (+)>>>
             <<<Displacing  10/coordinate 1 (-)>>>
             <<<Displacing  10/coordinate 3 (+)>>>
             <<<Displacing  11/coordinate 1 (-)>>>
             <<<Displacing  11/coordinate 2 (+)>>>
             <<<Displacing  10/coordinate 2 (+)>>>
             <<<Displacing   9/coordinate 3 (+)>>>
             <<<Displacing  11/coordinate 2 (-)>>>
             <<<Displacing  10/coordinate 3 (-)>>>
             <<<Displacing  10/coordinate 2 (-)>>>
             <<<Displacing   9/coordinate 3 (-)>>>
             <<<Displacing  11/coordinate 3 (+)>>>
             <<<Displacing  11/coordinate 3 (-)>>>
             <<<Displacing  13/coordinate 1 (+)>>>
             <<<Displacing  12/coordinate 1 (+)>>>
             <<<Displacing  13/coordinate 1 (-)>>>
             <<<Displacing  12/coordinate 2 (+)>>>
             <<<Displacing  12/coordinate 3 (+)>>>
             <<<Displacing  13/coordinate 2 (+)>>>
             <<<Displacing  12/coordinate 1 (-)>>>
             <<<Displacing  13/coordinate 3 (+)>>>
             <<<Displacing  13/coordinate 2 (-)>>>
             <<<Displacing  12/coordinate 2 (-)>>>
             <<<Displacing  12/coordinate 3 (-)>>>
             <<<Displacing  13/coordinate 3 (-)>>>
             <<<Displacing  14/coordinate 2 (+)>>>
             <<<Displacing  14/coordinate 3 (+)>>>
             <<<Displacing  14/coordinate 1 (+)>>>
             <<<Displacing  14/coordinate 3 (-)>>>
             <<<Displacing  14/coordinate 1 (-)>>>
             <<<Displacing  14/coordinate 2 (-)>>>
             <<<Displacing  15/coordinate 1 (+)>>>
             <<<Displacing  15/coordinate 1 (-)>>>
             <<<Displacing  15/coordinate 2 (+)>>>
             <<<Displacing  15/coordinate 2 (-)>>>
             <<<Displacing  16/coordinate 1 (+)>>>
             <<<Displacing  16/coordinate 3 (+)>>>
             <<<Displacing  15/coordinate 3 (+)>>>
             <<<Displacing  17/coordinate 2 (+)>>>
             <<<Displacing  16/coordinate 3 (-)>>>
             <<<Displacing  17/coordinate 1 (+)>>>
             <<<Displacing  16/coordinate 1 (-)>>>
             <<<Displacing  15/coordinate 3 (-)>>>
             <<<Displacing  17/coordinate 2 (-)>>>
             <<<Displacing  16/coordinate 2 (+)>>>
             <<<Displacing  17/coordinate 1 (-)>>>
             <<<Displacing  16/coordinate 2 (-)>>>
             <<<Displacing  17/coordinate 3 (+)>>>
             <<<Displacing  18/coordinate 1 (+)>>>
             <<<Displacing  17/coordinate 3 (-)>>>
             <<<Displacing  18/coordinate 2 (+)>>>
             <<<Displacing  18/coordinate 1 (-)>>>
             <<<Displacing  18/coordinate 2 (-)>>>
             <<<Displacing  18/coordinate 3 (+)>>>
             <<<Displacing  18/coordinate 3 (-)>>>
             <<<Displacing  19/coordinate 1 (+)>>>
             <<<Displacing  19/coordinate 1 (-)>>>
             <<<Displacing  19/coordinate 2 (+)>>>
             <<<Displacing  20/coordinate 1 (+)>>>
             <<<Displacing  20/coordinate 2 (+)>>>
             <<<Displacing  19/coordinate 2 (-)>>>
             <<<Displacing  20/coordinate 1 (-)>>>
             <<<Displacing  20/coordinate 3 (+)>>>
             <<<Displacing  21/coordinate 1 (+)>>>
             <<<Displacing  19/coordinate 3 (+)>>>
             <<<Displacing  20/coordinate 3 (-)>>>
             <<<Displacing  21/coordinate 1 (-)>>>
             <<<Displacing  20/coordinate 2 (-)>>>
             <<<Displacing  19/coordinate 3 (-)>>>
             <<<Displacing  21/coordinate 2 (+)>>>
             <<<Displacing  21/coordinate 3 (+)>>>
             <<<Displacing  21/coordinate 2 (-)>>>
             <<<Displacing  21/coordinate 3 (-)>>>
             <<<Displacing  22/coordinate 1 (+)>>>
             <<<Displacing  22/coordinate 2 (+)>>>
             <<<Displacing  22/coordinate 1 (-)>>>
             <<<Displacing  22/coordinate 2 (-)>>>
             <<<Displacing  22/coordinate 3 (+)>>>
             <<<Displacing  22/coordinate 3 (-)>>>
             <<<Displacing  23/coordinate 1 (+)>>>
             <<<Displacing  23/coordinate 2 (+)>>>
             <<<Displacing  24/coordinate 2 (+)>>>
             <<<Displacing  23/coordinate 1 (-)>>>
             <<<Displacing  24/coordinate 2 (-)>>>
             <<<Displacing  24/coordinate 1 (+)>>>
             <<<Displacing  23/coordinate 2 (-)>>>
             <<<Displacing  23/coordinate 3 (+)>>>
             <<<Displacing  24/coordinate 3 (+)>>>
             <<<Displacing  24/coordinate 1 (-)>>>
             <<<Displacing  23/coordinate 3 (-)>>>
             <<<Displacing  24/coordinate 3 (-)>>>
             <<<Displacing  25/coordinate 1 (+)>>>
             <<<Displacing  25/coordinate 1 (-)>>>
             <<<Displacing  25/coordinate 2 (+)>>>
             <<<Displacing  25/coordinate 3 (+)>>>
             <<<Displacing  25/coordinate 2 (-)>>>
             <<<Displacing  25/coordinate 3 (-)>>>
             <<<Displacing  26/coordinate 1 (+)>>>
             <<<Displacing  26/coordinate 1 (-)>>>
             <<<Displacing  26/coordinate 2 (+)>>>
             <<<Displacing  26/coordinate 3 (+)>>>
             <<<Displacing  27/coordinate 3 (+)>>>
             <<<Displacing  26/coordinate 2 (-)>>>
             <<<Displacing  27/coordinate 3 (-)>>>
             <<<Displacing  26/coordinate 3 (-)>>>
             <<<Displacing  27/coordinate 2 (+)>>>
             <<<Displacing  27/coordinate 1 (+)>>>
             <<<Displacing  28/coordinate 1 (+)>>>
             <<<Displacing  27/coordinate 1 (-)>>>
             <<<Displacing  27/coordinate 2 (-)>>>
             <<<Displacing  28/coordinate 1 (-)>>>
             <<<Displacing  28/coordinate 2 (+)>>>
             <<<Displacing  28/coordinate 2 (-)>>>
             <<<Displacing  28/coordinate 3 (+)>>>
             <<<Displacing  28/coordinate 3 (-)>>>
             <<<Displacing  29/coordinate 1 (+)>>>
             <<<Displacing  29/coordinate 1 (-)>>>
             <<<Displacing  29/coordinate 3 (+)>>>
             <<<Displacing  29/coordinate 2 (+)>>>
             <<<Displacing  29/coordinate 2 (-)>>>
             <<<Displacing  29/coordinate 3 (-)>>>
             <<<Displacing  30/coordinate 1 (+)>>>
             <<<Displacing  30/coordinate 2 (+)>>>
             <<<Displacing  30/coordinate 1 (-)>>>
             <<<Displacing  30/coordinate 3 (+)>>>
             <<<Displacing  30/coordinate 2 (-)>>>
             <<<Displacing  31/coordinate 1 (+)>>>
             <<<Displacing  30/coordinate 3 (-)>>>
             <<<Displacing  31/coordinate 3 (+)>>>
             <<<Displacing  31/coordinate 1 (-)>>>
             <<<Displacing  31/coordinate 2 (+)>>>
             <<<Displacing  31/coordinate 3 (-)>>>
             <<<Displacing  31/coordinate 2 (-)>>>
             <<<Displacing  32/coordinate 1 (+)>>>
             <<<Displacing  32/coordinate 1 (-)>>>
             <<<Displacing  32/coordinate 2 (+)>>>
             <<<Displacing  32/coordinate 2 (-)>>>
             <<<Displacing  32/coordinate 3 (+)>>>
             <<<Displacing  32/coordinate 3 (-)>>>
             <<<Displacing  33/coordinate 2 (+)>>>
             <<<Displacing  33/coordinate 1 (+)>>>
             <<<Displacing  33/coordinate 2 (-)>>>
             <<<Displacing  33/coordinate 1 (-)>>>
             <<<Displacing  33/coordinate 3 (+)>>>
             <<<Displacing  33/coordinate 3 (-)>>>

-----------------------
VIBRATIONAL FREQUENCIES
-----------------------

Scaling factor for frequencies =  1.000000000 (already applied!)

   0:         0.00 cm**-1
   1:         0.00 cm**-1
   2:         0.00 cm**-1
   3:         0.00 cm**-1
   4:         0.00 cm**-1
   5:         0.00 cm**-1
   6:        45.78 cm**-1
   7:        60.83 cm**-1
   8:        65.07 cm**-1
   9:        69.29 cm**-1
  10:        76.03 cm**-1
  11:       113.80 cm**-1
  12:       126.17 cm**-1
  13:       141.50 cm**-1
  14:       164.75 cm**-1
  15:       208.57 cm**-1
  16:       212.81 cm**-1
  17:       244.18 cm**-1
  18:       264.81 cm**-1
  19:       289.34 cm**-1
  20:       315.73 cm**-1
  21:       352.16 cm**-1
  22:       383.89 cm**-1
  23:       399.45 cm**-1
  24:       432.22 cm**-1
  25:       447.48 cm**-1
  26:       491.75 cm**-1
  27:       532.57 cm**-1
  28:       540.15 cm**-1
  29:       589.84 cm**-1
  30:       624.81 cm**-1
  31:       677.54 cm**-1
  32:       694.82 cm**-1
  33:       758.20 cm**-1
  34:       765.40 cm**-1
  35:       791.97 cm**-1
  36:       825.47 cm**-1
  37:       843.33 cm**-1
  38:       885.06 cm**-1
  39:       908.85 cm**-1
  40:       934.10 cm**-1
  41:       936.88 cm**-1
  42:       937.36 cm**-1
  43:       946.00 cm**-1
  44:       968.45 cm**-1
  45:       990.32 cm**-1
  46:      1026.12 cm**-1
  47:      1049.39 cm**-1
  48:      1074.50 cm**-1
  49:      1093.12 cm**-1
  50:      1100.39 cm**-1
  51:      1117.54 cm**-1
  52:      1127.25 cm**-1
  53:      1142.20 cm**-1
  54:      1179.65 cm**-1
  55:      1188.91 cm**-1
  56:      1205.53 cm**-1
  57:      1208.43 cm**-1
  58:      1219.70 cm**-1
  59:      1252.99 cm**-1
  60:      1263.81 cm**-1
  61:      1278.31 cm**-1
  62:      1282.28 cm**-1
  63:      1282.77 cm**-1
  64:      1299.70 cm**-1
  65:      1329.07 cm**-1
  66:      1337.55 cm**-1
  67:      1366.51 cm**-1
  68:      1372.54 cm**-1
  69:      1425.63 cm**-1
  70:      1428.44 cm**-1
  71:      1463.33 cm**-1
  72:      1481.64 cm**-1
  73:      1499.66 cm**-1
  74:      1505.14 cm**-1
  75:      1506.87 cm**-1
  76:      1511.27 cm**-1
  77:      1538.43 cm**-1
  78:      1568.94 cm**-1
  79:      1576.78 cm**-1
  80:      2930.33 cm**-1
  81:      2937.10 cm**-1
  82:      2947.12 cm**-1
  83:      2962.22 cm**-1
  84:      2965.86 cm**-1
  85:      2970.78 cm**-1
  86:      2979.98 cm**-1
  87:      2985.57 cm**-1
  88:      2997.05 cm**-1
  89:      2997.55 cm**-1
  90:      3044.08 cm**-1
  91:      3054.09 cm**-1
  92:      3059.15 cm**-1
  93:      3069.29 cm**-1
  94:      3074.97 cm**-1
  95:      3078.21 cm**-1
  96:      3350.17 cm**-1
  97:      3396.15 cm**-1
  98:      3574.82 cm**-1


------------
NORMAL MODES
------------

These modes are the cartesian displacements weighted by the diagonal matrix
M(i,i)=1/sqrt(m[i]) where m[i] is the mass of the displaced atom
Thus, these vectors are normalized but *not* orthogonal

                  0          1          2          3          4          5    
      0       0.000000   0.000000   0.000000   0.000000   0.000000   0.000000
      1       0.000000   0.000000   0.000000   0.000000   0.000000   0.000000
      2       0.000000   0.000000   0.000000   0.000000   0.000000   0.000000
      3       0.000000   0.000000   0.000000   0.000000   0.000000   0.000000
      4       0.000000   0.000000   0.000000   0.000000   0.000000   0.000000
      5       0.000000   0.000000   0.000000   0.000000   0.000000   0.000000
      6       0.000000   0.000000   0.000000   0.000000   0.000000   0.000000
      7       0.000000   0.000000   0.000000   0.000000   0.000000   0.000000
      8       0.000000   0.000000   0.000000   0.000000   0.000000   0.000000
      9       0.000000   0.000000   0.000000   0.000000   0.000000   0.000000
     10       0.000000   0.000000   0.000000   0.000000   0.000000   0.000000
     11       0.000000   0.000000   0.000000   0.000000   0.000000   0.000000
     12       0.000000   0.000000   0.000000   0.000000   0.000000   0.000000
     13       0.000000   0.000000   0.000000   0.000000   0.000000   0.000000
     14       0.000000   0.000000   0.000000   0.000000   0.000000   0.000000
     15       0.000000   0.000000   0.000000   0.000000   0.000000   0.000000
     16       0.000000   0.000000   0.000000   0.000000   0.000000   0.000000
     17       0.000000   0.000000   0.000000   0.000000   0.000000   0.000000
     18       0.000000   0.000000   0.000000   0.000000   0.000000   0.000000
     19       0.000000   0.000000   0.000000   0.000000   0.000000   0.000000
     20       0.000000   0.000000   0.000000   0.000000   0.000000   0.000000
     21       0.000000   0.000000   0.000000   0.000000   0.000000   0.000000
     22       0.000000   0.000000   0.000000   0.000000   0.000000   0.000000
     23       0.000000   0.000000   0.000000   0.000000   0.000000   0.000000
     24       0.000000   0.000000   0.000000   0.000000   0.000000   0.000000
     25       0.000000   0.000000   0.000000   0.000000   0.000000   0.000000
     26       0.000000   0.000000   0.000000   0.000000   0.000000   0.000000
     27       0.000000   0.000000   0.000000   0.000000   0.000000   0.000000
     28       0.000000   0.000000   0.000000   0.000000   0.000000   0.000000
     29       0.000000   0.000000   0.000000   0.000000   0.000000   0.000000
     30       0.000000   0.000000   0.000000   0.000000   0.000000   0.000000
     31       0.000000   0.000000   0.000000   0.000000   0.000000   0.000000
     32       0.000000   0.000000   0.000000   0.000000   0.000000   0.000000
     33       0.000000   0.000000   0.000000   0.000000   0.000000   0.000000
     34       0.000000   0.000000   0.000000   0.000000   0.000000   0.000000
     35       0.000000   0.000000   0.000000   0.000000   0.000000   0.000000
     36       0.000000   0.000000   0.000000   0.000000   0.000000   0.000000
     37       0.000000   0.000000   0.000000   0.000000   0.000000   0.000000
     38       0.000000   0.000000   0.000000   0.000000   0.000000   0.000000
     39       0.000000   0.000000   0.000000   0.000000   0.000000   0.000000
     40       0.000000   0.000000   0.000000   0.000000   0.000000   0.000000
     41       0.000000   0.000000   0.000000   0.000000   0.000000   0.000000
     42       0.000000   0.000000   0.000000   0.000000   0.000000   0.000000
     43       0.000000   0.000000   0.000000   0.000000   0.000000   0.000000
     44       0.000000   0.000000   0.000000   0.000000   0.000000   0.000000
     45       0.000000   0.000000   0.000000   0.000000   0.000000   0.000000
     46       0.000000   0.000000   0.000000   0.000000   0.000000   0.000000
     47       0.000000   0.000000   0.000000   0.000000   0.000000   0.000000
     48       0.000000   0.000000   0.000000   0.000000   0.000000   0.000000
     49       0.000000   0.000000   0.000000   0.000000   0.000000   0.000000
     50       0.000000   0.000000   0.000000   0.000000   0.000000   0.000000
     51       0.000000   0.000000   0.000000   0.000000   0.000000   0.000000
     52       0.000000   0.000000   0.000000   0.000000   0.000000   0.000000
     53       0.000000   0.000000   0.000000   0.000000   0.000000   0.000000
     54       0.000000   0.000000   0.000000   0.000000   0.000000   0.000000
     55       0.000000   0.000000   0.000000   0.000000   0.000000   0.000000
     56       0.000000   0.000000   0.000000   0.000000   0.000000   0.000000
     57       0.000000   0.000000   0.000000   0.000000   0.000000   0.000000
     58       0.000000   0.000000   0.000000   0.000000   0.000000   0.000000
     59       0.000000   0.000000   0.000000   0.000000   0.000000   0.000000
     60       0.000000   0.000000   0.000000   0.000000   0.000000   0.000000
     61       0.000000   0.000000   0.000000   0.000000   0.000000   0.000000
     62       0.000000   0.000000   0.000000   0.000000   0.000000   0.000000
     63       0.000000   0.000000   0.000000   0.000000   0.000000   0.000000
     64       0.000000   0.000000   0.000000   0.000000   0.000000   0.000000
     65       0.000000   0.000000   0.000000   0.000000   0.000000   0.000000
     66       0.000000   0.000000   0.000000   0.000000   0.000000   0.000000
     67       0.000000   0.000000   0.000000   0.000000   0.000000   0.000000
     68       0.000000   0.000000   0.000000   0.000000   0.000000   0.000000
     69       0.000000   0.000000   0.000000   0.000000   0.000000   0.000000
     70       0.000000   0.000000   0.000000   0.000000   0.000000   0.000000
     71       0.000000   0.000000   0.000000   0.000000   0.000000   0.000000
     72       0.000000   0.000000   0.000000   0.000000   0.000000   0.000000
     73       0.000000   0.000000   0.000000   0.000000   0.000000   0.000000
     74       0.000000   0.000000   0.000000   0.000000   0.000000   0.000000
     75       0.000000   0.000000   0.000000   0.000000   0.000000   0.000000
     76       0.000000   0.000000   0.000000   0.000000   0.000000   0.000000
     77       0.000000   0.000000   0.000000   0.000000   0.000000   0.000000
     78       0.000000   0.000000   0.000000   0.000000   0.000000   0.000000
     79       0.000000   0.000000   0.000000   0.000000   0.000000   0.000000
     80       0.000000   0.000000   0.000000   0.000000   0.000000   0.000000
     81       0.000000   0.000000   0.000000   0.000000   0.000000   0.000000
     82       0.000000   0.000000   0.000000   0.000000   0.000000   0.000000
     83       0.000000   0.000000   0.000000   0.000000   0.000000   0.000000
     84       0.000000   0.000000   0.000000   0.000000   0.000000   0.000000
     85       0.000000   0.000000   0.000000   0.000000   0.000000   0.000000
     86       0.000000   0.000000   0.000000   0.000000   0.000000   0.000000
     87       0.000000   0.000000   0.000000   0.000000   0.000000   0.000000
     88       0.000000   0.000000   0.000000   0.000000   0.000000   0.000000
     89       0.000000   0.000000   0.000000   0.000000   0.000000   0.000000
     90       0.000000   0.000000   0.000000   0.000000   0.000000   0.000000
     91       0.000000   0.000000   0.000000   0.000000   0.000000   0.000000
     92       0.000000   0.000000   0.000000   0.000000   0.000000   0.000000
     93       0.000000   0.000000   0.000000   0.000000   0.000000   0.000000
     94       0.000000   0.000000   0.000000   0.000000   0.000000   0.000000
     95       0.000000   0.000000   0.000000   0.000000   0.000000   0.000000
     96       0.000000   0.000000   0.000000   0.000000   0.000000   0.000000
     97       0.000000   0.000000   0.000000   0.000000   0.000000   0.000000
     98       0.000000   0.000000   0.000000   0.000000   0.000000   0.000000
                  6          7          8          9         10         11    
      0       0.150798  -0.066202   0.082140   0.065397  -0.044032   0.047923
      1      -0.018305  -0.087434   0.120705  -0.000880  -0.031250   0.070077
      2      -0.068286  -0.037209   0.032448   0.024853  -0.051097   0.018309
      3       0.070176  -0.038260   0.092133   0.067874  -0.029679  -0.034466
      4      -0.000906  -0.066913   0.131036   0.044036  -0.043733  -0.071395
      5      -0.103580  -0.018294   0.040681   0.038125  -0.047483  -0.059603
      6       0.011178   0.024555   0.011572   0.019045   0.035683  -0.060231
      7       0.009331   0.004237   0.022521   0.009201   0.020801  -0.123172
      8      -0.052324   0.022057  -0.030838   0.030148  -0.016154  -0.100333
      9       0.037117   0.055878  -0.078779  -0.030714   0.083626  -0.019987
     10       0.002752   0.051342  -0.095803  -0.070333   0.095155  -0.058894
     11       0.034409   0.040855  -0.109501   0.008297   0.008548  -0.086694
     12       0.117725   0.027043  -0.087279  -0.033534   0.071035   0.065286
     13      -0.015241   0.029562  -0.104188  -0.115156   0.108953   0.084551
     14       0.069088   0.020716  -0.115912  -0.004769   0.005618  -0.007631
     15       0.174978  -0.033356  -0.007699   0.014289   0.008091   0.110277
     16      -0.026044  -0.039659   0.004231  -0.080544   0.046643   0.163060
     17       0.017656  -0.017935  -0.045239   0.002932  -0.023543   0.052923
     18       0.050810  -0.065164   0.162155   0.107326  -0.067721  -0.069993
     19       0.004952  -0.105812   0.220407   0.105508  -0.100393  -0.123965
     20      -0.170508  -0.033557   0.101156   0.053638  -0.066835  -0.077717
     21      -0.004574   0.102152  -0.142139  -0.064965   0.129581  -0.038644
     22       0.010133   0.103239  -0.177246  -0.098865   0.142644  -0.102459
     23       0.072005   0.069101  -0.159884  -0.002166   0.032862  -0.124407
     24       0.237324  -0.055101  -0.014991   0.011597  -0.000712   0.188722
     25      -0.040303  -0.056277  -0.002304  -0.115060   0.058361   0.290944
     26       0.045010  -0.033184  -0.050657  -0.007600  -0.024760   0.126039
     27      -0.079042  -0.001986   0.021193  -0.020076  -0.001641  -0.062409
     28       0.045858   0.042107   0.042633   0.076303   0.055228  -0.112332
     29      -0.106334   0.017551   0.009212   0.074308   0.001314   0.058203
     30      -0.076092  -0.006617  -0.084953   0.020680  -0.156306   0.070705
     31       0.061087   0.003025  -0.017385   0.087905  -0.069453  -0.093599
     32      -0.084340  -0.057735   0.155314  -0.160071   0.025250   0.056220
     33      -0.027826  -0.006742   0.028894   0.006188   0.028307  -0.034180
     34      -0.004096   0.038440   0.042676   0.111334   0.087476   0.020484
     35      -0.057929   0.010004   0.016984   0.113186   0.043989   0.129703
     36      -0.036847  -0.089152   0.009075   0.079624   0.086871  -0.113551
     37      -0.002004   0.056495   0.046652   0.094458   0.073677   0.037563
     38      -0.119105  -0.102780  -0.013521   0.246723   0.162025   0.192753
     39       0.033483   0.021563   0.043000  -0.000435   0.032496   0.036899
     40      -0.075172  -0.096087   0.006201   0.256265   0.211748   0.040932
     41      -0.063763   0.032011   0.020569   0.079420   0.011642   0.096965
     42      -0.127901  -0.009847   0.018285  -0.054973  -0.035938  -0.115539
     43       0.091434   0.076983   0.029397   0.076859   0.071962  -0.182655
     44      -0.093348   0.016706   0.011826   0.086546   0.012391   0.083205
     45      -0.113577  -0.010589  -0.148424   0.102958  -0.290436   0.209224
     46       0.046612  -0.035785   0.026670  -0.029320  -0.124038   0.045079
     47      -0.073326  -0.085802   0.225715  -0.295725   0.058249   0.081837
     48      -0.125668   0.024651   0.018849   0.046052  -0.006684   0.033078
     49       0.058321  -0.041039   0.015237   0.045542  -0.103921  -0.034469
     50      -0.014220   0.001836  -0.010466  -0.006360  -0.024902  -0.101858
     51      -0.074809   0.041036   0.032828   0.021043   0.060117  -0.037562
     52       0.042152   0.016712   0.037184   0.056699   0.018898  -0.109105
     53      -0.087176   0.035294  -0.015442   0.044324  -0.002687  -0.081380
     54      -0.080081   0.072035   0.045915   0.051652   0.104190  -0.020750
     55       0.057197   0.036307   0.045197   0.082149   0.044932  -0.090586
     56      -0.146822   0.054455  -0.006643   0.046658   0.039612  -0.096033
     57      -0.140785   0.053096   0.062517   0.034378   0.095370   0.015894
     58       0.051719  -0.026345   0.040615   0.035550  -0.048247  -0.041842
     59      -0.036738   0.020580  -0.035892   0.032717  -0.033982  -0.116865
     60      -0.044897   0.046420   0.033535  -0.049093  -0.023429   0.006499
     61       0.020539   0.159906   0.065307  -0.013615  -0.020873   0.099319
     62       0.083989   0.103082   0.058382   0.018320  -0.016363   0.148743
     63      -0.052129   0.077117   0.010696  -0.123343  -0.078955   0.047113
     64       0.023414   0.157639   0.072305   0.000261  -0.011547   0.091645
     65       0.179561   0.402410   0.228763  -0.110538  -0.185763   0.227458
     66      -0.096039   0.129851   0.097433  -0.024423  -0.053330   0.036177
     67       0.116748   0.428542   0.203106  -0.159891  -0.189143   0.179226
     68       0.076666   0.000406  -0.001861   0.048292   0.039598   0.115509
     69      -0.088192  -0.008124  -0.108920   0.048574  -0.205701   0.119055
     70       0.066123  -0.011800  -0.037701   0.042398  -0.161027   0.013182
     71      -0.052028  -0.068505   0.193116  -0.262237   0.058344   0.031971
     72       0.012049  -0.058387  -0.020017  -0.038246   0.038620  -0.062508
     73      -0.092151  -0.080486  -0.118251   0.023904   0.062265   0.078609
     74       0.116171  -0.071276  -0.046030   0.040634   0.072421   0.071804
     75       0.041689  -0.053314   0.022736   0.066884   0.146656   0.000128
     76      -0.099951  -0.087681  -0.130612   0.005891   0.044973   0.066319
     77       0.040954  -0.334957  -0.204239   0.183466   0.274220   0.098761
     78       0.052360  -0.164125  -0.093421  -0.079577   0.046664  -0.166235
     79      -0.161907  -0.302569  -0.237951   0.195892   0.279603   0.144090
     80       0.120021   0.027716   0.013429   0.009403   0.010672   0.092042
     81       0.194064  -0.113260   0.144128   0.102516  -0.093971   0.071081
     82      -0.025677  -0.140206   0.202557   0.026295  -0.079881   0.118002
     83      -0.107153  -0.066844   0.086053   0.031112  -0.073780   0.058728
     84       0.136038   0.051414  -0.155580  -0.072475   0.109951   0.105038
     85      -0.021538   0.065509  -0.193116  -0.176724   0.167706   0.143697
     86       0.136175   0.034751  -0.175352  -0.020011   0.025680   0.013939
     87      -0.023820  -0.034794  -0.034853  -0.111069  -0.050494  -0.087433
     88      -0.104914  -0.026051  -0.133617  -0.144068  -0.122593  -0.018057
     89       0.239361  -0.031959  -0.020585  -0.083614  -0.022299  -0.081324
     90      -0.068756   0.031927   0.014177  -0.062495  -0.042561   0.006772
     91      -0.050475   0.136925  -0.049552  -0.301896  -0.316965  -0.104147
     92       0.242718  -0.105492  -0.064555  -0.059419   0.029064  -0.096316
     93       0.021069  -0.088266  -0.058446  -0.105801  -0.011672  -0.134235
     94      -0.173488  -0.148680  -0.235206  -0.128660  -0.084401  -0.016986
     95       0.266003  -0.120214  -0.072630  -0.073918   0.027778  -0.128537
     96      -0.050560  -0.031358  -0.071745  -0.218422  -0.163273  -0.153043
     97      -0.100175  -0.026093  -0.127026  -0.126164  -0.103905  -0.007074
     98       0.299578   0.158597   0.094288  -0.208711  -0.193466  -0.133763
                 12         13         14         15         16         17    
      0      -0.023661  -0.005554   0.014705  -0.001873  -0.048259  -0.017112
      1      -0.009746  -0.010009   0.004754  -0.016453   0.001337  -0.008401
      2       0.024820   0.017682  -0.036161   0.024251   0.060204   0.013873
      3       0.017447   0.031636  -0.002190  -0.089009   0.041583  -0.069816
      4       0.013140  -0.036492   0.050750  -0.056624  -0.109010  -0.003404
      5       0.050433   0.028377  -0.030858  -0.029054   0.068229  -0.012214
      6       0.032390   0.064231  -0.026191  -0.092214   0.112607  -0.069485
      7       0.011288  -0.037958   0.061333  -0.038620  -0.128247   0.012467
      8       0.037941   0.005180  -0.001451  -0.014167   0.001405   0.001015
      9       0.015769   0.066659  -0.028819  -0.100514   0.114351  -0.084057
     10      -0.001151  -0.011401   0.038512  -0.072461  -0.069147  -0.027550
     11       0.010608  -0.033898   0.028258   0.021847  -0.099120   0.043550
     12      -0.026342   0.031223  -0.012617  -0.016529   0.031288  -0.035785
     13      -0.025244   0.015289  -0.007570  -0.029303   0.042979  -0.030738
     14      -0.016657  -0.045917   0.025194   0.081267  -0.120982   0.073912
     15      -0.050716  -0.004217   0.005681   0.053084  -0.038576   0.005359
     16      -0.036309   0.015873  -0.027710   0.033401   0.078547  -0.006032
     17      -0.012900  -0.020823  -0.010473   0.106550  -0.034104   0.074931
     18       0.032412   0.032182   0.002072  -0.113210   0.035702  -0.081186
     19       0.024693  -0.052628   0.072350  -0.078780  -0.163915  -0.009576
     20       0.076203   0.057406  -0.054235  -0.067598   0.142387  -0.037814
     21       0.030092   0.100392  -0.043979  -0.153963   0.176436  -0.128338
     22       0.003818  -0.007306   0.048603  -0.101408  -0.094144  -0.035832
     23       0.006088  -0.052927   0.051486   0.023865  -0.169684   0.063042
     24      -0.088272  -0.030991   0.013782   0.140129  -0.088277   0.052862
     25      -0.062897   0.037159  -0.066909   0.106093   0.158763   0.008911
     26      -0.038755  -0.028545  -0.016840   0.169147  -0.037428   0.102274
     27      -0.014809  -0.052686   0.017960   0.086316   0.054694  -0.006892
     28       0.000105   0.040637   0.032064  -0.037399  -0.085355  -0.017945
     29      -0.097787  -0.006847   0.016755   0.106792   0.059202  -0.058122
     30       0.036636   0.030383   0.280367  -0.108553  -0.030628  -0.013436
     31      -0.030168  -0.047464  -0.280926   0.165964   0.186076  -0.077691
     32      -0.023643   0.014506   0.136976   0.063136   0.036989  -0.048265
     33      -0.040101  -0.087706  -0.067964  -0.071665  -0.012756   0.072989
     34      -0.044444   0.106032   0.078709  -0.060114   0.074546   0.146347
     35      -0.141069  -0.029622  -0.074099  -0.098254   0.012366   0.042607
     36      -0.148514  -0.022763  -0.093351  -0.154855  -0.061437   0.066941
     37      -0.020247   0.089792   0.084130  -0.041062   0.084874   0.145906
     38      -0.328645   0.094259  -0.097591  -0.290036   0.120986   0.313863
     39      -0.014824  -0.132170  -0.120681  -0.198092  -0.044892   0.130613
     40      -0.256329   0.240784   0.051825  -0.242435   0.161868   0.382321
     41      -0.097896  -0.045578  -0.046268  -0.003567   0.003641  -0.037494
     42      -0.001153  -0.038933   0.113564   0.295881   0.135244  -0.099457
     43       0.096893   0.086070  -0.051323  -0.189363  -0.206735   0.016717
     44      -0.112193  -0.015514  -0.009383   0.047436   0.042103  -0.029322
     45       0.057551   0.163371   0.292657  -0.055215  -0.128177   0.026407
     46       0.102941   0.229975  -0.370977   0.028905  -0.137900   0.094788
     47       0.066568   0.152127   0.041183  -0.060765  -0.153734   0.062261
     48      -0.021032   0.086016  -0.013785   0.174024  -0.044149  -0.065789
     49      -0.095004  -0.182960   0.104317   0.119759   0.189282  -0.105528
     50      -0.000731  -0.096577   0.023460  -0.039727   0.271493  -0.069667
     51       0.011743   0.087530  -0.036162   0.023569   0.022091  -0.040038
     52      -0.025362  -0.036156   0.055884   0.002920  -0.056598  -0.020010
     53       0.015667   0.022492  -0.009716   0.043660  -0.020072  -0.021049
     54       0.022118   0.170990  -0.054806   0.001821  -0.048791  -0.047396
     55      -0.023370   0.015508   0.040440  -0.035088  -0.053568  -0.040397
     56       0.036824   0.090298  -0.014353   0.088908  -0.220963   0.023991
     57      -0.031208   0.135454  -0.036455   0.197734  -0.176451  -0.053099
     58      -0.099026  -0.153139   0.082280   0.132741   0.121492  -0.098910
     59       0.039303  -0.025226   0.002382  -0.075738   0.143859  -0.019454
     60       0.028561  -0.155480  -0.067810   0.007689   0.015578   0.076837
     61       0.125950  -0.025003   0.094396   0.068959   0.088516   0.078921
     62       0.012529  -0.122237  -0.083157  -0.113275  -0.087549  -0.088627
     63       0.130656  -0.243648  -0.081937   0.076498  -0.003049   0.004762
     64       0.105156  -0.007534   0.096749   0.053672   0.090459   0.091081
     65       0.093515  -0.228418  -0.069945  -0.055507  -0.087521  -0.160108
     66      -0.067251  -0.147828  -0.086842  -0.024030   0.039637   0.117492
     67       0.249765  -0.155750   0.101323   0.139915   0.066755  -0.025098
     68       0.014042  -0.088711  -0.076795  -0.118077  -0.088898  -0.075507
     69       0.046142   0.077959   0.271784  -0.088657  -0.058692   0.000219
     70       0.084130   0.149256  -0.345812   0.047090   0.003838   0.022723
     71       0.049442   0.068953   0.051944  -0.057294  -0.032864   0.003697
     72       0.080027  -0.097054  -0.013810   0.062620   0.047173   0.126913
     73       0.131155  -0.048413   0.036743   0.044024   0.032511   0.018418
     74       0.068974  -0.055808  -0.031902  -0.059791  -0.066744  -0.070356
     75       0.236280  -0.129371   0.047206   0.126112   0.104872   0.189384
     76       0.102718  -0.043362   0.023552   0.030910   0.019439   0.004227
     77       0.233292  -0.115873  -0.040296  -0.036780  -0.092240  -0.101888
     78       0.055153   0.005989   0.042598   0.127232   0.088698   0.152142
     79       0.333723  -0.139608   0.029090   0.062902   0.009712  -0.002028
     80       0.023066  -0.068350  -0.049920  -0.087873  -0.075141  -0.073857
     81      -0.037391  -0.034566   0.032136   0.036855  -0.119385   0.015649
     82      -0.012508  -0.008031  -0.006656  -0.006508   0.021509  -0.011355
     83       0.031088   0.040070  -0.061902   0.009162   0.134228  -0.012348
     84      -0.042817   0.033548  -0.017217  -0.001767   0.035008  -0.033912
     85      -0.039132   0.035536  -0.029909  -0.022440   0.097703  -0.039985
     86      -0.043864  -0.073528   0.049009   0.116058  -0.203567   0.096288
     87      -0.043893  -0.111656  -0.095752  -0.023330  -0.027329   0.074032
     88      -0.115158   0.011920  -0.042896  -0.051372  -0.042826  -0.052951
     89      -0.033979   0.160212   0.113565   0.079897   0.072862   0.019445
     90      -0.029646  -0.219656  -0.172106  -0.140417  -0.075384   0.204266
     91      -0.350321   0.130245  -0.037793  -0.114662   0.000028   0.170627
     92       0.026190   0.171933   0.143922   0.146554   0.080886  -0.097667
     93       0.008771  -0.035521  -0.005212   0.097265   0.044271   0.023369
     94      -0.093783  -0.061479  -0.127387  -0.079308  -0.164163  -0.353950
     95       0.025588   0.217404   0.182474   0.194920   0.112275  -0.115091
     96      -0.204599  -0.093189  -0.175960  -0.099273  -0.114791  -0.053970
     97      -0.088384   0.009052  -0.029202  -0.038736  -0.027866  -0.030317
     98      -0.231485   0.263201   0.134189   0.016711   0.143883   0.336510
                 18         19         20         21         22         23    
      0      -0.004890   0.048116   0.007101   0.086219  -0.107164   0.031686
      1      -0.000687   0.038346   0.006513   0.004390  -0.143438   0.020975
      2       0.003978  -0.012824  -0.006779  -0.173614  -0.095649  -0.001207
      3      -0.015216   0.086431  -0.003963  -0.012175   0.110454   0.013521
      4      -0.005978   0.157531   0.011464   0.031664   0.143556  -0.007385
      5      -0.003148   0.043609  -0.009391  -0.182104   0.088703  -0.013101
      6      -0.010384  -0.023022  -0.013134  -0.063384  -0.003265  -0.017897
      7      -0.000126   0.049852   0.006611   0.120696  -0.001488  -0.022451
      8      -0.000386  -0.002043  -0.007176   0.005663  -0.001119  -0.003014
      9      -0.016465   0.064282  -0.008830  -0.118788  -0.110496   0.018990
     10      -0.010632   0.154009   0.010328   0.071619  -0.141804   0.035846
     11       0.003456   0.084539   0.003701  -0.098331  -0.094796   0.000437
     12      -0.006975   0.025976  -0.004220  -0.029771   0.112448   0.000708
     13      -0.005136   0.036190  -0.002971   0.010643   0.147586   0.010018
     14       0.010768   0.037641   0.003470  -0.082502   0.090954  -0.020630
     15       0.003507  -0.071094   0.000474   0.146027   0.001052   0.001022
     16       0.006381  -0.132681  -0.007343   0.076224  -0.001292  -0.008990
     17       0.017032  -0.091031  -0.004821  -0.118604  -0.005721  -0.042155
     18      -0.019631   0.142969  -0.001941  -0.049906   0.244319   0.012274
     19      -0.011446   0.247664   0.018598   0.059872   0.318406   0.000275
     20      -0.007439   0.062130  -0.014844  -0.332093   0.198592  -0.027702
     21      -0.025582   0.099287  -0.010965  -0.149279  -0.243624   0.048026
     22      -0.015097   0.223335   0.026595   0.037488  -0.315257   0.057140
     23       0.004265   0.141832   0.023996  -0.111658  -0.204701   0.006599
     24       0.015995  -0.184606   0.002551   0.242405  -0.002384  -0.014980
     25       0.017113  -0.323136  -0.016288   0.107243  -0.005919  -0.029816
     26       0.026044  -0.198208  -0.006231  -0.060203  -0.008622  -0.055221
     27      -0.005814   0.039199  -0.002111   0.079348  -0.004959  -0.053670
     28       0.005404  -0.205684  -0.009491  -0.020656   0.005431   0.005898
     29      -0.013010   0.080674  -0.003368   0.171358   0.007010   0.098035
     30       0.001354  -0.087721   0.019742  -0.065111  -0.059449  -0.164509
     31      -0.024100   0.041366   0.054323  -0.001504  -0.011536  -0.055989
     32      -0.014658   0.043942   0.020488   0.046349   0.108058   0.284872
     33       0.022357  -0.022538   0.001584  -0.011698  -0.009275  -0.154896
     34       0.046566  -0.016740   0.004025  -0.075624   0.003646   0.080571
     35       0.021379   0.070607   0.006255   0.061158  -0.002668  -0.034675
     36       0.018411  -0.100308  -0.002175  -0.029959  -0.011577  -0.196357
     37       0.046937   0.001049   0.004746  -0.069829   0.003859   0.087154
     38       0.087085   0.187401   0.022430  -0.066771  -0.009395  -0.059028
     39       0.043802  -0.024951   0.008892  -0.116127  -0.015094  -0.239447
     40       0.102085   0.065348   0.014464  -0.172888  -0.002888   0.046577
     41      -0.000608   0.051537   0.000633   0.124219   0.001391   0.008548
     42      -0.040857   0.113198  -0.014855   0.199067   0.009309   0.107893
     43       0.021714  -0.412294   0.001170  -0.172661  -0.007030  -0.157348
     44      -0.002359   0.073721  -0.000449   0.143701   0.003558   0.058054
     45       0.006569   0.021746  -0.072299   0.067060   0.112083   0.323132
     46       0.017766   0.134667  -0.786791   0.103534  -0.064028  -0.087548
     47       0.013969   0.064126  -0.562041   0.067089  -0.015101   0.022924
     48      -0.024574   0.039078  -0.132126  -0.103309   0.034222   0.011342
     49      -0.027236  -0.000526  -0.106289  -0.208431   0.015598  -0.007917
     50      -0.008131  -0.090054   0.118089   0.139506  -0.025237  -0.031898
     51      -0.006809  -0.053125   0.002558   0.032999  -0.000489  -0.022517
     52      -0.000053  -0.117015  -0.012380   0.017227   0.001670  -0.007804
     53      -0.004480  -0.060984  -0.002020   0.134040   0.002497   0.019224
     54      -0.003336  -0.148336   0.002563   0.040263   0.007716   0.005010
     55       0.001758  -0.205014  -0.013695   0.003016   0.007722   0.014610
     56      -0.000262  -0.050170   0.007954   0.193409   0.004367   0.018494
     57      -0.021525   0.005898   0.019762  -0.073334  -0.004844  -0.003203
     58      -0.025639  -0.017585  -0.016451  -0.194261  -0.008189  -0.019030
     59       0.003990  -0.098575  -0.012200   0.234600   0.009018   0.009751
     60       0.025499   0.024873   0.001538   0.042489  -0.005589  -0.115127
     61       0.034782   0.044380   0.001591  -0.008045   0.003418   0.062994
     62      -0.003381  -0.020382  -0.001902  -0.024160  -0.002155  -0.031978
     63       0.002538   0.046612  -0.000361   0.106411  -0.008527  -0.191081
     64       0.040556   0.038415   0.001792  -0.021971   0.003876   0.077373
     65       0.068555   0.003968  -0.006742  -0.022068  -0.000952  -0.000205
     66       0.074744   0.067782   0.005444   0.082013  -0.010446  -0.203010
     67       0.082705   0.060256  -0.004424   0.001890   0.004823   0.075177
     68      -0.033869  -0.039179  -0.001810  -0.040131  -0.000574  -0.000406
     69       0.002903  -0.048140   0.009612  -0.021383  -0.005545  -0.013523
     70       0.001454   0.027417   0.059872   0.024206   0.004787   0.006174
     71       0.001348  -0.031314   0.054090  -0.015290  -0.002188  -0.013134
     72       0.005936  -0.005641  -0.000375   0.003266   0.006695   0.084152
     73      -0.048749   0.031982   0.002208   0.041581  -0.006480  -0.102366
     74      -0.051593  -0.048077  -0.003413  -0.048833   0.004618   0.088135
     75      -0.010765   0.016565   0.000147   0.014626   0.008141   0.110469
     76      -0.046529   0.026017   0.002011   0.038257  -0.006630  -0.104827
     77      -0.131948  -0.073661  -0.004394  -0.033076   0.003075   0.070108
     78       0.008578   0.001075   0.000860   0.016289   0.008890   0.118860
     79      -0.129374   0.004889   0.000577   0.046228  -0.006449  -0.092491
     80      -0.029980  -0.042241  -0.003415  -0.053429   0.003604   0.069222
     81      -0.000155   0.074593   0.018008   0.082567  -0.236583   0.042741
     82      -0.000793   0.044177   0.011532  -0.020259  -0.309690   0.050906
     83       0.000591  -0.024719  -0.008611  -0.202586  -0.202330   0.025961
     84      -0.007015   0.036024  -0.003758  -0.058002   0.243287   0.000278
     85      -0.006052   0.032608  -0.006583  -0.091656   0.318917   0.002732
     86       0.012339   0.075053   0.010806   0.001253   0.203257  -0.010978
     87       0.024178  -0.055390  -0.003238  -0.048513   0.014303   0.203641
     88      -0.000173  -0.010804   0.000283  -0.003955  -0.002463  -0.040493
     89       0.009031   0.043553   0.002846   0.035646  -0.004569  -0.066604
     90      -0.311279  -0.139386  -0.009091  -0.100346   0.022717   0.342244
     91      -0.351360  -0.038362  -0.000666   0.009178  -0.003164  -0.056393
     92       0.247320   0.086450   0.005548   0.053766  -0.007915  -0.120756
     93       0.224383   0.027476   0.002234   0.017289   0.004428   0.041653
     94       0.424355  -0.035678  -0.001200  -0.081100   0.007155   0.116315
     95       0.329822   0.121088   0.008003   0.081632  -0.011984  -0.188828
     96       0.176079  -0.100147  -0.005400  -0.113005   0.023007   0.340977
     97      -0.027184  -0.003467   0.000608   0.006844  -0.003915  -0.063081
     98      -0.496327   0.016006   0.001647   0.067271  -0.007760  -0.120440
                 24         25         26         27         28         29    
      0      -0.008935  -0.026028   0.021271  -0.090771   0.031937  -0.043246
      1      -0.001012  -0.025616  -0.008316  -0.110358  -0.049433   0.209674
      2       0.005685  -0.027043  -0.003966  -0.060877  -0.013803  -0.259807
      3      -0.011819  -0.041282   0.005762   0.067910   0.016303   0.275972
      4      -0.012353   0.027720  -0.005275   0.022012  -0.002507  -0.110391
      5      -0.001569  -0.017770  -0.003858   0.046372   0.008818  -0.164295
      6       0.026753   0.028000  -0.020060   0.176093  -0.021522   0.068047
      7       0.023414   0.098135  -0.001465   0.179093   0.031012  -0.099923
      8       0.010197   0.023292   0.021933   0.138206   0.077241   0.052326
      9       0.015095  -0.039099  -0.012791   0.066809  -0.042298   0.032233
     10       0.002311   0.001458   0.024002   0.017208   0.059638  -0.189233
     11       0.012282   0.001738  -0.006937   0.031670  -0.022057   0.244524
     12      -0.009196  -0.023261  -0.002405  -0.076436  -0.023348  -0.300770
     13      -0.019352  -0.040870   0.010451  -0.100002   0.007784   0.126621
     14      -0.003852   0.008311  -0.008903  -0.074897  -0.035129   0.173555
     15       0.001730   0.032203   0.017123   0.094660   0.062801  -0.087723
     16       0.009450   0.026888   0.000343   0.147083   0.032950   0.098274
     17       0.020616   0.051108  -0.029358   0.087869  -0.055757  -0.065279
     18      -0.034431  -0.075544   0.002865  -0.058044  -0.006050   0.262743
     19      -0.048363  -0.014143   0.006704  -0.153316   0.013908  -0.171468
     20      -0.010272  -0.054783  -0.032154  -0.035926  -0.078662  -0.051540
     21      -0.015096  -0.107786   0.009024  -0.032014  -0.056773   0.173522
     22      -0.027190  -0.048141   0.001874  -0.152357   0.024607  -0.205366
     23      -0.001060  -0.008427  -0.045320  -0.098124  -0.050300   0.106309
     24       0.004182   0.067613   0.011555   0.113066   0.054098   0.198236
     25       0.015557   0.049766  -0.006827   0.184561   0.040841  -0.175196
     26       0.023108   0.074498  -0.032823   0.107010  -0.055592   0.007099
     27       0.020296   0.152586  -0.067893  -0.055737  -0.086504   0.009354
     28       0.005484  -0.127086  -0.012331  -0.032696  -0.112941  -0.032420
     29      -0.032869  -0.079775  -0.028682   0.065684  -0.120258  -0.026828
     30      -0.329577   0.101232   0.116970   0.055303  -0.130906  -0.003655
     31      -0.084356   0.233431   0.376859  -0.023913  -0.355375  -0.012416
     32       0.570502  -0.067416   0.099673  -0.124146  -0.025849  -0.008300
     33       0.043405   0.044128  -0.023111  -0.071597  -0.022870   0.010853
     34      -0.005391   0.116226  -0.013211  -0.043996  -0.006087   0.007826
     35      -0.009962  -0.115364   0.023974   0.072506   0.011022  -0.015889
     36       0.055660   0.030317  -0.032928  -0.092906  -0.076474  -0.000434
     37      -0.008497   0.118043  -0.010703  -0.037572   0.004270   0.009973
     38       0.009443   0.086277   0.053689   0.022413   0.181897   0.046090
     39       0.073231   0.116326   0.010272  -0.113501   0.071075   0.039192
     40       0.010621   0.256896   0.009611  -0.080766   0.111590   0.051888
     41      -0.024579  -0.173393   0.004322   0.095526  -0.053818  -0.036534
     42       0.045873   0.339324  -0.173411  -0.078610  -0.368336  -0.008677
     43      -0.026017  -0.275170   0.139551  -0.137548   0.388876   0.040050
     44      -0.036471  -0.131294  -0.006331   0.083113  -0.072771  -0.028664
     45       0.622153  -0.244158  -0.222370  -0.120331   0.263489   0.001228
     46      -0.190841   0.048265  -0.066934  -0.024224   0.027355   0.001639
     47       0.038868  -0.042429  -0.093363  -0.047769   0.090609   0.000154
     48       0.190232   0.204952   0.645778  -0.078860  -0.185212   0.042258
     49       0.118851   0.108324   0.375654  -0.036230  -0.046677   0.010760
     50      -0.185463   0.024271  -0.354751  -0.202444   0.431497   0.004049
     51       0.008579   0.068460  -0.004052  -0.078468   0.007991  -0.012367
     52       0.010794  -0.066446  -0.029538   0.030147  -0.121493  -0.015656
     53      -0.015090  -0.023474   0.036407  -0.042185   0.080076   0.030457
     54      -0.004038  -0.066088   0.009369  -0.111312  -0.075261  -0.025853
     55      -0.003156  -0.191319  -0.037840  -0.000374  -0.183000  -0.030068
     56      -0.008281  -0.000608   0.088061  -0.044319   0.076149   0.026686
     57      -0.022510   0.004114  -0.000543  -0.020273   0.105324   0.034895
     58      -0.009093  -0.005383  -0.005527  -0.007621   0.136933   0.005708
     59      -0.001797   0.048062   0.028574  -0.138889   0.066694   0.019619
     60       0.019485  -0.096703   0.007432   0.003274  -0.001109  -0.002299
     61      -0.016223   0.023205   0.005180   0.006476   0.013785   0.004349
     62       0.014790   0.056019  -0.009949  -0.018087  -0.004436   0.002728
     63       0.024602  -0.224282   0.020903   0.042495  -0.002085  -0.013986
     64      -0.016963   0.050323   0.002089  -0.002583   0.013722   0.006844
     65       0.009743   0.074247  -0.015112  -0.009451  -0.013178   0.002049
     66       0.029707  -0.191812   0.020354   0.031504  -0.000900  -0.012827
     67      -0.016918   0.033692  -0.002397   0.012450   0.002067   0.005708
     68       0.010684   0.088022  -0.012960  -0.029166  -0.002310   0.005973
     69      -0.041780  -0.000615   0.013821   0.009350  -0.015457  -0.001724
     70       0.010323   0.001109  -0.014577   0.003716  -0.000441   0.001384
     71      -0.019406  -0.000966   0.016434   0.010733  -0.013954  -0.000474
     72      -0.021012  -0.079258   0.016715   0.028333   0.008809  -0.005119
     73       0.014185  -0.049772   0.003654   0.005245   0.000854  -0.001943
     74      -0.006913   0.114879  -0.016716  -0.023515  -0.007720   0.006490
     75      -0.031104  -0.107457   0.025518   0.043819   0.014837  -0.007335
     76       0.015877  -0.041650   0.001462   0.001678  -0.000935  -0.001478
     77      -0.003260   0.097662  -0.021782  -0.020089  -0.025483   0.000364
     78      -0.033239  -0.114681   0.024388   0.047542   0.009445  -0.009986
     79       0.013446  -0.049996  -0.002148   0.007084  -0.013591  -0.006269
     80      -0.001788   0.124938  -0.017721  -0.030510  -0.004103   0.009155
     81      -0.015864  -0.040092   0.011911  -0.294071  -0.027789  -0.179400
     82      -0.014266  -0.088512  -0.006151  -0.341210  -0.083850   0.231743
     83      -0.004884  -0.091483   0.004410  -0.191613  -0.016852  -0.120006
     84      -0.032679  -0.064594  -0.005619  -0.251605  -0.055762  -0.281249
     85      -0.044447  -0.102605  -0.009399  -0.316623  -0.075760   0.199059
     86      -0.033440  -0.011697   0.014839  -0.248872   0.003808   0.065777
     87      -0.037571  -0.019430   0.013092   0.028558   0.010142  -0.004418
     88       0.010570   0.023480  -0.007008  -0.013187  -0.004261   0.001845
     89       0.006621  -0.022337   0.000406   0.000618  -0.000624  -0.000610
     90      -0.055230   0.067388   0.004117   0.020054   0.007673   0.000237
[...]
     18       0.005059   0.000192   0.000363
     19      -0.002942  -0.000180  -0.000303
     20      -0.001382  -0.000028   0.000034
     21       0.003675  -0.000373   0.001983
     22      -0.007093   0.000553  -0.002033
     23       0.005405  -0.000648   0.001676
     24      -0.000377   0.000372  -0.000049
     25      -0.000433   0.000245  -0.000190
     26       0.001179  -0.000705   0.000368
     27       0.000762  -0.021921  -0.000015
     28       0.000475  -0.008891   0.000123
     29       0.002227  -0.065284   0.000145
     30       0.044848  -0.018918   0.010568
     31      -0.009083   0.007598  -0.023372
     32       0.025674  -0.010977   0.031403
     33      -0.000026  -0.000986   0.000005
     34      -0.000055   0.000423  -0.000070
     35       0.000215  -0.002520   0.000092
     36       0.000931  -0.000498   0.000586
     37       0.001542  -0.002320   0.000988
     38       0.000209  -0.000997  -0.000179
     39      -0.001625   0.005927   0.000009
     40      -0.000866   0.005117  -0.000339
     41      -0.000314   0.011777  -0.001128
     42      -0.009931   0.322650  -0.001055
     43      -0.004598   0.106954  -0.000391
     44      -0.032553   0.936735  -0.002700
     45      -0.008609   0.001242   0.214129
     46      -0.014568   0.000754   0.559210
     47       0.018275  -0.001994  -0.797201
     48       0.483184   0.017611   0.009680
     49      -0.869486  -0.031484  -0.021839
     50      -0.041013  -0.001800   0.000850
     51      -0.002841  -0.000921  -0.000064
     52       0.001662   0.000563   0.000002
     53      -0.001436  -0.001530   0.000041
     54       0.009210  -0.002442  -0.000005
     55      -0.011357   0.008478  -0.000175
     56      -0.003481   0.001066  -0.000129
     57      -0.029310  -0.001026  -0.000609
     58       0.054873   0.001698   0.001265
     59       0.003653   0.000221   0.000011
     60       0.000064  -0.000097   0.000019
     61       0.000192  -0.000090  -0.000001
     62      -0.000152   0.000266  -0.000010
     63      -0.000419   0.000003  -0.000038
     64      -0.001907   0.000283   0.000296
     65       0.000144  -0.000478  -0.000019
     66       0.000410   0.002498  -0.000189
     67       0.000122  -0.000130  -0.000006
     68       0.001301   0.001431  -0.000247
     69      -0.001952   0.001138  -0.014091
     70       0.000719  -0.000589  -0.033733
     71      -0.002807   0.000735   0.048241
     72       0.000039  -0.000056   0.000005
     73       0.000010   0.000035  -0.000018
     74       0.000038  -0.000055   0.000021
     75      -0.000068  -0.000182   0.000062
     76      -0.000098  -0.000417   0.000153
     77       0.000129   0.000002  -0.000043
     78      -0.000230  -0.000164  -0.000012
     79      -0.000169   0.000330  -0.000023
     80      -0.000464   0.000941  -0.000177
     81       0.001040  -0.000328   0.000124
     82      -0.001756   0.000729  -0.000232
     83       0.001519  -0.000730   0.000191
     84      -0.000708   0.000739   0.000289
     85       0.000239  -0.000344  -0.000204
     86       0.000536  -0.000407  -0.000060
     87       0.000002   0.000016   0.000000
     88       0.000059  -0.000018  -0.000003
     89      -0.000020   0.000000   0.000006
     90       0.000063   0.000055  -0.000018
     91       0.000041   0.000011   0.000005
     92       0.000273   0.000038  -0.000017
     93       0.000177  -0.000538   0.000043
     94       0.000005  -0.000036   0.000003
     95      -0.000180   0.000361  -0.000031
     96      -0.000087   0.000025  -0.000010
     97      -0.000618   0.000261   0.000017
     98       0.000024  -0.000048  -0.000003


-----------
IR SPECTRUM  
-----------

 Mode    freq (cm**-1)   T**2         TX         TY         TZ
-------------------------------------------------------------------
   6:        45.78    0.000000  (  0.000000   0.000000   0.000000)
   7:        60.83    0.000000  (  0.000000   0.000000   0.000000)
   8:        65.07    0.000000  (  0.000000   0.000000   0.000000)
   9:        69.29    0.000000  (  0.000000   0.000000   0.000000)
  10:        76.03    0.000000  (  0.000000   0.000000   0.000000)
  11:       113.80    0.000000  (  0.000000   0.000000   0.000000)
  12:       126.17    0.000000  (  0.000000   0.000000   0.000000)
  13:       141.50    0.000000  (  0.000000   0.000000   0.000000)
  14:       164.75    0.000000  (  0.000000   0.000000   0.000000)
  15:       208.57    0.000000  (  0.000000   0.000000   0.000000)
  16:       212.81    0.000000  (  0.000000   0.000000   0.000000)
  17:       244.18    0.000000  (  0.000000   0.000000   0.000000)
  18:       264.81    0.000000  (  0.000000   0.000000   0.000000)
  19:       289.34    0.000000  (  0.000000   0.000000   0.000000)
  20:       315.73    0.000000  (  0.000000   0.000000   0.000000)
  21:       352.16    0.000000  (  0.000000   0.000000   0.000000)
  22:       383.89    0.000000  (  0.000000   0.000000   0.000000)
  23:       399.45    0.000000  (  0.000000   0.000000   0.000000)
  24:       432.22    0.000000  (  0.000000   0.000000   0.000000)
  25:       447.48    0.000000  (  0.000000   0.000000   0.000000)
  26:       491.75    0.000000  (  0.000000   0.000000   0.000000)
  27:       532.57    0.000000  (  0.000000   0.000000   0.000000)
  28:       540.15    0.000000  (  0.000000   0.000000   0.000000)
  29:       589.84    0.000000  (  0.000000   0.000000   0.000000)
  30:       624.81    0.000000  (  0.000000   0.000000   0.000000)
  31:       677.54    0.000000  (  0.000000   0.000000   0.000000)
  32:       694.82    0.000000  (  0.000000   0.000000   0.000000)
  33:       758.20    0.000000  (  0.000000   0.000000   0.000000)
  34:       765.40    0.000000  (  0.000000   0.000000   0.000000)
  35:       791.97    0.000000  (  0.000000   0.000000   0.000000)
  36:       825.47    0.000000  (  0.000000   0.000000   0.000000)
  37:       843.33    0.000000  (  0.000000   0.000000   0.000000)
  38:       885.06    0.000000  (  0.000000   0.000000   0.000000)
  39:       908.85    0.000000  (  0.000000   0.000000   0.000000)
  40:       934.10    0.000000  (  0.000000   0.000000   0.000000)
  41:       936.88    0.000000  (  0.000000   0.000000   0.000000)
  42:       937.36    0.000000  (  0.000000   0.000000   0.000000)
  43:       946.00    0.000000  (  0.000000   0.000000   0.000000)
  44:       968.45    0.000000  (  0.000000   0.000000   0.000000)
  45:       990.32    0.000000  (  0.000000   0.000000   0.000000)
  46:      1026.12    0.000000  (  0.000000   0.000000   0.000000)
  47:      1049.39    0.000000  (  0.000000   0.000000   0.000000)
  48:      1074.50    0.000000  (  0.000000   0.000000   0.000000)
  49:      1093.12    0.000000  (  0.000000   0.000000   0.000000)
  50:      1100.39    0.000000  (  0.000000   0.000000   0.000000)
  51:      1117.54    0.000000  (  0.000000   0.000000   0.000000)
  52:      1127.25    0.000000  (  0.000000   0.000000   0.000000)
  53:      1142.20    0.000000  (  0.000000   0.000000   0.000000)
  54:      1179.65    0.000000  (  0.000000   0.000000   0.000000)
  55:      1188.91    0.000000  (  0.000000   0.000000   0.000000)
  56:      1205.53    0.000000  (  0.000000   0.000000   0.000000)
  57:      1208.43    0.000000  (  0.000000   0.000000   0.000000)
  58:      1219.70    0.000000  (  0.000000   0.000000   0.000000)
  59:      1252.99    0.000000  (  0.000000   0.000000   0.000000)
  60:      1263.81    0.000000  (  0.000000   0.000000   0.000000)
  61:      1278.31    0.000000  (  0.000000   0.000000   0.000000)
  62:      1282.28    0.000000  (  0.000000   0.000000   0.000000)
  63:      1282.77    0.000000  (  0.000000   0.000000   0.000000)
  64:      1299.70    0.000000  (  0.000000   0.000000   0.000000)
  65:      1329.07    0.000000  (  0.000000   0.000000   0.000000)
  66:      1337.55    0.000000  (  0.000000   0.000000   0.000000)
  67:      1366.51    0.000000  (  0.000000   0.000000   0.000000)
  68:      1372.54    0.000000  (  0.000000   0.000000   0.000000)
  69:      1425.63    0.000000  (  0.000000   0.000000   0.000000)
  70:      1428.44    0.000000  (  0.000000   0.000000   0.000000)
  71:      1463.33    0.000000  (  0.000000   0.000000   0.000000)
  72:      1481.64    0.000000  (  0.000000   0.000000   0.000000)
  73:      1499.66    0.000000  (  0.000000   0.000000   0.000000)
  74:      1505.14    0.000000  (  0.000000   0.000000   0.000000)
  75:      1506.87    0.000000  (  0.000000   0.000000   0.000000)
  76:      1511.27    0.000000  (  0.000000   0.000000   0.000000)
  77:      1538.43    0.000000  (  0.000000   0.000000   0.000000)
  78:      1568.94    0.000000  (  0.000000   0.000000   0.000000)
  79:      1576.78    0.000000  (  0.000000   0.000000   0.000000)
  80:      2930.33    0.000000  (  0.000000   0.000000   0.000000)
  81:      2937.10    0.000000  (  0.000000   0.000000   0.000000)
  82:      2947.12    0.000000  (  0.000000   0.000000   0.000000)
  83:      2962.22    0.000000  (  0.000000   0.000000   0.000000)
  84:      2965.86    0.000000  (  0.000000   0.000000   0.000000)
  85:      2970.78    0.000000  (  0.000000   0.000000   0.000000)
  86:      2979.98    0.000000  (  0.000000   0.000000   0.000000)
  87:      2985.57    0.000000  (  0.000000   0.000000   0.000000)
  88:      2997.05    0.000000  (  0.000000   0.000000   0.000000)
  89:      2997.55    0.000000  (  0.000000   0.000000   0.000000)
  90:      3044.08    0.000000  (  0.000000   0.000000   0.000000)
  91:      3054.09    0.000000  (  0.000000   0.000000   0.000000)
  92:      3059.15    0.000000  (  0.000000   0.000000   0.000000)
  93:      3069.29    0.000000  (  0.000000   0.000000   0.000000)
  94:      3074.97    0.000000  (  0.000000   0.000000   0.000000)
  95:      3078.21    0.000000  (  0.000000   0.000000   0.000000)
  96:      3350.17    0.000000  (  0.000000   0.000000   0.000000)
  97:      3396.15    0.000000  (  0.000000   0.000000   0.000000)
  98:      3574.82    0.000000  (  0.000000   0.000000   0.000000)

The first frequency considered to be a vibration is 6
The total number of vibrations considered is 93


--------------------------
THERMOCHEMISTRY AT 298.15K
--------------------------

Temperature         ... 298.15 K
Pressure            ... 1.00 atm
Total Mass          ... 197.28 AMU

Throughout the following assumptions are being made:
  (1) The electronic state is orbitally nondegenerate
  (2) There are no thermally accessible electronically excited states
  (3) Hindered rotations indicated by low frequency modes are not
      treated as such but are treated as vibrations and this may
      cause some error
  (4) All equations used are the standard statistical mechanics
      equations for an ideal gas
  (5) All vibrations are strictly harmonic

freq.      45.78  E(vib)   ...       0.53 
freq.      60.83  E(vib)   ...       0.51 
freq.      65.07  E(vib)   ...       0.50 
freq.      69.29  E(vib)   ...       0.50 
freq.      76.03  E(vib)   ...       0.49 
freq.     113.80  E(vib)   ...       0.44 
freq.     126.17  E(vib)   ...       0.43 
freq.     141.50  E(vib)   ...       0.41 
freq.     164.75  E(vib)   ...       0.39 
freq.     208.57  E(vib)   ...       0.34 
freq.     212.81  E(vib)   ...       0.34 
freq.     244.18  E(vib)   ...       0.31 
freq.     264.81  E(vib)   ...       0.29 
freq.     289.34  E(vib)   ...       0.27 
freq.     315.73  E(vib)   ...       0.25 
freq.     352.16  E(vib)   ...       0.23 
freq.     383.89  E(vib)   ...       0.20 
freq.     399.45  E(vib)   ...       0.19 
freq.     432.22  E(vib)   ...       0.18 
freq.     447.48  E(vib)   ...       0.17 
freq.     491.75  E(vib)   ...       0.14 
freq.     532.57  E(vib)   ...       0.13 
freq.     540.15  E(vib)   ...       0.12 
freq.     589.84  E(vib)   ...       0.10 
freq.     624.81  E(vib)   ...       0.09 
freq.     677.54  E(vib)   ...       0.08 
freq.     694.82  E(vib)   ...       0.07 
freq.     758.20  E(vib)   ...       0.06 
freq.     765.40  E(vib)   ...       0.06 
freq.     791.97  E(vib)   ...       0.05 
freq.     825.47  E(vib)   ...       0.04 
freq.     843.33  E(vib)   ...       0.04 
freq.     885.06  E(vib)   ...       0.04 
freq.     908.85  E(vib)   ...       0.03 
freq.     934.10  E(vib)   ...       0.03 
freq.     936.88  E(vib)   ...       0.03 
freq.     937.36  E(vib)   ...       0.03 
freq.     946.00  E(vib)   ...       0.03 
freq.     968.45  E(vib)   ...       0.03 
freq.     990.32  E(vib)   ...       0.02 
freq.    1026.12  E(vib)   ...       0.02 
freq.    1049.39  E(vib)   ...       0.02 
freq.    1074.50  E(vib)   ...       0.02 
freq.    1093.12  E(vib)   ...       0.02 
freq.    1100.39  E(vib)   ...       0.02 
freq.    1117.54  E(vib)   ...       0.01 
freq.    1127.25  E(vib)   ...       0.01 
freq.    1142.20  E(vib)   ...       0.01 
freq.    1179.65  E(vib)   ...       0.01 
freq.    1188.91  E(vib)   ...       0.01 
freq.    1205.53  E(vib)   ...       0.01 
freq.    1208.43  E(vib)   ...       0.01 
freq.    1219.70  E(vib)   ...       0.01 
freq.    1252.99  E(vib)   ...       0.01 
freq.    1263.81  E(vib)   ...       0.01 
freq.    1278.31  E(vib)   ...       0.01 
freq.    1282.28  E(vib)   ...       0.01 
freq.    1282.77  E(vib)   ...       0.01 
freq.    1299.70  E(vib)   ...       0.01 
freq.    1329.07  E(vib)   ...       0.01 
freq.    1337.55  E(vib)   ...       0.01 
freq.    1366.51  E(vib)   ...       0.01 
freq.    1372.54  E(vib)   ...       0.01 
freq.    1425.63  E(vib)   ...       0.00 
freq.    1428.44  E(vib)   ...       0.00 
freq.    1463.33  E(vib)   ...       0.00 
freq.    1481.64  E(vib)   ...       0.00 
freq.    1499.66  E(vib)   ...       0.00 
freq.    1505.14  E(vib)   ...       0.00 
freq.    1506.87  E(vib)   ...       0.00 
freq.    1511.27  E(vib)   ...       0.00 
freq.    1538.43  E(vib)   ...       0.00 
freq.    1568.94  E(vib)   ...       0.00 
freq.    1576.78  E(vib)   ...       0.00 
freq.    2930.33  E(vib)   ...       0.00 
freq.    2937.10  E(vib)   ...       0.00 
freq.    2947.12  E(vib)   ...       0.00 
freq.    2962.22  E(vib)   ...       0.00 
freq.    2965.86  E(vib)   ...       0.00 
freq.    2970.78  E(vib)   ...       0.00 
freq.    2979.98  E(vib)   ...       0.00 
freq.    2985.57  E(vib)   ...       0.00 
freq.    2997.05  E(vib)   ...       0.00 
freq.    2997.55  E(vib)   ...       0.00 
freq.    3044.08  E(vib)   ...       0.00 
freq.    3054.09  E(vib)   ...       0.00 
freq.    3059.15  E(vib)   ...       0.00 
freq.    3069.29  E(vib)   ...       0.00 
freq.    3074.97  E(vib)   ...       0.00 
freq.    3078.21  E(vib)   ...       0.00 
freq.    3350.17  E(vib)   ...       0.00 
freq.    3396.15  E(vib)   ...       0.00 
freq.    3574.82  E(vib)   ...       0.00 

------------
INNER ENERGY
------------

The inner energy is: U= E(el) + E(ZPE) + E(vib) + E(rot) + E(trans)
    E(el)   - is the total energy from the electronic structure calculation
              = E(kin-el) + E(nuc-el) + E(el-el) + E(nuc-nuc)
    E(ZPE)  - the the zero temperature vibrational energy from the frequency calculation
    E(vib)  - the the finite temperature correction to E(ZPE) due to population
              of excited vibrational states
    E(rot)  - is the rotational thermal energy
    E(trans)- is the translational thermal energy

Summary of contributions to the inner energy U:
Electronic energy                ...    -44.30015883 Eh
Zero point energy                ...      0.27961224 Eh     175.46 kcal/mol
Thermal vibrational correction   ...      0.01354017 Eh       8.50 kcal/mol
Thermal rotational correction    ...      0.00141627 Eh       0.89 kcal/mol
Thermal translational correction ...      0.00141627 Eh       0.89 kcal/mol
-----------------------------------------------------------------------
Total thermal energy                    -44.00417388 Eh


Summary of corrections to the electronic energy:
(perhaps to be used in another calculation)
Total thermal correction                  0.01637272 Eh      10.27 kcal/mol
Non-thermal (ZPE) correction              0.27961224 Eh     175.46 kcal/mol
-----------------------------------------------------------------------
Total correction                          0.29598495 Eh     185.73 kcal/mol


--------
ENTHALPY
--------

The enthalpy is H = U + kB*T
                kB is Boltzmann's constant
Total free energy                 ...    -44.00417388 Eh 
Thermal Enthalpy correction       ...      0.00094421 Eh       0.59 kcal/mol
-----------------------------------------------------------------------
Total Enthalpy                    ...    -44.00322967 Eh


Note: Only C1 symmetry has been detected, increase convergence thresholds 
      if your molecule has a higher symmetry. Symmetry factor of 1.0 is   
      used for the rotational entropy correction. 
 

Note: Rotational entropy computed according to Herzberg 
Infrared and Raman Spectra, Chapter V,1, Van Nostrand Reinhold, 1945 
Point Group:  C1, Symmetry Number:   1  
Rotational constants in cm-1:     0.031970     0.010820     0.008753 

Vibrational entropy computed according to the QRRHO of S. Grimme
Chem.Eur.J. 2012 18 9955


-------
ENTROPY
-------

The entropy contributions are T*S = T*(S(el)+S(vib)+S(rot)+S(trans))
     S(el)   - electronic entropy
     S(vib)  - vibrational entropy
     S(rot)  - rotational entropy
     S(trans)- translational entropy
The entropies will be listed as mutliplied by the temperature to get
units of energy

Electronic entropy                ...      0.00000000 Eh      0.00 kcal/mol
Vibrational entropy               ...      0.02380781 Eh     14.94 kcal/mol
Rotational entropy                ...      0.01551000 Eh      9.73 kcal/mol
Translational entropy             ...      0.01983352 Eh     12.45 kcal/mol
-----------------------------------------------------------------------
Final entropy term                ...      0.05915133 Eh     37.12 kcal/mol

In case the symmetry of your molecule has not been determined correctly
or in case you have a reason to use a different symmetry number we print 
out the resulting rotational entropy values for sn=1,12 :
 --------------------------------------------------------
|  sn= 1 | S(rot)=       0.01551000 Eh      9.73 kcal/mol|
|  sn= 2 | S(rot)=       0.01485554 Eh      9.32 kcal/mol|
|  sn= 3 | S(rot)=       0.01447271 Eh      9.08 kcal/mol|
|  sn= 4 | S(rot)=       0.01420109 Eh      8.91 kcal/mol|
|  sn= 5 | S(rot)=       0.01399040 Eh      8.78 kcal/mol|
|  sn= 6 | S(rot)=       0.01381826 Eh      8.67 kcal/mol|
|  sn= 7 | S(rot)=       0.01367271 Eh      8.58 kcal/mol|
|  sn= 8 | S(rot)=       0.01354663 Eh      8.50 kcal/mol|
|  sn= 9 | S(rot)=       0.01343542 Eh      8.43 kcal/mol|
|  sn=10 | S(rot)=       0.01333594 Eh      8.37 kcal/mol|
|  sn=11 | S(rot)=       0.01324595 Eh      8.31 kcal/mol|
|  sn=12 | S(rot)=       0.01316380 Eh      8.26 kcal/mol|
 --------------------------------------------------------


-------------------
GIBBS FREE ENERGY
-------------------

The Gibbs free energy is G = H - T*S

Total enthalpy                    ...    -44.00322967 Eh 
Total entropy correction          ...     -0.05915133 Eh    -37.12 kcal/mol
-----------------------------------------------------------------------
Final Gibbs free energy         ...    -44.06238100 Eh

For completeness - the Gibbs free energy minus the electronic energy
G-E(el)                           ...      0.23777783 Eh    149.21 kcal/mol


Total Time for Numerical Frequencies  :        95.531 sec
Time for Reference State(s)           :         0.174 sec
Time for Displacements                :        85.154 sec

Timings for individual modules:

Sum of individual times         ...        0.393 sec (=   0.007 min)
XTB module                      ...        0.393 sec (=   0.007 min) 100.0 %
                             ****ORCA TERMINATED NORMALLY****
TOTAL RUN TIME: 0 days 0 hours 1 minutes 36 seconds 795 msec
