(SLURM) JOB ID:         174

                                 *****************
                                 * O   R   C   A *
                                 *****************

           --- An Ab Initio, DFT and Semiempirical electronic structure package ---

                  #######################################################
                  #                        -***-                        #
                  #          Department of theory and spectroscopy      #
                  #               Directorship: Frank Neese             #
                  #        Max Planck Institute fuer Kohlenforschung    #
                  #                Kaiser Wilhelm Platz 1               #
                  #                 D-45470 Muelheim/Ruhr               #
                  #                      Germany                        #
                  #                                                     #
                  #                  All rights reserved                #
                  #                        -***-                        #
                  #######################################################


                         Program Version 4.2.1 -  RELEASE  -


 With contributions from (in alphabetic order):
   Daniel Aravena         : Magnetic Suceptibility
   Michael Atanasov       : Ab Initio Ligand Field Theory (pilot matlab implementation)
   Alexander A. Auer      : GIAO ZORA, VPT2
   Ute Becker             : Parallelization
   Giovanni Bistoni       : ED, misc. LED, open-shell LED, HFLD
   Martin Brehm           : Molecular dynamics
   Dmytro Bykov           : SCF Hessian
   Vijay G. Chilkuri      : MRCI spin determinant printing, contributions to CSF-ICE
   Dipayan Datta          : RHF DLPNO-CCSD density
   Achintya Kumar Dutta   : EOM-CC, STEOM-CC
   Dmitry Ganyushin       : Spin-Orbit,Spin-Spin,Magnetic field MRCI
   Miquel Garcia          : C-PCM Hessian, Gaussian charge scheme
   Yang Guo               : DLPNO-NEVPT2, CIM, IAO-localization
   Andreas Hansen         : Spin unrestricted coupled pair/coupled cluster methods
   Benjamin Helmich-Paris : CASSCF linear response (MC-RPA)
   Lee Huntington         : MR-EOM, pCC
   Robert Izsak           : Overlap fitted RIJCOSX, COSX-SCS-MP3, EOM
   Christian Kollmar      : KDIIS, OOCD, Brueckner-CCSD(T), CCSD density
   Simone Kossmann        : Meta GGA functionals, TD-DFT gradient, OOMP2, MP2 Hessian
   Martin Krupicka        : AUTO-CI
   Lucas Lang             : DCDCAS
   Dagmar Lenk            : GEPOL surface, SMD
   Dimitrios Liakos       : Extrapolation schemes; Compound Job, initial MDCI parallelization
   Dimitrios Manganas     : Further ROCIS development; embedding schemes
   Dimitrios Pantazis     : SARC Basis sets
   Taras Petrenko         : DFT Hessian,TD-DFT gradient, ASA, ECA, R-Raman, ABS, FL, XAS/XES, NRVS
   Peter Pinski           : DLPNO-MP2, DLPNO-MP2 Gradient
   Christoph Reimann      : Effective Core Potentials
   Marius Retegan         : Local ZFS, SOC
   Christoph Riplinger    : Optimizer, TS searches, QM/MM, DLPNO-CCSD(T), (RO)-DLPNO pert. Triples
   Tobias Risthaus        : Range-separated hybrids, TD-DFT gradient, RPA, STAB
   Michael Roemelt        : Original ROCIS implementation
   Masaaki Saitow         : Open-shell DLPNO-CCSD energy and density
   Barbara Sandhoefer     : DKH picture change effects
   Avijit Sen             : IP-ROCIS
   Kantharuban Sivalingam : CASSCF convergence, NEVPT2, FIC-MRCI
   Bernardo de Souza      : ESD, SOC TD-DFT
   Georgi Stoychev        : AutoAux, RI-MP2 NMR
   Willem Van den Heuvel  : Paramagnetic NMR
   Boris Wezisla          : Elementary symmetry handling
   Frank Wennmohs         : Technical directorship


 We gratefully acknowledge several colleagues who have allowed us to
 interface, adapt or use parts of their codes:
   Stefan Grimme, W. Hujo, H. Kruse,             : VdW corrections, initial TS optimization,
                  C. Bannwarth                     DFT functionals, gCP, sTDA/sTD-DF
   Ed Valeev, F. Pavosevic, A. Kumar             : LibInt (2-el integral package), F12 methods
   Garnet Chan, S. Sharma, J. Yang, R. Olivares  : DMRG
   Ulf Ekstrom                                   : XCFun DFT Library
   Mihaly Kallay                                 : mrcc  (arbitrary order and MRCC methods)
   Andreas Klamt, Michael Diedenhofen            : otool_cosmo (COSMO solvation model)
   Jiri Pittner, Ondrej Demel                    : Mk-CCSD
   Frank Weinhold                                : gennbo (NPA and NBO analysis)
   Christopher J. Cramer and Donald G. Truhlar   : smd solvation model
   Lars Goerigk                                  : TD-DFT with DH, B97 family of functionals
   V. Asgeirsson, H. Jonsson                     : NEB implementation
   FAccTs GmbH                                   : IRC, NEB, NEB-TS, Multilevel, MM, QM/MM, CI optimization
   S Lehtola, MJT Oliveira, MAL Marques          : LibXC Library


 Your calculation uses the libint2 library for the computation of 2-el integrals
 For citations please refer to: http://libint.valeyev.net

 Your ORCA version has been built with support for libXC version: 4.2.3
 For citations please refer to: https://tddft.org/programs/libxc/

 This ORCA versions uses:
   CBLAS   interface :  Fast vector & matrix operations
   LAPACKE interface :  Fast linear algebra routines
   SCALAPACK package :  Parallel linear algebra routines




***************************************
The coordinates will be read from file: init.xyz
***************************************


Your calculation utilizes the SMD solvation module
Please cite in your paper:
A.V. Marenich, C.J. Cramer, D.G. Truhlar J. Phys. Chem. B, 113, (2009), 6378 

Your calculation utilizes the semiempirical GFN2-xTB method
Please cite in your paper:
C. Bannwarth, Ehlert S., S. Grimme,  J. Chem. Theory Comput., 15, (2019), 1652.
   

----- Orbital basis set information -----
Your calculation utilizes the basis: def2-SVP
   F. Weigend and R. Ahlrichs, Phys. Chem. Chem. Phys. 7, 3297 (2005).

================================================================================
                                        WARNINGS
                       Please study these warnings very carefully!
================================================================================

WARNING: Gradients needed for Numerical Frequencies
  ===> : Setting RunTyp to EnGrad

WARNING: The environment variable RSH_COMMAND is not set!
  ===> : All Displacements for the Numerical Hessian calculation
         will be started on localhost

WARNING: Found dipole moment calculation with XTB calculation
  ===> : Switching off dipole moment calculation


INFO   : the flag for use of LIBINT has been found!

================================================================================
                                       INPUT FILE
================================================================================
NAME = /tmp/slurm-scratch/freq.174/freq.inp
|  1> ! XTB2 NumFreq
|  2> %maxcore 1450
|  3> 
|  4> * xyzfile 0 1 init.xyz
|  5> 
|  6> %cpcm
|  7>  smd true
|  8>  smdsolvent "ch2cl2"
|  9> end
| 10> %pal nprocs 8 end
| 11> 
| 12>                          ****END OF INPUT****
================================================================================

                     *******************************
                     * Energy+Gradient Calculation *
                     *******************************

      -----------------------------------------------------------      
     |                   =====================                   |     
     |                           x T B                           |     
     |                   =====================                   |     
     |                         S. Grimme                         |     
     |          Mulliken Center for Theoretical Chemistry        |     
     |                    University of Bonn                     |     
      -----------------------------------------------------------      

   * xtb version 6.3.0 (preview) compiled by 'ehlert@majestix' on 2020-01-15

   This program is distributed in the hope that it will be useful,
   but WITHOUT ANY WARRANTY; without even the implied warranty of
   MERCHANTABILITY or FITNESS FOR A PARTICULAR PURPOSE.
   
   FOR NON-COMMERCIAL, ACADEMIA USE ONLY.
   
   Cite this work as:
   * S. Grimme, C. Bannwarth, P. Shushkov, J. Chem. Theory Comput., 2017,
     13, 1989-2009. DOI: 10.1021/acs.jctc.7b00118
   * C. Bannwarth, S. Ehlert and S. Grimme., J. Chem. Theory Comput., 2019,
     15, 1652-1671. DOI: 10.1021/acs.jctc.8b01176
   * P. Pracht, E. Caldeweyher, S. Ehlert, S. Grimme, ChemRxiv, 2019, preprint.
     DOI: 10.26434/chemrxiv.8326202.v1
   * S. Grimme, S. Spicher unpublished
   
   for DFT-D4:
   * E. Caldeweyher, C. Bannwarth and S. Grimme, J. Chem. Phys., 2017,
     147, 034112. DOI: 10.1063/1.4993215
   * E. Caldeweyher, S. Ehlert, A. Hansen, H. Neugebauer, S. Spicher,
     C. Bannwarth and S. Grimme, J. Chem. Phys., 2019, 150, 154122.
     DOI: 10.1063/1.5090222
   
   for sTDA-xTB:
   * S. Grimme and C. Bannwarth, J. Chem. Phys., 2016, 145, 054103.
     DOI: 10.1063/1.4959605
   
   in the mass-spec context:
   * V. Asgeirsson, C. Bauer and S. Grimme, Chem. Sci., 2017, 8, 4879.
     DOI: 10.1039/c7sc00601b
   
   for metadynamics refer to:
   * S. Grimme, J. Chem. Theory Comput., 2019, 155, 2847-2862
     DOI: 10.1021/acs.jctc.9b00143
   
   with help from (in alphabetical order)
   C. Bannwarth, F. Bohle, G. Brandenburg, E. Caldeweyher, M. Checinski,
   S. Dohm, S. Ehlert, S. Ehrlich, F. März, H. Neugebauer, J. Pisarek,
   P. Pracht, P. Shushkov, and S. Spicher.
   
 * started run on 2020/08/29 at 07:33:32.705     

           -------------------------------------------------
          |                Calculation Setup                |
           -------------------------------------------------

          program call               : /opt/orca/otool_xtb /tmp/slurm-scratch/freq.174/freq_XTB.xyz --grad -c 0 -u 0 -P 8 --namespace /tmp/slurm-scratch/freq.174/freq --gbsa CH2Cl2
          hostname                   : headnode-pbs
          calculation namespace      : /tmp/slurm-scratch/freq.174/freq
          coordinate file            : /tmp/slurm-scratch/freq.174/freq_XTB.xyz
          omp threads                :                     8
          number of atoms            :                    43
          number of electrons        :                    96
          charge                     :                     0
          spin                       :                   0.0
          first test random number   :      0.20636506217580


molecular fragmentation (1/2 indicates fragments):
1111111111111221111111111222222222222221111
# atoms in fragment 1/2:    27    16
 fragment masses (1/2) :      161.24       73.14
CMA distance (Bohr)    :   9.499
constraining FC (au)   :  0.0500

########################################################################
# WARNING! Please study the warnings concerning your input carefully
#  - Process number higher than OMP_NUM_THREADS, I hope you know what you are doing.
########################################################################

           ------------------------------------------------- 
          |                 G F N 2 - x T B                 |
          | Geometry, Frequencies, Noncovalent interactions |
          |            JCTC 2019 parametrisation            |
           ------------------------------------------------- 
             k(s)              :                1.8500
             k(p)              :                2.2300
             k(d)              :                2.2300
             k(f)              :                2.0000
             kEN (H0ij)        :               -2.0000
             D4 a1             :                0.5200
             D4 a2             :                5.0000
             D4 s6             :                1.0000
             D4 s8             :                2.7000
             D4 s9             :                5.0000
             alphaj            :                2.0000

  Z AO/shell   Hii/eV     exponent
  1     Wed Apr 25 08:07:45 CEST 2018   EN: 2.200 GM2: 0.406  GM3: 0.0800  RAES: 1.40
     1s    -10.707211    1.230000
  6     Wed Apr 25 08:07:45 CEST 2018   EN: 2.550 GM2: 0.538  GM3: 0.1500  RAES: 3.00
     2s    -13.970922    2.096432
     2p    -10.063292    1.800000
  7     Wed Apr 25 08:07:45 CEST 2018   EN: 3.040 GM2: 0.461  GM3:-0.0640  RAES: 1.90
     2s    -16.686243    2.339881
     2p    -12.523956    2.014332

 Solvent             : CH2Cl2
 Using internal parameter file: .param_gbsa2_CH2Cl2
 Gsolv ref. state (COSMO-RS): gsolv [1 M gas/solution]
 temperature (mdtemp)       :    298.150000000000     
 dielectric constant        :    8.93000000000000     
 rho                        :    1.33000000000000     
 mass                       :    84.9300000000000     
 surface tension            :    15.5689454083859     
 probe radius               :   0.719875900000000     
 Gshift (Eh)                :   4.440829173451759E-003
 c1                         :    1.49173776000000     
 soset                      :   0.000000000000000E+000
 HB correction              :  F
           ------------------------------------------------- 
          |        Self-Consistent Charge Iterations        |
           ------------------------------------------------- 

          ...................................................
          :                      SETUP                      :
          :.................................................:
          :  # basis functions                  94          :
          :  # atomic orbitals                  94          :
          :  # shells                           60          :
          :  # electrons                        96          :
          :  max. iterations                   250          :
          :  Hamiltonian                  GFN2-xTB          :
          :  GBSA solvation                   true          :
          :  PC potential                    false          :
          :  electronic temp.          300.0000000     K    :
          :  accuracy                    1.0000000          :
          :  -> integral cutoff          0.2500000E+02      :
          :  -> integral neglect         0.1000000E-07      :
          :  -> SCF convergence          0.1000000E-05 Eh   :
          :  -> wf. convergence          0.1000000E-03 e    :
          :  Broyden damping             0.4000000          :
          ...................................................
  Checking positiv definite overlap ...  done.
 

 iter      E             dE          RMSdq      gap      omega  full diag
   1    -51.9210406 -0.519210E+02  0.358E+00    2.98       0.0  T
   2    -51.9843484 -0.633078E-01  0.213E+00    2.87       1.0  T
   3    -51.9823300  0.201841E-02  0.766E-01    2.48       1.0  T
   4    -51.9863697 -0.403975E-02  0.353E-01    2.52       1.0  T
   5    -51.9896160 -0.324625E-02  0.692E-02    2.46       1.0  T
   6    -51.9896315 -0.155073E-04  0.334E-02    2.48       1.0  T
   7    -51.9896410 -0.947386E-05  0.143E-02    2.48       1.1  T
   8    -51.9896431 -0.212406E-05  0.364E-03    2.48       4.2  T
   9    -51.9896433 -0.176961E-06  0.145E-03    2.48      10.5  T
  10    -51.9896433 -0.345290E-08  0.807E-04    2.48      18.9  T
  11    -51.9896433 -0.768781E-08  0.286E-04    2.48      53.3  T

   *** convergence criteria satisfied after 11 iterations ***

         #    Occupation            Energy/Eh            Energy/eV
      -------------------------------------------------------------
         1        2.0000           -0.6511634             -17.7191
       ...           ...                  ...                  ...
        42        2.0000           -0.4264917             -11.6054
        43        2.0000           -0.4235824             -11.5263
        44        2.0000           -0.4192759             -11.4091
        45        2.0000           -0.4083125             -11.1107
        46        2.0000           -0.4000804             -10.8867
        47        2.0000           -0.3832290             -10.4282
        48        2.0000           -0.3640125              -9.9053 (HOMO)
        49                         -0.2728031              -7.4234 (LUMO)
        50                         -0.2280494              -6.2055
        51                         -0.1904642              -5.1828
        52                         -0.0882721              -2.4020
        53                          0.0273717               0.7448
       ...                                ...                  ...
        94                          0.6498491              17.6833
      -------------------------------------------------------------
                  HL-Gap            0.0912093 Eh            2.4819 eV
             Fermi-level           -0.3184078 Eh           -8.6643 eV

 SCC (total)                   0 d,  0 h,  0 min,  0.074 sec
 SCC setup                      ...        0 min,  0.010 sec ( 12.786%)
 Dispersion                     ...        0 min,  0.001 sec (  1.153%)
 integral evaluation            ...        0 min,  0.015 sec ( 20.122%)
 zeroth order Hamiltonian       ...        0 min,  0.000 sec (  0.075%)
 iterations                     ...        0 min,  0.032 sec ( 43.573%)
 molecular gradient             ...        0 min,  0.016 sec ( 21.179%)
 printout                       ...        0 min,  0.001 sec (  0.973%)

         :::::::::::::::::::::::::::::::::::::::::::::::::::::
         ::                     SUMMARY                     ::
         :::::::::::::::::::::::::::::::::::::::::::::::::::::
         :: total energy             -51.210865477296 Eh    ::
         :: total w/o Gsasa/hb       -51.189152156476 Eh    ::
         :: gradient norm              0.027459642537 Eh/a0 ::
         :: HOMO-LUMO gap              2.481932496084 eV    ::
         ::.................................................::
         :: SCC energy               -52.011356587876 Eh    ::
         :: -> isotropic ES            0.026612620479 Eh    ::
         :: -> anisotropic ES          0.008805504916 Eh    ::
         :: -> anisotropic XC          0.041092350780 Eh    ::
         :: -> dispersion             -0.035071933492 Eh    ::
         :: -> Gsolv                  -0.024774144593 Eh    ::
         ::    -> Gborn               -0.003060823772 Eh    ::
         ::    -> Gsasa               -0.026154149994 Eh    ::
         ::    -> Ghb                  0.000000000000 Eh    ::
         ::    -> Gshift               0.004440829173 Eh    ::
         :: repulsion energy           0.800214853424 Eh    ::
         :: add. restraining           0.000000000000 Eh    ::
         :::::::::::::::::::::::::::::::::::::::::::::::::::::

           -------------------------------------------------
          |                Property Printout                |
           -------------------------------------------------

    * Orbital Energies and Occupations

         #    Occupation            Energy/Eh            Energy/eV
      -------------------------------------------------------------
         1        2.0000           -0.6511634             -17.7191
       ...           ...                  ...                  ...
        36        2.0000           -0.4475563             -12.1786
        37        2.0000           -0.4416236             -12.0172
        38        2.0000           -0.4399921             -11.9728
        39        2.0000           -0.4347125             -11.8291
        40        2.0000           -0.4332550             -11.7895
        41        2.0000           -0.4294501             -11.6859
        42        2.0000           -0.4264917             -11.6054
        43        2.0000           -0.4235824             -11.5263
        44        2.0000           -0.4192759             -11.4091
        45        2.0000           -0.4083125             -11.1107
        46        2.0000           -0.4000804             -10.8867
        47        2.0000           -0.3832290             -10.4282
        48        2.0000           -0.3640125              -9.9053 (HOMO)
        49                         -0.2728031              -7.4234 (LUMO)
        50                         -0.2280494              -6.2055
        51                         -0.1904642              -5.1828
        52                         -0.0882721              -2.4020
        53                          0.0273717               0.7448
        54                          0.0375302               1.0212
        55                          0.0786415               2.1399
        56                          0.0837200               2.2781
        57                          0.0954161               2.5964
        58                          0.1006386               2.7385
        59                          0.1177566               3.2043
       ...                                ...                  ...
        94                          0.6498491              17.6833
      -------------------------------------------------------------
                  HL-Gap            0.0912093 Eh            2.4819 eV
             Fermi-level           -0.3184078 Eh           -8.6643 eV

     #   Z        covCN         q      C6AA      α(0)
     1   6 C      2.913    -0.029    28.732     8.790
     2   6 C      2.922    -0.030    28.757     8.794
     3   6 C      2.970     0.004    27.940     8.670
     4   6 C      2.917    -0.028    28.696     8.784
     5   6 C      2.914    -0.027    28.679     8.782
     6   6 C      2.915    -0.025    28.619     8.773
     7   1 H      0.925     0.036     2.509     2.477
     8   1 H      0.926     0.062     2.176     2.307
     9   1 H      0.925     0.043     2.408     2.427
    10   7 N      1.825    -0.265    27.742     7.805
    11   6 C      3.767     0.026    20.171     6.401
    12   1 H      0.924     0.006     2.961     2.691
    13   1 H      0.924     0.036     2.509     2.477
    14   1 H      0.860     0.169     1.278     1.771
    15   1 H      0.860     0.133     1.524     1.934
    16   6 C      2.858     0.079    26.237     8.396
    17   1 H      0.924    -0.000     3.060     2.736
    18   6 C      3.803    -0.057    21.597     6.616
    19   1 H      0.924     0.031     2.579     2.511
    20   1 H      0.924     0.048     2.341     2.392
    21   6 C      3.800    -0.050    21.472     6.597
    22   1 H      0.924     0.031     2.578     2.511
    23   1 H      0.924     0.029     2.602     2.523
    24   1 H      0.925     0.041     2.441     2.443
    25   1 H      0.925     0.045     2.388     2.416
    26   6 C      3.731     0.017    20.383     6.445
    27   1 H      0.924     0.027     2.625     2.534
    28   1 H      0.924     0.028     2.616     2.530
    29   6 C      3.800    -0.067    21.783     6.645
    30   1 H      0.924     0.023     2.687     2.564
    31   1 H      0.924     0.033     2.547     2.496
    32   6 C      3.799    -0.051    21.500     6.602
    33   1 H      0.924     0.029     2.603     2.523
    34   1 H      0.924     0.028     2.615     2.529
    35   7 N      2.627    -0.381    29.846     8.114
    36   6 C      3.749    -0.100    22.465     6.760
    37   1 H      0.924     0.035     2.519     2.482
    38   1 H      0.924     0.035     2.521     2.483
    39   1 H      0.924     0.032     2.560     2.502
    40   6 C      3.750    -0.101    22.492     6.764
    41   1 H      0.924     0.037     2.484     2.464
    42   1 H      0.924     0.038     2.476     2.461
    43   1 H      0.924     0.034     2.530     2.488

 Mol. C6AA /au·bohr⁶  :      15755.303611
 Mol. C8AA /au·bohr⁸  :     348642.165094
 Mol. α(0) /au        :        193.407620


Wiberg/Mayer (AO) data.
largest (>0.10) Wiberg bond orders for each atom
          total WBO             WBO to atom ...
     1  C   3.991        C    2 1.451    C    6 1.437    H   24 0.970    C    4 0.106
     2  C   3.987        C    1 1.451    C    3 1.380    H    7 0.968    C    5 0.105
     3  C   3.988        C    2 1.380    C    4 1.366    C   16 1.084
     4  C   3.988        C    5 1.465    C    3 1.366    H    8 0.963    C    1 0.106
     5  C   3.991        C    4 1.465    C    6 1.423    H   25 0.970    C    2 0.105
     6  C   3.988        C    1 1.437    C    5 1.423    H    9 0.971
     7  H   0.999        C    2 0.968
     8  H   0.996        C    4 0.963
     9  H   0.998        C    6 0.971
    10  N   3.076        C   16 1.839    C   11 1.022
    11  C   3.985        N   10 1.022    C   18 0.987    H   12 0.965    H   13 0.957
    12  H   1.000        C   11 0.965
    13  H   0.996        C   11 0.957
    14  H   0.971        N   35 0.941
    15  H   0.982        N   35 0.969
    16  C   3.968        N   10 1.839    C    3 1.084    H   17 0.940
    17  H   1.000        C   16 0.940
    18  C   3.990        C   21 1.006    C   11 0.987    H   19 0.978    H   20 0.971
    19  H   0.999        C   18 0.978
    20  H   0.998        C   18 0.971
    21  C   3.996        C   40 1.019    C   18 1.006    H   23 0.978    H   22 0.975
    22  H   0.999        C   21 0.975
    23  H   0.999        C   21 0.978
    24  H   0.998        C    1 0.970
    25  H   0.998        C    5 0.970
    26  C   3.986        N   35 1.025    C   29 0.995    H   27 0.975    H   28 0.974
    27  H   0.999        C   26 0.975
    28  H   0.999        C   26 0.974
    29  C   3.997        C   32 1.007    C   26 0.995    H   30 0.977    H   31 0.972
    30  H   0.999        C   29 0.977
    31  H   0.999        C   29 0.972
    32  C   3.997        C   36 1.019    C   29 1.007    H   34 0.978    H   33 0.976
    33  H   0.999        C   32 0.976
    34  H   0.999        C   32 0.978
    35  N   2.996        C   26 1.025    H   15 0.969    H   14 0.941
    36  C   3.997        C   32 1.019    H   39 0.988    H   37 0.987    H   38 0.986
    37  H   0.998        C   36 0.987
    38  H   0.999        C   36 0.986
    39  H   0.999        C   36 0.988
    40  C   3.995        C   21 1.019    H   43 0.988    H   41 0.987    H   42 0.986
    41  H   0.998        C   40 0.987
    42  H   0.999        C   40 0.986
    43  H   0.999        C   40 0.988

molecular dipole:
                 x           y           z       tot (Debye)
 q only:        0.125       0.257       0.031
   full:       -0.234       0.755      -0.261       2.117
molecular quadrupole (traceless):
                xx          xy          yy          xz          yz          zz
 q only:        8.510       1.916      -4.753      -1.887      -0.249      -3.756
  q+dip:        9.842       1.348      -1.856       1.096       1.435      -7.986
   full:        9.261       1.527      -4.743       0.484       1.900      -4.518

           -------------------------------------------------
          |                Property Printout                |
           -------------------------------------------------

    * Orbital Energies and Occupations

         #    Occupation            Energy/Eh            Energy/eV
      -------------------------------------------------------------
         1        2.0000           -0.6511634             -17.7191
       ...           ...                  ...                  ...
        36        2.0000           -0.4475563             -12.1786
        37        2.0000           -0.4416236             -12.0172
        38        2.0000           -0.4399921             -11.9728
        39        2.0000           -0.4347125             -11.8291
        40        2.0000           -0.4332550             -11.7895
        41        2.0000           -0.4294501             -11.6859
        42        2.0000           -0.4264917             -11.6054
        43        2.0000           -0.4235824             -11.5263
        44        2.0000           -0.4192759             -11.4091
        45        2.0000           -0.4083125             -11.1107
        46        2.0000           -0.4000804             -10.8867
        47        2.0000           -0.3832290             -10.4282
        48        2.0000           -0.3640125              -9.9053 (HOMO)
        49                         -0.2728031              -7.4234 (LUMO)
        50                         -0.2280494              -6.2055
        51                         -0.1904642              -5.1828
        52                         -0.0882721              -2.4020
        53                          0.0273717               0.7448
        54                          0.0375302               1.0212
        55                          0.0786415               2.1399
        56                          0.0837200               2.2781
        57                          0.0954161               2.5964
        58                          0.1006386               2.7385
        59                          0.1177566               3.2043
       ...                                ...                  ...
        94                          0.6498491              17.6833
      -------------------------------------------------------------
                  HL-Gap            0.0912093 Eh            2.4819 eV
             Fermi-level           -0.3184078 Eh           -8.6643 eV

     #   Z        covCN         q      C6AA      α(0)
     1   6 C      2.913    -0.029    28.732     8.790
     2   6 C      2.922    -0.030    28.757     8.794
     3   6 C      2.970     0.004    27.940     8.670
     4   6 C      2.917    -0.028    28.696     8.784
     5   6 C      2.914    -0.027    28.679     8.782
     6   6 C      2.915    -0.025    28.619     8.773
     7   1 H      0.925     0.036     2.509     2.477
     8   1 H      0.926     0.062     2.176     2.307
     9   1 H      0.925     0.043     2.408     2.427
    10   7 N      1.825    -0.265    27.742     7.805
    11   6 C      3.767     0.026    20.171     6.401
    12   1 H      0.924     0.006     2.961     2.691
    13   1 H      0.924     0.036     2.509     2.477
    14   1 H      0.860     0.169     1.278     1.771
    15   1 H      0.860     0.133     1.524     1.934
    16   6 C      2.858     0.079    26.237     8.396
    17   1 H      0.924    -0.000     3.060     2.736
    18   6 C      3.803    -0.057    21.597     6.616
    19   1 H      0.924     0.031     2.579     2.511
    20   1 H      0.924     0.048     2.341     2.392
    21   6 C      3.800    -0.050    21.472     6.597
    22   1 H      0.924     0.031     2.578     2.511
    23   1 H      0.924     0.029     2.602     2.523
    24   1 H      0.925     0.041     2.441     2.443
    25   1 H      0.925     0.045     2.388     2.416
    26   6 C      3.731     0.017    20.383     6.445
    27   1 H      0.924     0.027     2.625     2.534
    28   1 H      0.924     0.028     2.616     2.530
    29   6 C      3.800    -0.067    21.783     6.645
    30   1 H      0.924     0.023     2.687     2.564
    31   1 H      0.924     0.033     2.547     2.496
    32   6 C      3.799    -0.051    21.500     6.602
    33   1 H      0.924     0.029     2.603     2.523
    34   1 H      0.924     0.028     2.615     2.529
    35   7 N      2.627    -0.381    29.846     8.114
    36   6 C      3.749    -0.100    22.465     6.760
    37   1 H      0.924     0.035     2.519     2.482
    38   1 H      0.924     0.035     2.521     2.483
    39   1 H      0.924     0.032     2.560     2.502
    40   6 C      3.750    -0.101    22.492     6.764
    41   1 H      0.924     0.037     2.484     2.464
    42   1 H      0.924     0.038     2.476     2.461
    43   1 H      0.924     0.034     2.530     2.488

 Mol. C6AA /au·bohr⁶  :      15755.303611
 Mol. C8AA /au·bohr⁸  :     348642.165094
 Mol. α(0) /au        :        193.407620


Wiberg/Mayer (AO) data.
largest (>0.10) Wiberg bond orders for each atom
          total WBO             WBO to atom ...
     1  C   3.991        C    2 1.451    C    6 1.437    H   24 0.970    C    4 0.106
     2  C   3.987        C    1 1.451    C    3 1.380    H    7 0.968    C    5 0.105
     3  C   3.988        C    2 1.380    C    4 1.366    C   16 1.084
     4  C   3.988        C    5 1.465    C    3 1.366    H    8 0.963    C    1 0.106
     5  C   3.991        C    4 1.465    C    6 1.423    H   25 0.970    C    2 0.105
     6  C   3.988        C    1 1.437    C    5 1.423    H    9 0.971
     7  H   0.999        C    2 0.968
     8  H   0.996        C    4 0.963
     9  H   0.998        C    6 0.971
    10  N   3.076        C   16 1.839    C   11 1.022
    11  C   3.985        N   10 1.022    C   18 0.987    H   12 0.965    H   13 0.957
    12  H   1.000        C   11 0.965
    13  H   0.996        C   11 0.957
    14  H   0.971        N   35 0.941
    15  H   0.982        N   35 0.969
    16  C   3.968        N   10 1.839    C    3 1.084    H   17 0.940
    17  H   1.000        C   16 0.940
    18  C   3.990        C   21 1.006    C   11 0.987    H   19 0.978    H   20 0.971
    19  H   0.999        C   18 0.978
    20  H   0.998        C   18 0.971
    21  C   3.996        C   40 1.019    C   18 1.006    H   23 0.978    H   22 0.975
    22  H   0.999        C   21 0.975
    23  H   0.999        C   21 0.978
    24  H   0.998        C    1 0.970
    25  H   0.998        C    5 0.970
    26  C   3.986        N   35 1.025    C   29 0.995    H   27 0.975    H   28 0.974
    27  H   0.999        C   26 0.975
    28  H   0.999        C   26 0.974
    29  C   3.997        C   32 1.007    C   26 0.995    H   30 0.977    H   31 0.972
    30  H   0.999        C   29 0.977
    31  H   0.999        C   29 0.972
    32  C   3.997        C   36 1.019    C   29 1.007    H   34 0.978    H   33 0.976
    33  H   0.999        C   32 0.976
    34  H   0.999        C   32 0.978
    35  N   2.996        C   26 1.025    H   15 0.969    H   14 0.941
    36  C   3.997        C   32 1.019    H   39 0.988    H   37 0.987    H   38 0.986
    37  H   0.998        C   36 0.987
    38  H   0.999        C   36 0.986
    39  H   0.999        C   36 0.988
    40  C   3.995        C   21 1.019    H   43 0.988    H   41 0.987    H   42 0.986
    41  H   0.998        C   40 0.987
    42  H   0.999        C   40 0.986
    43  H   0.999        C   40 0.988

molecular dipole:
                 x           y           z       tot (Debye)
 q only:        0.125       0.257       0.031
   full:       -0.234       0.755      -0.261       2.117
molecular quadrupole (traceless):
                xx          xy          yy          xz          yz          zz
 q only:        8.510       1.916      -4.753      -1.887      -0.249      -3.756
  q+dip:        9.842       1.348      -1.856       1.096       1.435      -7.986
   full:        9.261       1.527      -4.743       0.484       1.900      -4.518


           -------------------------------------------------
          | TOTAL ENERGY              -51.210865477296 Eh   |
          | GRADIENT NORM               0.027459642537 Eh/α |
          | HOMO-LUMO GAP               2.481932496084 eV   |
           -------------------------------------------------

------------------------------------------------------------------------
 * finished run on 2020/08/29 at 07:33:32.872     
------------------------------------------------------------------------
 total:
 * wall-time:     0 d,  0 h,  0 min,  0.166 sec
 *  cpu-time:     0 d,  0 h,  0 min,  1.200 sec
 * ratio c/w:     7.212 speedup
 SCF:
 * wall-time:     0 d,  0 h,  0 min,  0.075 sec
 *  cpu-time:     0 d,  0 h,  0 min,  0.563 sec
 * ratio c/w:     7.497 speedup


-------------------------   --------------------
FINAL SINGLE POINT ENERGY       -51.210865477300
-------------------------   --------------------


----------------------------------------------------------------------------
                           ORCA NUMERICAL FREQUENCIES
                              (8-process run)
----------------------------------------------------------------------------

Number of atoms                ... 43
Central differences            ... used
Number of displacements        ... 258
Numerical increment            ... 5.000e-03 bohr
IR-spectrum generation         ... on
Raman-spectrum generation      ... off
Surface Crossing Hessian       ... off
List of participating nodes    ...  /tmp/slurm-scratch/freq.174/freq.hostnames

The output will be reduced. Please look at the following files:
SCF program output             ... >/tmp/slurm-scratch/freq.174/freq.lastscf
Integral program output        ... >/tmp/slurm-scratch/freq.174/freq.lastint
Gradient program output        ... >/tmp/slurm-scratch/freq.174/freq.lastgrad
Dipole moment program output   ... >/tmp/slurm-scratch/freq.174/freq.lastmom
AutoCI program output          ... >/tmp/slurm-scratch/freq.174/freq.lastautoci


         <<< Energy and Gradient at the input geometry >>>

        <<< Energy and Gradient at displaced geometries >>>
             <<<Displacing   2/coordinate 3 (+)>>>
             <<<Displacing   1/coordinate 3 (+)>>>
             <<<Displacing   3/coordinate 2 (+)>>>
             <<<Displacing   1/coordinate 2 (+)>>>
             <<<Displacing   2/coordinate 3 (-)>>>
             <<<Displacing   1/coordinate 1 (+)>>>
             <<<Displacing   2/coordinate 1 (+)>>>
             <<<Displacing   2/coordinate 2 (+)>>>
             <<<Displacing   1/coordinate 3 (-)>>>
             <<<Displacing   1/coordinate 2 (-)>>>
             <<<Displacing   3/coordinate 2 (-)>>>
             <<<Displacing   1/coordinate 1 (-)>>>
             <<<Displacing   2/coordinate 1 (-)>>>
             <<<Displacing   2/coordinate 2 (-)>>>
             <<<Displacing   3/coordinate 1 (+)>>>
             <<<Displacing   3/coordinate 1 (-)>>>
             <<<Displacing   4/coordinate 1 (+)>>>
             <<<Displacing   5/coordinate 1 (+)>>>
             <<<Displacing   4/coordinate 1 (-)>>>
             <<<Displacing   5/coordinate 1 (-)>>>
             <<<Displacing   3/coordinate 3 (+)>>>
             <<<Displacing   4/coordinate 3 (+)>>>
             <<<Displacing   4/coordinate 2 (+)>>>
             <<<Displacing   3/coordinate 3 (-)>>>
             <<<Displacing   4/coordinate 3 (-)>>>
             <<<Displacing   5/coordinate 3 (+)>>>
             <<<Displacing   4/coordinate 2 (-)>>>
             <<<Displacing   5/coordinate 2 (+)>>>
             <<<Displacing   5/coordinate 3 (-)>>>
             <<<Displacing   5/coordinate 2 (-)>>>
             <<<Displacing   6/coordinate 1 (+)>>>
             <<<Displacing   6/coordinate 1 (-)>>>
             <<<Displacing   6/coordinate 2 (+)>>>
             <<<Displacing   6/coordinate 2 (-)>>>
             <<<Displacing   8/coordinate 2 (+)>>>
             <<<Displacing   6/coordinate 3 (+)>>>
             <<<Displacing   8/coordinate 2 (-)>>>
             <<<Displacing   7/coordinate 2 (+)>>>
             <<<Displacing   6/coordinate 3 (-)>>>
             <<<Displacing   8/coordinate 1 (+)>>>
             <<<Displacing   7/coordinate 3 (+)>>>
             <<<Displacing   7/coordinate 2 (-)>>>
             <<<Displacing   7/coordinate 1 (+)>>>
             <<<Displacing   7/coordinate 3 (-)>>>
             <<<Displacing   8/coordinate 1 (-)>>>
             <<<Displacing   7/coordinate 1 (-)>>>
             <<<Displacing   8/coordinate 3 (+)>>>
             <<<Displacing   8/coordinate 3 (-)>>>
             <<<Displacing  10/coordinate 1 (+)>>>
             <<<Displacing  10/coordinate 1 (-)>>>
             <<<Displacing   9/coordinate 2 (+)>>>
             <<<Displacing   9/coordinate 1 (+)>>>
             <<<Displacing   9/coordinate 3 (+)>>>
             <<<Displacing   9/coordinate 2 (-)>>>
             <<<Displacing   9/coordinate 1 (-)>>>
             <<<Displacing  10/coordinate 3 (+)>>>
             <<<Displacing   9/coordinate 3 (-)>>>
             <<<Displacing  10/coordinate 3 (-)>>>
             <<<Displacing  10/coordinate 2 (+)>>>
             <<<Displacing  11/coordinate 1 (+)>>>
             <<<Displacing  10/coordinate 2 (-)>>>
             <<<Displacing  11/coordinate 1 (-)>>>
             <<<Displacing  11/coordinate 2 (+)>>>
             <<<Displacing  11/coordinate 2 (-)>>>
             <<<Displacing  11/coordinate 3 (+)>>>
             <<<Displacing  11/coordinate 3 (-)>>>
             <<<Displacing  12/coordinate 1 (+)>>>
             <<<Displacing  12/coordinate 2 (+)>>>
             <<<Displacing  13/coordinate 2 (+)>>>
             <<<Displacing  12/coordinate 3 (+)>>>
             <<<Displacing  12/coordinate 1 (-)>>>
             <<<Displacing  12/coordinate 2 (-)>>>
             <<<Displacing  12/coordinate 3 (-)>>>
             <<<Displacing  13/coordinate 2 (-)>>>
             <<<Displacing  13/coordinate 1 (+)>>>
             <<<Displacing  13/coordinate 3 (+)>>>
             <<<Displacing  13/coordinate 1 (-)>>>
             <<<Displacing  13/coordinate 3 (-)>>>
             <<<Displacing  14/coordinate 1 (+)>>>
             <<<Displacing  14/coordinate 1 (-)>>>
             <<<Displacing  14/coordinate 2 (+)>>>
             <<<Displacing  14/coordinate 2 (-)>>>
             <<<Displacing  14/coordinate 3 (+)>>>
             <<<Displacing  15/coordinate 2 (+)>>>
             <<<Displacing  14/coordinate 3 (-)>>>
             <<<Displacing  15/coordinate 1 (+)>>>
             <<<Displacing  16/coordinate 2 (+)>>>
             <<<Displacing  15/coordinate 2 (-)>>>
             <<<Displacing  16/coordinate 1 (+)>>>
             <<<Displacing  15/coordinate 1 (-)>>>
             <<<Displacing  16/coordinate 2 (-)>>>
             <<<Displacing  15/coordinate 3 (+)>>>
             <<<Displacing  16/coordinate 1 (-)>>>
             <<<Displacing  15/coordinate 3 (-)>>>
             <<<Displacing  16/coordinate 3 (+)>>>
             <<<Displacing  16/coordinate 3 (-)>>>
             <<<Displacing  17/coordinate 1 (+)>>>
             <<<Displacing  17/coordinate 1 (-)>>>
             <<<Displacing  17/coordinate 2 (+)>>>
             <<<Displacing  17/coordinate 2 (-)>>>
             <<<Displacing  17/coordinate 3 (+)>>>
             <<<Displacing  18/coordinate 3 (+)>>>
             <<<Displacing  18/coordinate 2 (+)>>>
             <<<Displacing  17/coordinate 3 (-)>>>
             <<<Displacing  19/coordinate 1 (+)>>>
             <<<Displacing  18/coordinate 3 (-)>>>
             <<<Displacing  18/coordinate 2 (-)>>>
             <<<Displacing  19/coordinate 1 (-)>>>
             <<<Displacing  18/coordinate 1 (+)>>>
             <<<Displacing  18/coordinate 1 (-)>>>
             <<<Displacing  19/coordinate 2 (+)>>>
             <<<Displacing  19/coordinate 2 (-)>>>
             <<<Displacing  19/coordinate 3 (+)>>>
             <<<Displacing  19/coordinate 3 (-)>>>
             <<<Displacing  20/coordinate 1 (+)>>>
             <<<Displacing  20/coordinate 1 (-)>>>
             <<<Displacing  20/coordinate 3 (+)>>>
             <<<Displacing  20/coordinate 2 (+)>>>
             <<<Displacing  21/coordinate 1 (+)>>>
             <<<Displacing  20/coordinate 3 (-)>>>
             <<<Displacing  20/coordinate 2 (-)>>>
             <<<Displacing  21/coordinate 2 (+)>>>
             <<<Displacing  21/coordinate 1 (-)>>>
             <<<Displacing  21/coordinate 2 (-)>>>
             <<<Displacing  21/coordinate 3 (+)>>>
             <<<Displacing  21/coordinate 3 (-)>>>
             <<<Displacing  22/coordinate 1 (+)>>>
             <<<Displacing  22/coordinate 1 (-)>>>
             <<<Displacing  22/coordinate 2 (+)>>>
             <<<Displacing  22/coordinate 2 (-)>>>
             <<<Displacing  23/coordinate 1 (+)>>>
             <<<Displacing  23/coordinate 1 (-)>>>
             <<<Displacing  22/coordinate 3 (+)>>>
             <<<Displacing  22/coordinate 3 (-)>>>
             <<<Displacing  23/coordinate 2 (+)>>>
             <<<Displacing  23/coordinate 3 (+)>>>
             <<<Displacing  23/coordinate 2 (-)>>>
             <<<Displacing  24/coordinate 1 (+)>>>
             <<<Displacing  24/coordinate 3 (+)>>>
             <<<Displacing  24/coordinate 2 (+)>>>
             <<<Displacing  23/coordinate 3 (-)>>>
             <<<Displacing  24/coordinate 1 (-)>>>
             <<<Displacing  24/coordinate 3 (-)>>>
             <<<Displacing  24/coordinate 2 (-)>>>
             <<<Displacing  25/coordinate 1 (+)>>>
             <<<Displacing  25/coordinate 1 (-)>>>
             <<<Displacing  25/coordinate 2 (+)>>>
             <<<Displacing  25/coordinate 2 (-)>>>
             <<<Displacing  25/coordinate 3 (+)>>>
             <<<Displacing  25/coordinate 3 (-)>>>
             <<<Displacing  26/coordinate 1 (+)>>>
             <<<Displacing  26/coordinate 2 (+)>>>
             <<<Displacing  26/coordinate 1 (-)>>>
             <<<Displacing  27/coordinate 1 (+)>>>
             <<<Displacing  26/coordinate 2 (-)>>>
             <<<Displacing  26/coordinate 3 (+)>>>
             <<<Displacing  27/coordinate 2 (+)>>>
             <<<Displacing  27/coordinate 1 (-)>>>
             <<<Displacing  27/coordinate 2 (-)>>>
             <<<Displacing  26/coordinate 3 (-)>>>
             <<<Displacing  27/coordinate 3 (+)>>>
             <<<Displacing  27/coordinate 3 (-)>>>
             <<<Displacing  28/coordinate 1 (+)>>>
             <<<Displacing  28/coordinate 1 (-)>>>
             <<<Displacing  28/coordinate 2 (+)>>>
             <<<Displacing  28/coordinate 3 (+)>>>
             <<<Displacing  29/coordinate 1 (+)>>>
             <<<Displacing  28/coordinate 2 (-)>>>
             <<<Displacing  29/coordinate 2 (+)>>>
             <<<Displacing  28/coordinate 3 (-)>>>
             <<<Displacing  29/coordinate 1 (-)>>>
             <<<Displacing  29/coordinate 2 (-)>>>
             <<<Displacing  30/coordinate 1 (+)>>>
             <<<Displacing  29/coordinate 3 (+)>>>
             <<<Displacing  30/coordinate 1 (-)>>>
             <<<Displacing  29/coordinate 3 (-)>>>
             <<<Displacing  30/coordinate 2 (+)>>>
             <<<Displacing  30/coordinate 2 (-)>>>
             <<<Displacing  30/coordinate 3 (+)>>>
             <<<Displacing  30/coordinate 3 (-)>>>
             <<<Displacing  31/coordinate 2 (+)>>>
             <<<Displacing  31/coordinate 3 (+)>>>
             <<<Displacing  31/coordinate 2 (-)>>>
             <<<Displacing  31/coordinate 3 (-)>>>
             <<<Displacing  32/coordinate 1 (+)>>>
             <<<Displacing  32/coordinate 1 (-)>>>
             <<<Displacing  31/coordinate 1 (+)>>>
             <<<Displacing  32/coordinate 2 (+)>>>
             <<<Displacing  31/coordinate 1 (-)>>>
             <<<Displacing  32/coordinate 2 (-)>>>
             <<<Displacing  32/coordinate 3 (+)>>>
             <<<Displacing  32/coordinate 3 (-)>>>
             <<<Displacing  33/coordinate 1 (+)>>>
             <<<Displacing  33/coordinate 1 (-)>>>
             <<<Displacing  33/coordinate 2 (+)>>>
             <<<Displacing  33/coordinate 2 (-)>>>
             <<<Displacing  33/coordinate 3 (+)>>>
             <<<Displacing  33/coordinate 3 (-)>>>
             <<<Displacing  34/coordinate 1 (+)>>>
             <<<Displacing  34/coordinate 1 (-)>>>
             <<<Displacing  34/coordinate 2 (+)>>>
             <<<Displacing  35/coordinate 1 (+)>>>
             <<<Displacing  34/coordinate 3 (+)>>>
             <<<Displacing  34/coordinate 2 (-)>>>
             <<<Displacing  35/coordinate 1 (-)>>>
             <<<Displacing  34/coordinate 3 (-)>>>
             <<<Displacing  35/coordinate 2 (+)>>>
             <<<Displacing  35/coordinate 2 (-)>>>
             <<<Displacing  35/coordinate 3 (+)>>>
             <<<Displacing  35/coordinate 3 (-)>>>
             <<<Displacing  36/coordinate 1 (+)>>>
             <<<Displacing  36/coordinate 1 (-)>>>
             <<<Displacing  36/coordinate 2 (+)>>>
             <<<Displacing  36/coordinate 2 (-)>>>
             <<<Displacing  36/coordinate 3 (+)>>>
             <<<Displacing  36/coordinate 3 (-)>>>
             <<<Displacing  37/coordinate 3 (+)>>>
             <<<Displacing  37/coordinate 2 (+)>>>
             <<<Displacing  37/coordinate 1 (+)>>>
             <<<Displacing  37/coordinate 3 (-)>>>
             <<<Displacing  37/coordinate 2 (-)>>>
             <<<Displacing  37/coordinate 1 (-)>>>
             <<<Displacing  38/coordinate 1 (+)>>>
             <<<Displacing  38/coordinate 1 (-)>>>
             <<<Displacing  38/coordinate 2 (+)>>>
             <<<Displacing  38/coordinate 2 (-)>>>
             <<<Displacing  38/coordinate 3 (+)>>>
             <<<Displacing  38/coordinate 3 (-)>>>
             <<<Displacing  39/coordinate 1 (+)>>>
             <<<Displacing  39/coordinate 1 (-)>>>
             <<<Displacing  39/coordinate 3 (+)>>>
             <<<Displacing  39/coordinate 3 (-)>>>
             <<<Displacing  40/coordinate 1 (+)>>>
             <<<Displacing  39/coordinate 2 (+)>>>
             <<<Displacing  40/coordinate 1 (-)>>>
             <<<Displacing  39/coordinate 2 (-)>>>
             <<<Displacing  40/coordinate 2 (+)>>>
             <<<Displacing  40/coordinate 2 (-)>>>
             <<<Displacing  40/coordinate 3 (+)>>>
             <<<Displacing  40/coordinate 3 (-)>>>
             <<<Displacing  41/coordinate 1 (+)>>>
             <<<Displacing  41/coordinate 1 (-)>>>
             <<<Displacing  41/coordinate 2 (+)>>>
             <<<Displacing  41/coordinate 2 (-)>>>
             <<<Displacing  41/coordinate 3 (+)>>>
             <<<Displacing  41/coordinate 3 (-)>>>
             <<<Displacing  42/coordinate 1 (+)>>>
             <<<Displacing  42/coordinate 1 (-)>>>
             <<<Displacing  42/coordinate 3 (+)>>>
             <<<Displacing  42/coordinate 2 (+)>>>
             <<<Displacing  42/coordinate 3 (-)>>>
             <<<Displacing  42/coordinate 2 (-)>>>
             <<<Displacing  43/coordinate 1 (+)>>>
             <<<Displacing  43/coordinate 1 (-)>>>
             <<<Displacing  43/coordinate 2 (+)>>>
             <<<Displacing  43/coordinate 2 (-)>>>
             <<<Displacing  43/coordinate 3 (+)>>>
             <<<Displacing  43/coordinate 3 (-)>>>

-----------------------
VIBRATIONAL FREQUENCIES
-----------------------

Scaling factor for frequencies =  1.000000000 (already applied!)

   0:         0.00 cm**-1
   1:         0.00 cm**-1
   2:         0.00 cm**-1
   3:         0.00 cm**-1
   4:         0.00 cm**-1
   5:         0.00 cm**-1
   6:        33.70 cm**-1
   7:        35.11 cm**-1
   8:        50.97 cm**-1
   9:        58.18 cm**-1
  10:        61.11 cm**-1
  11:        67.05 cm**-1
  12:        81.04 cm**-1
  13:        87.05 cm**-1
  14:        96.88 cm**-1
  15:       113.62 cm**-1
  16:       128.17 cm**-1
  17:       144.49 cm**-1
  18:       157.38 cm**-1
  19:       160.58 cm**-1
  20:       203.57 cm**-1
  21:       215.90 cm**-1
  22:       263.68 cm**-1
  23:       264.64 cm**-1
  24:       270.04 cm**-1
  25:       282.86 cm**-1
  26:       367.96 cm**-1
  27:       377.39 cm**-1
  28:       381.10 cm**-1
  29:       391.41 cm**-1
  30:       427.52 cm**-1
  31:       434.32 cm**-1
  32:       462.94 cm**-1
  33:       509.18 cm**-1
  34:       588.44 cm**-1
  35:       624.33 cm**-1
  36:       665.53 cm**-1
  37:       758.11 cm**-1
  38:       760.62 cm**-1
  39:       772.19 cm**-1
  40:       815.31 cm**-1
  41:       822.89 cm**-1
  42:       857.55 cm**-1
  43:       878.96 cm**-1
  44:       903.96 cm**-1
  45:       917.38 cm**-1
  46:       922.84 cm**-1
  47:       932.47 cm**-1
  48:       935.01 cm**-1
  49:       940.65 cm**-1
  50:       941.33 cm**-1
  51:       952.25 cm**-1
  52:       973.40 cm**-1
  53:       983.36 cm**-1
  54:      1017.73 cm**-1
  55:      1019.47 cm**-1
  56:      1059.20 cm**-1
  57:      1068.40 cm**-1
  58:      1071.76 cm**-1
  59:      1084.61 cm**-1
  60:      1099.88 cm**-1
  61:      1104.48 cm**-1
  62:      1116.42 cm**-1
  63:      1126.03 cm**-1
  64:      1136.96 cm**-1
  65:      1143.89 cm**-1
  66:      1178.91 cm**-1
  67:      1187.28 cm**-1
  68:      1206.60 cm**-1
  69:      1209.40 cm**-1
  70:      1217.66 cm**-1
  71:      1251.10 cm**-1
  72:      1262.33 cm**-1
  73:      1268.43 cm**-1
  74:      1271.19 cm**-1
  75:      1275.84 cm**-1
  76:      1276.66 cm**-1
  77:      1280.33 cm**-1
  78:      1293.13 cm**-1
  79:      1311.93 cm**-1
  80:      1323.78 cm**-1
  81:      1334.41 cm**-1
  82:      1355.16 cm**-1
  83:      1367.91 cm**-1
  84:      1371.26 cm**-1
  85:      1422.73 cm**-1
  86:      1427.16 cm**-1
  87:      1429.16 cm**-1
  88:      1454.07 cm**-1
  89:      1473.45 cm**-1
  90:      1495.23 cm**-1
  91:      1498.07 cm**-1
  92:      1501.50 cm**-1
  93:      1505.05 cm**-1
  94:      1505.53 cm**-1
  95:      1509.04 cm**-1
  96:      1510.97 cm**-1
  97:      1512.23 cm**-1
  98:      1516.15 cm**-1
  99:      1560.02 cm**-1
 100:      1566.09 cm**-1
 101:      1566.91 cm**-1
 102:      1669.44 cm**-1
 103:      2855.78 cm**-1
 104:      2877.71 cm**-1
 105:      2932.47 cm**-1
 106:      2940.61 cm**-1
 107:      2941.08 cm**-1
 108:      2943.10 cm**-1
 109:      2946.92 cm**-1
 110:      2959.07 cm**-1
 111:      2962.97 cm**-1
 112:      2966.46 cm**-1
 113:      2968.31 cm**-1
 114:      2977.37 cm**-1
 115:      2979.63 cm**-1
 116:      2982.16 cm**-1
 117:      2984.96 cm**-1
 118:      2985.78 cm**-1
 119:      2993.28 cm**-1
 120:      2996.50 cm**-1
 121:      2999.21 cm**-1
 122:      3048.39 cm**-1
 123:      3055.86 cm**-1
 124:      3062.40 cm**-1
 125:      3071.70 cm**-1
 126:      3086.85 cm**-1
 127:      3326.43 cm**-1
 128:      3400.97 cm**-1


------------
NORMAL MODES
------------

These modes are the cartesian displacements weighted by the diagonal matrix
M(i,i)=1/sqrt(m[i]) where m[i] is the mass of the displaced atom
Thus, these vectors are normalized but *not* orthogonal

                  0          1          2          3          4          5    
      0       0.000000   0.000000   0.000000   0.000000   0.000000   0.000000
      1       0.000000   0.000000   0.000000   0.000000   0.000000   0.000000
      2       0.000000   0.000000   0.000000   0.000000   0.000000   0.000000
      3       0.000000   0.000000   0.000000   0.000000   0.000000   0.000000
      4       0.000000   0.000000   0.000000   0.000000   0.000000   0.000000
      5       0.000000   0.000000   0.000000   0.000000   0.000000   0.000000
      6       0.000000   0.000000   0.000000   0.000000   0.000000   0.000000
      7       0.000000   0.000000   0.000000   0.000000   0.000000   0.000000
      8       0.000000   0.000000   0.000000   0.000000   0.000000   0.000000
      9       0.000000   0.000000   0.000000   0.000000   0.000000   0.000000
     10       0.000000   0.000000   0.000000   0.000000   0.000000   0.000000
     11       0.000000   0.000000   0.000000   0.000000   0.000000   0.000000
     12       0.000000   0.000000   0.000000   0.000000   0.000000   0.000000
     13       0.000000   0.000000   0.000000   0.000000   0.000000   0.000000
     14       0.000000   0.000000   0.000000   0.000000   0.000000   0.000000
     15       0.000000   0.000000   0.000000   0.000000   0.000000   0.000000
     16       0.000000   0.000000   0.000000   0.000000   0.000000   0.000000
     17       0.000000   0.000000   0.000000   0.000000   0.000000   0.000000
     18       0.000000   0.000000   0.000000   0.000000   0.000000   0.000000
     19       0.000000   0.000000   0.000000   0.000000   0.000000   0.000000
     20       0.000000   0.000000   0.000000   0.000000   0.000000   0.000000
     21       0.000000   0.000000   0.000000   0.000000   0.000000   0.000000
     22       0.000000   0.000000   0.000000   0.000000   0.000000   0.000000
     23       0.000000   0.000000   0.000000   0.000000   0.000000   0.000000
     24       0.000000   0.000000   0.000000   0.000000   0.000000   0.000000
     25       0.000000   0.000000   0.000000   0.000000   0.000000   0.000000
     26       0.000000   0.000000   0.000000   0.000000   0.000000   0.000000
     27       0.000000   0.000000   0.000000   0.000000   0.000000   0.000000
     28       0.000000   0.000000   0.000000   0.000000   0.000000   0.000000
     29       0.000000   0.000000   0.000000   0.000000   0.000000   0.000000
     30       0.000000   0.000000   0.000000   0.000000   0.000000   0.000000
     31       0.000000   0.000000   0.000000   0.000000   0.000000   0.000000
     32       0.000000   0.000000   0.000000   0.000000   0.000000   0.000000
     33       0.000000   0.000000   0.000000   0.000000   0.000000   0.000000
     34       0.000000   0.000000   0.000000   0.000000   0.000000   0.000000
     35       0.000000   0.000000   0.000000   0.000000   0.000000   0.000000
     36       0.000000   0.000000   0.000000   0.000000   0.000000   0.000000
     37       0.000000   0.000000   0.000000   0.000000   0.000000   0.000000
     38       0.000000   0.000000   0.000000   0.000000   0.000000   0.000000
     39       0.000000   0.000000   0.000000   0.000000   0.000000   0.000000
     40       0.000000   0.000000   0.000000   0.000000   0.000000   0.000000
     41       0.000000   0.000000   0.000000   0.000000   0.000000   0.000000
     42       0.000000   0.000000   0.000000   0.000000   0.000000   0.000000
     43       0.000000   0.000000   0.000000   0.000000   0.000000   0.000000
     44       0.000000   0.000000   0.000000   0.000000   0.000000   0.000000
     45       0.000000   0.000000   0.000000   0.000000   0.000000   0.000000
     46       0.000000   0.000000   0.000000   0.000000   0.000000   0.000000
     47       0.000000   0.000000   0.000000   0.000000   0.000000   0.000000
     48       0.000000   0.000000   0.000000   0.000000   0.000000   0.000000
     49       0.000000   0.000000   0.000000   0.000000   0.000000   0.000000
     50       0.000000   0.000000   0.000000   0.000000   0.000000   0.000000
     51       0.000000   0.000000   0.000000   0.000000   0.000000   0.000000
     52       0.000000   0.000000   0.000000   0.000000   0.000000   0.000000
     53       0.000000   0.000000   0.000000   0.000000   0.000000   0.000000
     54       0.000000   0.000000   0.000000   0.000000   0.000000   0.000000
     55       0.000000   0.000000   0.000000   0.000000   0.000000   0.000000
     56       0.000000   0.000000   0.000000   0.000000   0.000000   0.000000
     57       0.000000   0.000000   0.000000   0.000000   0.000000   0.000000
     58       0.000000   0.000000   0.000000   0.000000   0.000000   0.000000
     59       0.000000   0.000000   0.000000   0.000000   0.000000   0.000000
     60       0.000000   0.000000   0.000000   0.000000   0.000000   0.000000
     61       0.000000   0.000000   0.000000   0.000000   0.000000   0.000000
     62       0.000000   0.000000   0.000000   0.000000   0.000000   0.000000
     63       0.000000   0.000000   0.000000   0.000000   0.000000   0.000000
     64       0.000000   0.000000   0.000000   0.000000   0.000000   0.000000
     65       0.000000   0.000000   0.000000   0.000000   0.000000   0.000000
     66       0.000000   0.000000   0.000000   0.000000   0.000000   0.000000
     67       0.000000   0.000000   0.000000   0.000000   0.000000   0.000000
     68       0.000000   0.000000   0.000000   0.000000   0.000000   0.000000
     69       0.000000   0.000000   0.000000   0.000000   0.000000   0.000000
     70       0.000000   0.000000   0.000000   0.000000   0.000000   0.000000
     71       0.000000   0.000000   0.000000   0.000000   0.000000   0.000000
     72       0.000000   0.000000   0.000000   0.000000   0.000000   0.000000
     73       0.000000   0.000000   0.000000   0.000000   0.000000   0.000000
     74       0.000000   0.000000   0.000000   0.000000   0.000000   0.000000
     75       0.000000   0.000000   0.000000   0.000000   0.000000   0.000000
     76       0.000000   0.000000   0.000000   0.000000   0.000000   0.000000
     77       0.000000   0.000000   0.000000   0.000000   0.000000   0.000000
     78       0.000000   0.000000   0.000000   0.000000   0.000000   0.000000
     79       0.000000   0.000000   0.000000   0.000000   0.000000   0.000000
     80       0.000000   0.000000   0.000000   0.000000   0.000000   0.000000
     81       0.000000   0.000000   0.000000   0.000000   0.000000   0.000000
     82       0.000000   0.000000   0.000000   0.000000   0.000000   0.000000
     83       0.000000   0.000000   0.000000   0.000000   0.000000   0.000000
     84       0.000000   0.000000   0.000000   0.000000   0.000000   0.000000
     85       0.000000   0.000000   0.000000   0.000000   0.000000   0.000000
     86       0.000000   0.000000   0.000000   0.000000   0.000000   0.000000
     87       0.000000   0.000000   0.000000   0.000000   0.000000   0.000000
     88       0.000000   0.000000   0.000000   0.000000   0.000000   0.000000
     89       0.000000   0.000000   0.000000   0.000000   0.000000   0.000000
     90       0.000000   0.000000   0.000000   0.000000   0.000000   0.000000
     91       0.000000   0.000000   0.000000   0.000000   0.000000   0.000000
     92       0.000000   0.000000   0.000000   0.000000   0.000000   0.000000
     93       0.000000   0.000000   0.000000   0.000000   0.000000   0.000000
     94       0.000000   0.000000   0.000000   0.000000   0.000000   0.000000
     95       0.000000   0.000000   0.000000   0.000000   0.000000   0.000000
     96       0.000000   0.000000   0.000000   0.000000   0.000000   0.000000
     97       0.000000   0.000000   0.000000   0.000000   0.000000   0.000000
     98       0.000000   0.000000   0.000000   0.000000   0.000000   0.000000
     99       0.000000   0.000000   0.000000   0.000000   0.000000   0.000000
    100       0.000000   0.000000   0.000000   0.000000   0.000000   0.000000
    101       0.000000   0.000000   0.000000   0.000000   0.000000   0.000000
    102       0.000000   0.000000   0.000000   0.000000   0.000000   0.000000
    103       0.000000   0.000000   0.000000   0.000000   0.000000   0.000000
    104       0.000000   0.000000   0.000000   0.000000   0.000000   0.000000
    105       0.000000   0.000000   0.000000   0.000000   0.000000   0.000000
    106       0.000000   0.000000   0.000000   0.000000   0.000000   0.000000
    107       0.000000   0.000000   0.000000   0.000000   0.000000   0.000000
    108       0.000000   0.000000   0.000000   0.000000   0.000000   0.000000
    109       0.000000   0.000000   0.000000   0.000000   0.000000   0.000000
    110       0.000000   0.000000   0.000000   0.000000   0.000000   0.000000
    111       0.000000   0.000000   0.000000   0.000000   0.000000   0.000000
    112       0.000000   0.000000   0.000000   0.000000   0.000000   0.000000
    113       0.000000   0.000000   0.000000   0.000000   0.000000   0.000000
    114       0.000000   0.000000   0.000000   0.000000   0.000000   0.000000
    115       0.000000   0.000000   0.000000   0.000000   0.000000   0.000000
    116       0.000000   0.000000   0.000000   0.000000   0.000000   0.000000
    117       0.000000   0.000000   0.000000   0.000000   0.000000   0.000000
    118       0.000000   0.000000   0.000000   0.000000   0.000000   0.000000
    119       0.000000   0.000000   0.000000   0.000000   0.000000   0.000000
    120       0.000000   0.000000   0.000000   0.000000   0.000000   0.000000
    121       0.000000   0.000000   0.000000   0.000000   0.000000   0.000000
    122       0.000000   0.000000   0.000000   0.000000   0.000000   0.000000
    123       0.000000   0.000000   0.000000   0.000000   0.000000   0.000000
    124       0.000000   0.000000   0.000000   0.000000   0.000000   0.000000
    125       0.000000   0.000000   0.000000   0.000000   0.000000   0.000000
    126       0.000000   0.000000   0.000000   0.000000   0.000000   0.000000
    127       0.000000   0.000000   0.000000   0.000000   0.000000   0.000000
    128       0.000000   0.000000   0.000000   0.000000   0.000000   0.000000
                  6          7          8          9         10         11    
      0      -0.041378   0.012418  -0.075120   0.001625   0.027123  -0.011980
      1      -0.109898   0.040647   0.053616  -0.024568  -0.011677   0.052126
      2      -0.003080   0.087852   0.035884   0.147734  -0.136807   0.099912
      3      -0.038863   0.012548  -0.078113   0.005880   0.026288  -0.016306
      4      -0.082980   0.030854   0.002679  -0.003374  -0.004845   0.038008
      5       0.008786   0.059325  -0.017521   0.099001  -0.101568   0.172695
      6      -0.060687   0.018450  -0.043026  -0.014280   0.022356   0.006109
      7      -0.064321   0.020609  -0.025241  -0.005835   0.015888   0.001550
      8       0.024960   0.018103  -0.026737  -0.026100   0.022331   0.042002
      9      -0.083515   0.023128  -0.005885  -0.039315   0.019430   0.034589
     10      -0.073971   0.021158   0.000066  -0.030037   0.029190  -0.019999
     11       0.031022   0.007751   0.019764  -0.097248   0.105264  -0.157363
     12      -0.085452   0.022730  -0.003174  -0.043450   0.020236   0.039236
     13      -0.100759   0.031078   0.051005  -0.050282   0.021535  -0.006447
     14       0.018258   0.038453   0.073194  -0.045695   0.067110  -0.232843
     15      -0.064275   0.017251  -0.037825  -0.022993   0.023958   0.016303
     16      -0.119307   0.041002   0.078000  -0.048038   0.001574   0.028783
     17       0.001350   0.077553   0.081219   0.075104  -0.051975  -0.107576
     18      -0.020269   0.008140  -0.107713   0.024871   0.028819  -0.037803
     19      -0.075380   0.030394  -0.016398   0.015177  -0.015367   0.055349
     20       0.004433   0.068119  -0.051249   0.157339  -0.169206   0.329067
     21      -0.095314   0.025056   0.020328  -0.053961   0.014892   0.054039
     22      -0.062525   0.014429  -0.020163  -0.031993   0.044732  -0.047339
     23       0.045480  -0.027471   0.014072  -0.187312   0.191153  -0.247084
     24      -0.066114   0.017146  -0.035329  -0.026317   0.024569   0.019772
     25      -0.140322   0.048612   0.117626  -0.064222  -0.003875   0.038005
     26      -0.007967   0.099316   0.122395   0.113250  -0.080099  -0.168121
     27      -0.083250   0.026990  -0.018931  -0.021011   0.017709   0.004391
     28      -0.005307  -0.003330  -0.102637   0.021519   0.032326  -0.018169
     29       0.013088  -0.026081  -0.057491  -0.124908   0.125264   0.034233
     30      -0.073925   0.025090  -0.026627  -0.018678   0.019797   0.006652
     31       0.037338  -0.016959  -0.135899   0.034427   0.035893  -0.002901
     32       0.019212  -0.052218  -0.057975  -0.095035   0.088920   0.027053
     33      -0.040007   0.018323  -0.052710  -0.017763   0.030896   0.026741
     34       0.049568  -0.025340  -0.166015   0.028131   0.030477   0.006199
     35       0.050965  -0.084951  -0.173948  -0.120738   0.056134   0.052336
     36      -0.089580   0.039435  -0.045527  -0.055924   0.039248   0.016228
     37       0.075965  -0.044704  -0.235768   0.009568   0.018638   0.025544
     38      -0.000719  -0.039497   0.027803  -0.054838   0.090163   0.000443
     39       0.080458  -0.021521   0.080528  -0.095597  -0.003572   0.032476
     40       0.087915  -0.063057  -0.142627   0.127396  -0.029022  -0.109134
     41      -0.164921  -0.135903  -0.044154  -0.014938   0.049801   0.050378
     42       0.115306  -0.192072   0.047066  -0.023294  -0.042200   0.053297
     43       0.059873   0.006887  -0.152678   0.109427   0.045703  -0.121363
     44      -0.120387  -0.266276  -0.030787   0.020280  -0.069104   0.074292
     45      -0.056245   0.018168  -0.047514  -0.009375   0.021753   0.002571
     46      -0.027686   0.006370  -0.077607   0.018119   0.019330  -0.009475
     47       0.033047  -0.011650  -0.068984  -0.057857   0.040958   0.089427
     48      -0.027849   0.009816  -0.080147   0.006335   0.025511  -0.004589
     49      -0.015545   0.002661  -0.092660   0.030846   0.008636  -0.000421
     50       0.056434  -0.019883  -0.104088  -0.000226  -0.042764   0.164955
     51      -0.091601   0.013507   0.032023   0.044579  -0.029008  -0.043417
     52       0.020720   0.016083   0.005800   0.080450   0.072155  -0.016525
     53       0.005482  -0.049538   0.010353  -0.048790   0.071920  -0.003461
     54      -0.072634   0.004375   0.110124   0.084520  -0.032953  -0.014434
     55      -0.016250   0.037323   0.051801   0.107912   0.067547  -0.080073
     56       0.026594  -0.062543  -0.066092  -0.091084   0.077405   0.034729
     57      -0.129272   0.013769  -0.001174   0.063256  -0.072946  -0.129780
     58       0.003259   0.023775   0.014821   0.090336   0.065185  -0.048621
     59      -0.024356  -0.019535   0.077594  -0.028042   0.091030  -0.041175
     60      -0.086452   0.014111   0.034152   0.039646  -0.021993  -0.030826
     61       0.077124   0.011984   0.072060   0.067277   0.126542   0.109999
     62       0.001614  -0.069096   0.089196   0.033424   0.016582  -0.042973
     63      -0.104367   0.025333  -0.041942  -0.004146  -0.017242  -0.057013
     64       0.107342   0.010416   0.030164   0.033672   0.124968   0.167789
     65      -0.013371  -0.073262   0.155535   0.078404   0.015040  -0.075438
     66      -0.048372   0.015093   0.068826   0.017136   0.025723   0.062333
     67       0.091746   0.010883   0.066758   0.056230   0.131845   0.140014
     68       0.022122  -0.074592   0.030375   0.011890  -0.011633  -0.016813
     69      -0.025588   0.008551  -0.101476   0.017367   0.030171  -0.030580
     70      -0.123355   0.047819   0.073989  -0.022530  -0.027473   0.080491
     71      -0.015703   0.117879   0.042347   0.242673  -0.231008   0.201754
     72      -0.104285   0.027093   0.026017  -0.062531   0.017935   0.060952
     73      -0.108375   0.031546   0.070009  -0.068001   0.031262  -0.023707
     74       0.022241   0.030010   0.108007  -0.098968   0.128959  -0.387518
     75       0.177651  -0.002407   0.026462  -0.012840  -0.006223   0.016807
     76       0.083413  -0.086289  -0.099342   0.089117  -0.087610  -0.093174
     77      -0.074988  -0.148625  -0.038470   0.023787  -0.060366   0.052646
     78       0.210497  -0.022979  -0.024742   0.052529  -0.011000   0.000399
     79       0.093275  -0.104837  -0.109305   0.105186  -0.102728  -0.094890
     80      -0.047758  -0.252379  -0.046586   0.057437  -0.160170   0.058356
     81       0.201679   0.127648   0.046615  -0.045797   0.019133   0.006311
     82       0.116880  -0.160187  -0.104817   0.117801  -0.174335  -0.089305
     83      -0.090270  -0.113229  -0.035825   0.010178  -0.020058   0.050809
     84       0.150782  -0.074272   0.038632  -0.022978  -0.020394   0.032736
     85       0.030941   0.003372  -0.024114  -0.019640  -0.023739  -0.071289
     86      -0.031801   0.026097  -0.042580   0.015737  -0.012328   0.025588
     87       0.120866  -0.200878   0.010628   0.032834  -0.023304   0.036321
     88      -0.016944   0.074051  -0.030250  -0.000056   0.111069  -0.086133
     89      -0.006142  -0.011159  -0.039283   0.005033  -0.084342   0.033578
     90       0.131251  -0.070643   0.104134  -0.117996  -0.049572   0.063773
     91       0.018985   0.022081  -0.015979  -0.029063   0.001936  -0.070008
     92      -0.079117   0.122127  -0.049437   0.037110   0.139438   0.005340
     93       0.188762   0.013174   0.001429   0.017002   0.006171   0.002778
     94       0.061677  -0.032865   0.054595  -0.143021  -0.175633  -0.026485
     95       0.036457   0.120717  -0.045283  -0.005281  -0.068238   0.012679
     96       0.226449   0.112287   0.008588  -0.033732  -0.022452   0.008340
     97       0.099263  -0.078658   0.082972  -0.166158  -0.275563  -0.023393
     98       0.016017   0.141780  -0.060380   0.008361  -0.015236   0.011204
     99       0.198633   0.029317  -0.051302   0.107187   0.061740  -0.038355
    100       0.069632  -0.042686   0.053389  -0.135378  -0.188550  -0.031000
    101       0.071787   0.055972  -0.011789  -0.033136  -0.180353   0.019216
    102       0.133246  -0.064136   0.053259  -0.044967  -0.017209   0.035203
    103       0.094907  -0.073482  -0.144812   0.133954  -0.035691  -0.107416
    104      -0.133435  -0.233877  -0.033557   0.010567  -0.037639   0.068980
    105       0.163832  -0.049971   0.022238   0.003734  -0.003047   0.019471
    106       0.035272  -0.001023   0.098031  -0.240990  -0.180477   0.021542
    107       0.081352   0.265579  -0.075553  -0.009086  -0.050354  -0.007161
    108       0.188142   0.009928  -0.005214   0.028887   0.011881  -0.002399
    109       0.048330  -0.027341   0.147420  -0.310121  -0.258097   0.046826
    110       0.119361   0.324743  -0.080745  -0.018495  -0.077468  -0.019485
    111       0.152243  -0.064232   0.069607  -0.074328  -0.042109   0.058219
    112       0.029296   0.006802   0.101510  -0.251867  -0.173764   0.028373
    113       0.058940   0.327641  -0.105415   0.005313   0.027566  -0.007404
    114       0.133342  -0.141662   0.017336   0.047778   0.015490   0.015849
    115       0.009194   0.039419   0.077317  -0.231350  -0.112411   0.025400
    116       0.097545   0.249952  -0.064045  -0.017275  -0.088411  -0.008957
    117      -0.107128  -0.000801   0.090759   0.122966  -0.084341  -0.106218
    118       0.075344   0.012164   0.195085   0.106265   0.175608   0.125812
    119      -0.009863  -0.077121   0.157962   0.090403  -0.001514  -0.078517
    120      -0.104361   0.000495   0.088315   0.116510  -0.078227  -0.097661
    121       0.107296   0.019140   0.224876   0.093079   0.212065   0.201050
    122      -0.016134  -0.086685   0.209631   0.153384  -0.042423  -0.116105
    123      -0.137881  -0.009188   0.068119   0.148042  -0.129414  -0.184500
    124       0.064323   0.009963   0.205232   0.116655   0.171375   0.103316
    125      -0.024970  -0.078757   0.219824   0.109665   0.024346  -0.094974
    126      -0.094931  -0.004630   0.157066   0.167003  -0.091372  -0.092838
    127       0.053385   0.008039   0.243449   0.136084   0.178861   0.084917
    128       0.002480  -0.072523   0.095782   0.050859  -0.001502  -0.052043
                 12         13         14         15         16         17    
      0      -0.030120   0.011500   0.019802   0.024756   0.026084   0.005374
      1       0.046601   0.008571  -0.022696   0.014225  -0.009651   0.002910
      2      -0.000713  -0.028853   0.004318   0.104354   0.016690   0.008071
      3      -0.038348   0.010636   0.022235   0.029659   0.029693   0.005801
      4      -0.027251   0.012283   0.016632  -0.009532   0.015061   0.006613
      5       0.023778  -0.001087   0.033543  -0.080862  -0.025558  -0.000807
      6       0.021288   0.010728  -0.003364   0.024424   0.006879   0.003086
      7      -0.074628   0.017150   0.036003  -0.021652   0.030181   0.008137
      8       0.017497   0.033345   0.028085  -0.187560  -0.042143  -0.006877
      9       0.091069   0.010676  -0.032141   0.019950  -0.019769  -0.001148
     10      -0.049113   0.019177   0.017993  -0.020259   0.019544   0.006273
     11      -0.016208   0.044210  -0.000544  -0.166493  -0.032530  -0.006932
     12       0.100479   0.011396  -0.035465   0.015465  -0.024464  -0.001946
     13       0.024939   0.016294  -0.022259   0.000419  -0.004975   0.001552
     14      -0.044696   0.021336  -0.032458   0.003342   0.009060  -0.004109
     15       0.039859   0.011676  -0.009176   0.018191  -0.001276   0.001341
     16       0.071500   0.010750  -0.041964   0.020786  -0.018032   0.000458
     17      -0.036586  -0.016585  -0.032533   0.158576   0.038919   0.004285
     18      -0.092547   0.010234   0.045148   0.036171   0.051538   0.008856
     19      -0.047160   0.010592   0.031081  -0.011480   0.022694   0.008147
     20       0.049217  -0.009989   0.057825  -0.109803  -0.038016  -0.000135
     21       0.138562   0.007515  -0.052783   0.020537  -0.038352  -0.006697
     22      -0.086456   0.024803   0.033725  -0.034148   0.030863   0.009751
     23      -0.026494   0.070075  -0.000412  -0.261332  -0.050981  -0.009965
     24       0.046543   0.012231  -0.011186   0.013832  -0.004610   0.000940
     25       0.126151   0.008136  -0.071693   0.040509  -0.034665  -0.002285
     26      -0.058489  -0.035831  -0.059811   0.312109   0.076521   0.007826
     27       0.031951   0.013119   0.001389   0.003940   0.013612   0.012120
     28      -0.142847   0.005879   0.052368   0.040330   0.040793  -0.001090
     29       0.088383  -0.012344   0.025387   0.112291   0.014568   0.045074
     30       0.025953   0.012702  -0.001549   0.006691   0.007692   0.007739
     31      -0.172032   0.007806   0.032648   0.059903   0.012815  -0.026792
     32       0.032341   0.010746   0.003649   0.131774   0.035495   0.015297
     33       0.016684   0.014435  -0.018871   0.020419  -0.014827  -0.009666
     34      -0.203727   0.031591   0.016012   0.070190   0.037153  -0.051207
     35      -0.100347   0.112424  -0.057303   0.164421   0.155914  -0.082320
     36       0.053905   0.014694   0.013383   0.001579   0.031477   0.021762
     37      -0.271670   0.084447  -0.021235   0.099590   0.096825  -0.107267
     38       0.090794  -0.047233   0.035384   0.102550  -0.041433   0.067113
     39      -0.013330  -0.021685   0.037116   0.016305  -0.088488   0.026806
     40       0.187333  -0.023813  -0.089080  -0.040164   0.108514  -0.074393
     41       0.056561  -0.175781  -0.068463  -0.025322   0.137268  -0.279485
     42      -0.095770  -0.027203  -0.006552  -0.032221   0.065984  -0.004187
     43       0.252253  -0.125709  -0.117012  -0.041635   0.186638  -0.279437
     44      -0.064864  -0.026061  -0.028470  -0.033027   0.037900   0.020273
     45       0.013482   0.009575  -0.001472   0.024266   0.007341   0.001978
     46      -0.132545   0.016478   0.055185  -0.013867   0.041040   0.000911
     47       0.022305   0.052659   0.031055  -0.206991  -0.036254  -0.016038
     48      -0.017666   0.005666   0.003635   0.042865   0.005115  -0.005010
     49      -0.153186   0.026090   0.055791  -0.042735   0.036903  -0.010720
     50      -0.053426   0.125572   0.025493  -0.451424  -0.057795  -0.083797
     51      -0.013250   0.004345   0.000293  -0.028346  -0.009995   0.001298
     52      -0.022708  -0.108383   0.086792   0.009658  -0.149195   0.070970
     53       0.051113  -0.025050   0.019638   0.101372  -0.016188   0.037452
     54      -0.069055   0.063609  -0.123766  -0.054707  -0.026277  -0.037874
     55       0.093304  -0.232112   0.234790  -0.022465  -0.231695   0.155093
     56      -0.017233   0.048216  -0.041141   0.139990   0.060427  -0.013094
     57       0.007283  -0.072021   0.144388  -0.039068  -0.016363   0.038301
     58       0.021361  -0.161010   0.155770  -0.002307  -0.177211   0.103537
     59       0.194877  -0.153096   0.143106   0.065914  -0.118960   0.124569
     60      -0.014729   0.014710  -0.017268  -0.027442  -0.006478  -0.003898
     61      -0.083446   0.024228  -0.155159   0.016630  -0.125245  -0.007370
     62      -0.038239   0.010720  -0.047067   0.047481  -0.034052   0.000653
     63       0.042589  -0.056128   0.093056   0.006709  -0.026099   0.047989
     64      -0.216487   0.080493  -0.405918   0.050040  -0.254905  -0.050882
     65       0.037653   0.000051   0.095206   0.006430   0.074195   0.010368
     66      -0.035290   0.099672  -0.162609  -0.012576   0.026565  -0.053406
     67      -0.128461   0.055143  -0.252841   0.027394  -0.159410  -0.028958
     68      -0.204265   0.048515  -0.301001   0.075960  -0.214515  -0.036620
     69      -0.078379   0.011862   0.040830   0.025525   0.044741   0.008286
     70       0.083045   0.004072  -0.037684   0.028922  -0.020790   0.001928
     71       0.005751  -0.058432   0.007589   0.210335   0.034718   0.015772
     72       0.155934   0.012153  -0.059000   0.009233  -0.046596  -0.004855
[...]
    123      -0.000038   0.000012   0.000081
    124       0.000140  -0.000043   0.000097
    125       0.000006  -0.000045  -0.000035
    126      -0.000124   0.000009  -0.000007
    127      -0.000283   0.000070  -0.000109
    128      -0.000332   0.000132  -0.000107


-----------
IR SPECTRUM  
-----------

 Mode    freq (cm**-1)   T**2         TX         TY         TZ
-------------------------------------------------------------------
   6:        33.70    0.000000  (  0.000000   0.000000   0.000000)
   7:        35.11    0.000000  (  0.000000   0.000000   0.000000)
   8:        50.97    0.000000  (  0.000000   0.000000   0.000000)
   9:        58.18    0.000000  (  0.000000   0.000000   0.000000)
  10:        61.11    0.000000  (  0.000000   0.000000   0.000000)
  11:        67.05    0.000000  (  0.000000   0.000000   0.000000)
  12:        81.04    0.000000  (  0.000000   0.000000   0.000000)
  13:        87.05    0.000000  (  0.000000   0.000000   0.000000)
  14:        96.88    0.000000  (  0.000000   0.000000   0.000000)
  15:       113.62    0.000000  (  0.000000   0.000000   0.000000)
  16:       128.17    0.000000  (  0.000000   0.000000   0.000000)
  17:       144.49    0.000000  (  0.000000   0.000000   0.000000)
  18:       157.38    0.000000  (  0.000000   0.000000   0.000000)
  19:       160.58    0.000000  (  0.000000   0.000000   0.000000)
  20:       203.57    0.000000  (  0.000000   0.000000   0.000000)
  21:       215.90    0.000000  (  0.000000   0.000000   0.000000)
  22:       263.68    0.000000  (  0.000000   0.000000   0.000000)
  23:       264.64    0.000000  (  0.000000   0.000000   0.000000)
  24:       270.04    0.000000  (  0.000000   0.000000   0.000000)
  25:       282.86    0.000000  (  0.000000   0.000000   0.000000)
  26:       367.96    0.000000  (  0.000000   0.000000   0.000000)
  27:       377.39    0.000000  (  0.000000   0.000000   0.000000)
  28:       381.10    0.000000  (  0.000000   0.000000   0.000000)
  29:       391.41    0.000000  (  0.000000   0.000000   0.000000)
  30:       427.52    0.000000  (  0.000000   0.000000   0.000000)
  31:       434.32    0.000000  (  0.000000   0.000000   0.000000)
  32:       462.94    0.000000  (  0.000000   0.000000   0.000000)
  33:       509.18    0.000000  (  0.000000   0.000000   0.000000)
  34:       588.44    0.000000  (  0.000000   0.000000   0.000000)
  35:       624.33    0.000000  (  0.000000   0.000000   0.000000)
  36:       665.53    0.000000  (  0.000000   0.000000   0.000000)
  37:       758.11    0.000000  (  0.000000   0.000000   0.000000)
  38:       760.62    0.000000  (  0.000000   0.000000   0.000000)
  39:       772.19    0.000000  (  0.000000   0.000000   0.000000)
  40:       815.31    0.000000  (  0.000000   0.000000   0.000000)
  41:       822.89    0.000000  (  0.000000   0.000000   0.000000)
  42:       857.55    0.000000  (  0.000000   0.000000   0.000000)
  43:       878.96    0.000000  (  0.000000   0.000000   0.000000)
  44:       903.96    0.000000  (  0.000000   0.000000   0.000000)
  45:       917.38    0.000000  (  0.000000   0.000000   0.000000)
  46:       922.84    0.000000  (  0.000000   0.000000   0.000000)
  47:       932.47    0.000000  (  0.000000   0.000000   0.000000)
  48:       935.01    0.000000  (  0.000000   0.000000   0.000000)
  49:       940.65    0.000000  (  0.000000   0.000000   0.000000)
  50:       941.33    0.000000  (  0.000000   0.000000   0.000000)
  51:       952.25    0.000000  (  0.000000   0.000000   0.000000)
  52:       973.40    0.000000  (  0.000000   0.000000   0.000000)
  53:       983.36    0.000000  (  0.000000   0.000000   0.000000)
  54:      1017.73    0.000000  (  0.000000   0.000000   0.000000)
  55:      1019.47    0.000000  (  0.000000   0.000000   0.000000)
  56:      1059.20    0.000000  (  0.000000   0.000000   0.000000)
  57:      1068.40    0.000000  (  0.000000   0.000000   0.000000)
  58:      1071.76    0.000000  (  0.000000   0.000000   0.000000)
  59:      1084.61    0.000000  (  0.000000   0.000000   0.000000)
  60:      1099.88    0.000000  (  0.000000   0.000000   0.000000)
  61:      1104.48    0.000000  (  0.000000   0.000000   0.000000)
  62:      1116.42    0.000000  (  0.000000   0.000000   0.000000)
  63:      1126.03    0.000000  (  0.000000   0.000000   0.000000)
  64:      1136.96    0.000000  (  0.000000   0.000000   0.000000)
  65:      1143.89    0.000000  (  0.000000   0.000000   0.000000)
  66:      1178.91    0.000000  (  0.000000   0.000000   0.000000)
  67:      1187.28    0.000000  (  0.000000   0.000000   0.000000)
  68:      1206.60    0.000000  (  0.000000   0.000000   0.000000)
  69:      1209.40    0.000000  (  0.000000   0.000000   0.000000)
  70:      1217.66    0.000000  (  0.000000   0.000000   0.000000)
  71:      1251.10    0.000000  (  0.000000   0.000000   0.000000)
  72:      1262.33    0.000000  (  0.000000   0.000000   0.000000)
  73:      1268.43    0.000000  (  0.000000   0.000000   0.000000)
  74:      1271.19    0.000000  (  0.000000   0.000000   0.000000)
  75:      1275.84    0.000000  (  0.000000   0.000000   0.000000)
  76:      1276.66    0.000000  (  0.000000   0.000000   0.000000)
  77:      1280.33    0.000000  (  0.000000   0.000000   0.000000)
  78:      1293.13    0.000000  (  0.000000   0.000000   0.000000)
  79:      1311.93    0.000000  (  0.000000   0.000000   0.000000)
  80:      1323.78    0.000000  (  0.000000   0.000000   0.000000)
  81:      1334.41    0.000000  (  0.000000   0.000000   0.000000)
  82:      1355.16    0.000000  (  0.000000   0.000000   0.000000)
  83:      1367.91    0.000000  (  0.000000   0.000000   0.000000)
  84:      1371.26    0.000000  (  0.000000   0.000000   0.000000)
  85:      1422.73    0.000000  (  0.000000   0.000000   0.000000)
  86:      1427.16    0.000000  (  0.000000   0.000000   0.000000)
  87:      1429.16    0.000000  (  0.000000   0.000000   0.000000)
  88:      1454.07    0.000000  (  0.000000   0.000000   0.000000)
  89:      1473.45    0.000000  (  0.000000   0.000000   0.000000)
  90:      1495.23    0.000000  (  0.000000   0.000000   0.000000)
  91:      1498.07    0.000000  (  0.000000   0.000000   0.000000)
  92:      1501.50    0.000000  (  0.000000   0.000000   0.000000)
  93:      1505.05    0.000000  (  0.000000   0.000000   0.000000)
  94:      1505.53    0.000000  (  0.000000   0.000000   0.000000)
  95:      1509.04    0.000000  (  0.000000   0.000000   0.000000)
  96:      1510.97    0.000000  (  0.000000   0.000000   0.000000)
  97:      1512.23    0.000000  (  0.000000   0.000000   0.000000)
  98:      1516.15    0.000000  (  0.000000   0.000000   0.000000)
  99:      1560.02    0.000000  (  0.000000   0.000000   0.000000)
 100:      1566.09    0.000000  (  0.000000   0.000000   0.000000)
 101:      1566.91    0.000000  (  0.000000   0.000000   0.000000)
 102:      1669.44    0.000000  (  0.000000   0.000000   0.000000)
 103:      2855.78    0.000000  (  0.000000   0.000000   0.000000)
 104:      2877.71    0.000000  (  0.000000   0.000000   0.000000)
 105:      2932.47    0.000000  (  0.000000   0.000000   0.000000)
 106:      2940.61    0.000000  (  0.000000   0.000000   0.000000)
 107:      2941.08    0.000000  (  0.000000   0.000000   0.000000)
 108:      2943.10    0.000000  (  0.000000   0.000000   0.000000)
 109:      2946.92    0.000000  (  0.000000   0.000000   0.000000)
 110:      2959.07    0.000000  (  0.000000   0.000000   0.000000)
 111:      2962.97    0.000000  (  0.000000   0.000000   0.000000)
 112:      2966.46    0.000000  (  0.000000   0.000000   0.000000)
 113:      2968.31    0.000000  (  0.000000   0.000000   0.000000)
 114:      2977.37    0.000000  (  0.000000   0.000000   0.000000)
 115:      2979.63    0.000000  (  0.000000   0.000000   0.000000)
 116:      2982.16    0.000000  (  0.000000   0.000000   0.000000)
 117:      2984.96    0.000000  (  0.000000   0.000000   0.000000)
 118:      2985.78    0.000000  (  0.000000   0.000000   0.000000)
 119:      2993.28    0.000000  (  0.000000   0.000000   0.000000)
 120:      2996.50    0.000000  (  0.000000   0.000000   0.000000)
 121:      2999.21    0.000000  (  0.000000   0.000000   0.000000)
 122:      3048.39    0.000000  (  0.000000   0.000000   0.000000)
 123:      3055.86    0.000000  (  0.000000   0.000000   0.000000)
 124:      3062.40    0.000000  (  0.000000   0.000000   0.000000)
 125:      3071.70    0.000000  (  0.000000   0.000000   0.000000)
 126:      3086.85    0.000000  (  0.000000   0.000000   0.000000)
 127:      3326.43    0.000000  (  0.000000   0.000000   0.000000)
 128:      3400.97    0.000000  (  0.000000   0.000000   0.000000)

The first frequency considered to be a vibration is 6
The total number of vibrations considered is 123


--------------------------
THERMOCHEMISTRY AT 298.15K
--------------------------

Temperature         ... 298.15 K
Pressure            ... 1.00 atm
Total Mass          ... 234.39 AMU

Throughout the following assumptions are being made:
  (1) The electronic state is orbitally nondegenerate
  (2) There are no thermally accessible electronically excited states
  (3) Hindered rotations indicated by low frequency modes are not
      treated as such but are treated as vibrations and this may
      cause some error
  (4) All equations used are the standard statistical mechanics
      equations for an ideal gas
  (5) All vibrations are strictly harmonic

freq.      33.70  E(vib)   ...       0.55 
freq.      35.11  E(vib)   ...       0.54 
freq.      50.97  E(vib)   ...       0.52 
freq.      58.18  E(vib)   ...       0.51 
freq.      61.11  E(vib)   ...       0.51 
freq.      67.05  E(vib)   ...       0.50 
freq.      81.04  E(vib)   ...       0.48 
freq.      87.05  E(vib)   ...       0.48 
freq.      96.88  E(vib)   ...       0.46 
freq.     113.62  E(vib)   ...       0.44 
freq.     128.17  E(vib)   ...       0.43 
freq.     144.49  E(vib)   ...       0.41 
freq.     157.38  E(vib)   ...       0.40 
freq.     160.58  E(vib)   ...       0.39 
freq.     203.57  E(vib)   ...       0.35 
freq.     215.90  E(vib)   ...       0.34 
freq.     263.68  E(vib)   ...       0.29 
freq.     264.64  E(vib)   ...       0.29 
freq.     270.04  E(vib)   ...       0.29 
freq.     282.86  E(vib)   ...       0.28 
freq.     367.96  E(vib)   ...       0.21 
freq.     377.39  E(vib)   ...       0.21 
freq.     381.10  E(vib)   ...       0.21 
freq.     391.41  E(vib)   ...       0.20 
freq.     427.52  E(vib)   ...       0.18 
freq.     434.32  E(vib)   ...       0.17 
freq.     462.94  E(vib)   ...       0.16 
freq.     509.18  E(vib)   ...       0.14 
freq.     588.44  E(vib)   ...       0.10 
freq.     624.33  E(vib)   ...       0.09 
freq.     665.53  E(vib)   ...       0.08 
freq.     758.11  E(vib)   ...       0.06 
freq.     760.62  E(vib)   ...       0.06 
freq.     772.19  E(vib)   ...       0.05 
freq.     815.31  E(vib)   ...       0.05 
freq.     822.89  E(vib)   ...       0.05 
freq.     857.55  E(vib)   ...       0.04 
freq.     878.96  E(vib)   ...       0.04 
freq.     903.96  E(vib)   ...       0.03 
freq.     917.38  E(vib)   ...       0.03 
freq.     922.84  E(vib)   ...       0.03 
freq.     932.47  E(vib)   ...       0.03 
freq.     935.01  E(vib)   ...       0.03 
freq.     940.65  E(vib)   ...       0.03 
freq.     941.33  E(vib)   ...       0.03 
freq.     952.25  E(vib)   ...       0.03 
freq.     973.40  E(vib)   ...       0.03 
freq.     983.36  E(vib)   ...       0.02 
freq.    1017.73  E(vib)   ...       0.02 
freq.    1019.47  E(vib)   ...       0.02 
freq.    1059.20  E(vib)   ...       0.02 
freq.    1068.40  E(vib)   ...       0.02 
freq.    1071.76  E(vib)   ...       0.02 
freq.    1084.61  E(vib)   ...       0.02 
freq.    1099.88  E(vib)   ...       0.02 
freq.    1104.48  E(vib)   ...       0.02 
freq.    1116.42  E(vib)   ...       0.01 
freq.    1126.03  E(vib)   ...       0.01 
freq.    1136.96  E(vib)   ...       0.01 
freq.    1143.89  E(vib)   ...       0.01 
freq.    1178.91  E(vib)   ...       0.01 
freq.    1187.28  E(vib)   ...       0.01 
freq.    1206.60  E(vib)   ...       0.01 
freq.    1209.40  E(vib)   ...       0.01 
freq.    1217.66  E(vib)   ...       0.01 
freq.    1251.10  E(vib)   ...       0.01 
freq.    1262.33  E(vib)   ...       0.01 
freq.    1268.43  E(vib)   ...       0.01 
freq.    1271.19  E(vib)   ...       0.01 
freq.    1275.84  E(vib)   ...       0.01 
freq.    1276.66  E(vib)   ...       0.01 
freq.    1280.33  E(vib)   ...       0.01 
freq.    1293.13  E(vib)   ...       0.01 
freq.    1311.93  E(vib)   ...       0.01 
freq.    1323.78  E(vib)   ...       0.01 
freq.    1334.41  E(vib)   ...       0.01 
freq.    1355.16  E(vib)   ...       0.01 
freq.    1367.91  E(vib)   ...       0.01 
freq.    1371.26  E(vib)   ...       0.01 
freq.    1422.73  E(vib)   ...       0.00 
freq.    1427.16  E(vib)   ...       0.00 
freq.    1429.16  E(vib)   ...       0.00 
freq.    1454.07  E(vib)   ...       0.00 
freq.    1473.45  E(vib)   ...       0.00 
freq.    1495.23  E(vib)   ...       0.00 
freq.    1498.07  E(vib)   ...       0.00 
freq.    1501.50  E(vib)   ...       0.00 
freq.    1505.05  E(vib)   ...       0.00 
freq.    1505.53  E(vib)   ...       0.00 
freq.    1509.04  E(vib)   ...       0.00 
freq.    1510.97  E(vib)   ...       0.00 
freq.    1512.23  E(vib)   ...       0.00 
freq.    1516.15  E(vib)   ...       0.00 
freq.    1560.02  E(vib)   ...       0.00 
freq.    1566.09  E(vib)   ...       0.00 
freq.    1566.91  E(vib)   ...       0.00 
freq.    1669.44  E(vib)   ...       0.00 
freq.    2855.78  E(vib)   ...       0.00 
freq.    2877.71  E(vib)   ...       0.00 
freq.    2932.47  E(vib)   ...       0.00 
freq.    2940.61  E(vib)   ...       0.00 
freq.    2941.08  E(vib)   ...       0.00 
freq.    2943.10  E(vib)   ...       0.00 
freq.    2946.92  E(vib)   ...       0.00 
freq.    2959.07  E(vib)   ...       0.00 
freq.    2962.97  E(vib)   ...       0.00 
freq.    2966.46  E(vib)   ...       0.00 
freq.    2968.31  E(vib)   ...       0.00 
freq.    2977.37  E(vib)   ...       0.00 
freq.    2979.63  E(vib)   ...       0.00 
freq.    2982.16  E(vib)   ...       0.00 
freq.    2984.96  E(vib)   ...       0.00 
freq.    2985.78  E(vib)   ...       0.00 
freq.    2993.28  E(vib)   ...       0.00 
freq.    2996.50  E(vib)   ...       0.00 
freq.    2999.21  E(vib)   ...       0.00 
freq.    3048.39  E(vib)   ...       0.00 
freq.    3055.86  E(vib)   ...       0.00 
freq.    3062.40  E(vib)   ...       0.00 
freq.    3071.70  E(vib)   ...       0.00 
freq.    3086.85  E(vib)   ...       0.00 
freq.    3326.43  E(vib)   ...       0.00 
freq.    3400.97  E(vib)   ...       0.00 

------------
INNER ENERGY
------------

The inner energy is: U= E(el) + E(ZPE) + E(vib) + E(rot) + E(trans)
    E(el)   - is the total energy from the electronic structure calculation
              = E(kin-el) + E(nuc-el) + E(el-el) + E(nuc-nuc)
    E(ZPE)  - the the zero temperature vibrational energy from the frequency calculation
    E(vib)  - the the finite temperature correction to E(ZPE) due to population
              of excited vibrational states
    E(rot)  - is the rotational thermal energy
    E(trans)- is the translational thermal energy

Summary of contributions to the inner energy U:
Electronic energy                ...    -51.21086548 Eh
Zero point energy                ...      0.37757296 Eh     236.93 kcal/mol
Thermal vibrational correction   ...      0.01793768 Eh      11.26 kcal/mol
Thermal rotational correction    ...      0.00141627 Eh       0.89 kcal/mol
Thermal translational correction ...      0.00141627 Eh       0.89 kcal/mol
-----------------------------------------------------------------------
Total thermal energy                    -50.81252230 Eh


Summary of corrections to the electronic energy:
(perhaps to be used in another calculation)
Total thermal correction                  0.02077022 Eh      13.03 kcal/mol
Non-thermal (ZPE) correction              0.37757296 Eh     236.93 kcal/mol
-----------------------------------------------------------------------
Total correction                          0.39834318 Eh     249.96 kcal/mol


--------
ENTHALPY
--------

The enthalpy is H = U + kB*T
                kB is Boltzmann's constant
Total free energy                 ...    -50.81252230 Eh 
Thermal Enthalpy correction       ...      0.00094421 Eh       0.59 kcal/mol
-----------------------------------------------------------------------
Total Enthalpy                    ...    -50.81157809 Eh


Note: Only C1 symmetry has been detected, increase convergence thresholds 
      if your molecule has a higher symmetry. Symmetry factor of 1.0 is   
      used for the rotational entropy correction. 
 

Note: Rotational entropy computed according to Herzberg 
Infrared and Raman Spectra, Chapter V,1, Van Nostrand Reinhold, 1945 
Point Group:  C1, Symmetry Number:   1  
Rotational constants in cm-1:     0.023804     0.006078     0.005084 

Vibrational entropy computed according to the QRRHO of S. Grimme
Chem.Eur.J. 2012 18 9955


-------
ENTROPY
-------

The entropy contributions are T*S = T*(S(el)+S(vib)+S(rot)+S(trans))
     S(el)   - electronic entropy
     S(vib)  - vibrational entropy
     S(rot)  - rotational entropy
     S(trans)- translational entropy
The entropies will be listed as mutliplied by the temperature to get
units of energy

Electronic entropy                ...      0.00000000 Eh      0.00 kcal/mol
Vibrational entropy               ...      0.03256638 Eh     20.44 kcal/mol
Rotational entropy                ...      0.01617796 Eh     10.15 kcal/mol
Translational entropy             ...      0.02007763 Eh     12.60 kcal/mol
-----------------------------------------------------------------------
Final entropy term                ...      0.06882197 Eh     43.19 kcal/mol

In case the symmetry of your molecule has not been determined correctly
or in case you have a reason to use a different symmetry number we print 
out the resulting rotational entropy values for sn=1,12 :
 --------------------------------------------------------
|  sn= 1 | S(rot)=       0.01617796 Eh     10.15 kcal/mol|
|  sn= 2 | S(rot)=       0.01552350 Eh      9.74 kcal/mol|
|  sn= 3 | S(rot)=       0.01514067 Eh      9.50 kcal/mol|
|  sn= 4 | S(rot)=       0.01486904 Eh      9.33 kcal/mol|
|  sn= 5 | S(rot)=       0.01465836 Eh      9.20 kcal/mol|
|  sn= 6 | S(rot)=       0.01448621 Eh      9.09 kcal/mol|
|  sn= 7 | S(rot)=       0.01434067 Eh      9.00 kcal/mol|
|  sn= 8 | S(rot)=       0.01421459 Eh      8.92 kcal/mol|
|  sn= 9 | S(rot)=       0.01410338 Eh      8.85 kcal/mol|
|  sn=10 | S(rot)=       0.01400390 Eh      8.79 kcal/mol|
|  sn=11 | S(rot)=       0.01391391 Eh      8.73 kcal/mol|
|  sn=12 | S(rot)=       0.01383176 Eh      8.68 kcal/mol|
 --------------------------------------------------------


-------------------
GIBBS FREE ENERGY
-------------------

The Gibbs free energy is G = H - T*S

Total enthalpy                    ...    -50.81157809 Eh 
Total entropy correction          ...     -0.06882197 Eh    -43.19 kcal/mol
-----------------------------------------------------------------------
Final Gibbs free energy         ...    -50.88040006 Eh

For completeness - the Gibbs free energy minus the electronic energy
G-E(el)                           ...      0.33046542 Eh    207.37 kcal/mol


Total Time for Numerical Frequencies  :       154.644 sec
Time for Reference State(s)           :         0.245 sec
Time for Displacements                :       138.267 sec

Timings for individual modules:

Sum of individual times         ...        0.433 sec (=   0.007 min)
XTB module                      ...        0.433 sec (=   0.007 min) 100.0 %
                             ****ORCA TERMINATED NORMALLY****
TOTAL RUN TIME: 0 days 0 hours 2 minutes 35 seconds 582 msec
(SLURM) EXECUTION TIME: 155.628359177 seconds.
