SLURM_JOB_ID=113

                                 *****************
                                 * O   R   C   A *
                                 *****************

           --- An Ab Initio, DFT and Semiempirical electronic structure package ---

                  #######################################################
                  #                        -***-                        #
                  #          Department of theory and spectroscopy      #
                  #               Directorship: Frank Neese             #
                  #        Max Planck Institute fuer Kohlenforschung    #
                  #                Kaiser Wilhelm Platz 1               #
                  #                 D-45470 Muelheim/Ruhr               #
                  #                      Germany                        #
                  #                                                     #
                  #                  All rights reserved                #
                  #                        -***-                        #
                  #######################################################


                         Program Version 4.2.1 -  RELEASE  -


 With contributions from (in alphabetic order):
   Daniel Aravena         : Magnetic Suceptibility
   Michael Atanasov       : Ab Initio Ligand Field Theory (pilot matlab implementation)
   Alexander A. Auer      : GIAO ZORA, VPT2
   Ute Becker             : Parallelization
   Giovanni Bistoni       : ED, misc. LED, open-shell LED, HFLD
   Martin Brehm           : Molecular dynamics
   Dmytro Bykov           : SCF Hessian
   Vijay G. Chilkuri      : MRCI spin determinant printing, contributions to CSF-ICE
   Dipayan Datta          : RHF DLPNO-CCSD density
   Achintya Kumar Dutta   : EOM-CC, STEOM-CC
   Dmitry Ganyushin       : Spin-Orbit,Spin-Spin,Magnetic field MRCI
   Miquel Garcia          : C-PCM Hessian, Gaussian charge scheme
   Yang Guo               : DLPNO-NEVPT2, CIM, IAO-localization
   Andreas Hansen         : Spin unrestricted coupled pair/coupled cluster methods
   Benjamin Helmich-Paris : CASSCF linear response (MC-RPA)
   Lee Huntington         : MR-EOM, pCC
   Robert Izsak           : Overlap fitted RIJCOSX, COSX-SCS-MP3, EOM
   Christian Kollmar      : KDIIS, OOCD, Brueckner-CCSD(T), CCSD density
   Simone Kossmann        : Meta GGA functionals, TD-DFT gradient, OOMP2, MP2 Hessian
   Martin Krupicka        : AUTO-CI
   Lucas Lang             : DCDCAS
   Dagmar Lenk            : GEPOL surface, SMD
   Dimitrios Liakos       : Extrapolation schemes; Compound Job, initial MDCI parallelization
   Dimitrios Manganas     : Further ROCIS development; embedding schemes
   Dimitrios Pantazis     : SARC Basis sets
   Taras Petrenko         : DFT Hessian,TD-DFT gradient, ASA, ECA, R-Raman, ABS, FL, XAS/XES, NRVS
   Peter Pinski           : DLPNO-MP2, DLPNO-MP2 Gradient
   Christoph Reimann      : Effective Core Potentials
   Marius Retegan         : Local ZFS, SOC
   Christoph Riplinger    : Optimizer, TS searches, QM/MM, DLPNO-CCSD(T), (RO)-DLPNO pert. Triples
   Tobias Risthaus        : Range-separated hybrids, TD-DFT gradient, RPA, STAB
   Michael Roemelt        : Original ROCIS implementation
   Masaaki Saitow         : Open-shell DLPNO-CCSD energy and density
   Barbara Sandhoefer     : DKH picture change effects
   Avijit Sen             : IP-ROCIS
   Kantharuban Sivalingam : CASSCF convergence, NEVPT2, FIC-MRCI
   Bernardo de Souza      : ESD, SOC TD-DFT
   Georgi Stoychev        : AutoAux, RI-MP2 NMR
   Willem Van den Heuvel  : Paramagnetic NMR
   Boris Wezisla          : Elementary symmetry handling
   Frank Wennmohs         : Technical directorship


 We gratefully acknowledge several colleagues who have allowed us to
 interface, adapt or use parts of their codes:
   Stefan Grimme, W. Hujo, H. Kruse,             : VdW corrections, initial TS optimization,
                  C. Bannwarth                     DFT functionals, gCP, sTDA/sTD-DF
   Ed Valeev, F. Pavosevic, A. Kumar             : LibInt (2-el integral package), F12 methods
   Garnet Chan, S. Sharma, J. Yang, R. Olivares  : DMRG
   Ulf Ekstrom                                   : XCFun DFT Library
   Mihaly Kallay                                 : mrcc  (arbitrary order and MRCC methods)
   Andreas Klamt, Michael Diedenhofen            : otool_cosmo (COSMO solvation model)
   Jiri Pittner, Ondrej Demel                    : Mk-CCSD
   Frank Weinhold                                : gennbo (NPA and NBO analysis)
   Christopher J. Cramer and Donald G. Truhlar   : smd solvation model
   Lars Goerigk                                  : TD-DFT with DH, B97 family of functionals
   V. Asgeirsson, H. Jonsson                     : NEB implementation
   FAccTs GmbH                                   : IRC, NEB, NEB-TS, Multilevel, MM, QM/MM, CI optimization
   S Lehtola, MJT Oliveira, MAL Marques          : LibXC Library


 Your calculation uses the libint2 library for the computation of 2-el integrals
 For citations please refer to: http://libint.valeyev.net

 Your ORCA version has been built with support for libXC version: 4.2.3
 For citations please refer to: https://tddft.org/programs/libxc/

 This ORCA versions uses:
   CBLAS   interface :  Fast vector & matrix operations
   LAPACKE interface :  Fast linear algebra routines
   SCALAPACK package :  Parallel linear algebra routines




***************************************
The coordinates will be read from file: init.xyz
***************************************


Your calculation utilizes the atom-pairwise dispersion correction
based on tight binding partial charges (D4)
Cite in your paper:
E.Caldeweyher, C.Bannwarth, S.Grimme, J.Chem.Phys., (2017), 147, 034112.
E.Caldeweyher, S.Ehlert, A.Hansen, H.Neugebauer, S.Grimme, J.Chem.Phys., (2018), in progress.
   

Your calculation utilizes the SMD solvation module
Please cite in your paper:
A.V. Marenich, C.J. Cramer, D.G. Truhlar J. Phys. Chem. B, 113, (2009), 6378 

----- Orbital basis set information -----
Your calculation utilizes the basis: def2-TZVP
   F. Weigend and R. Ahlrichs, Phys. Chem. Chem. Phys. 7, 3297 (2005).

----- AuxJ basis set information -----
Your calculation utilizes the auxiliary basis: def2/J
   F. Weigend, Phys. Chem. Chem. Phys. 8, 1057 (2006).

================================================================================
                                        WARNINGS
                       Please study these warnings very carefully!
================================================================================


WARNING: Geometry Optimization
  ===> : Switching off AutoStart
         For restart on a previous wavefunction, please use MOREAD

INFO   : the flag for use of LIBINT has been found!

================================================================================
                                       INPUT FILE
================================================================================
NAME = /tmp/slurm-scratch/opt+freq.113/opt+freq.inp
|  1> ! BLYP D4 def2-TZVP RI def2/J Opt Freq TightSCF Grid4 FinalGrid5 PrintBasis PrintMOs
|  2> %maxcore 1150
|  3> 
|  4> * xyzfile 0 1 init.xyz
|  5> 
|  6> %cpcm
|  7>  smd true
|  8>  smdsolvent "dichloromethane"
|  9> end
| 10> 
| 11> %geom
| 12>  maxiter 30
| 13>  trust 0.2
| 14>  inhess read
| 15>  inhessname "freq.hess"
| 16> end
| 17> %pal nprocs 11 end
| 18> 
| 19>                          ****END OF INPUT****
================================================================================

                       *****************************
                       * Geometry Optimization Run *
                       *****************************

Geometry optimization settings:
Update method            Update   .... BFGS
Choice of coordinates    CoordSys .... Z-matrix Internals
Initial Hessian          InHess   .... Read

Convergence Tolerances:
Energy Change            TolE     ....  5.0000e-06 Eh
Max. Gradient            TolMAXG  ....  3.0000e-04 Eh/bohr
RMS Gradient             TolRMSG  ....  1.0000e-04 Eh/bohr
Max. Displacement        TolMAXD  ....  4.0000e-03 bohr
RMS Displacement         TolRMSD  ....  2.0000e-03 bohr
Strict Convergence                ....  False
------------------------------------------------------------------------------
                        ORCA OPTIMIZATION COORDINATE SETUP
------------------------------------------------------------------------------

The optimization will be done in new redundant internal coordinates
Making redundant internal coordinates   ...  (new redundants) done
Evaluating the initial hessian          ... (Reading Exact Hessian)...  
InHessName: freq.hess	The file <freq.hess> is opened as a .hess file
done
done
Diagonalizing the Hessian               .... done
Dimension of the hessian                .... 63
Lowest eigenvalues of the non projected Hessian:
 -0.000000000 -0.000000000 -0.000000000 -0.000000000 -0.000000000
done
Evaluating the coordinates              ...  done
Calculating the B-matrix                .... done
Calculating the G-matrix                .... done
Diagonalizing the G-matrix              .... done
The first mode is                       ....   27
The number of degrees of freedom        ....   36

    -----------------------------------------------------------------
                    Redundant Internal Coordinates


    -----------------------------------------------------------------
         Definition                    Initial Value    d2E/dq (diagonal element)
    -----------------------------------------------------------------
      1. B(C   1,C   0)                  1.3961         0.399282   
      2. B(C   2,C   1)                  1.3887         0.407128   
      3. B(C   3,C   2)                  1.3910         0.402471   
      4. B(C   4,C   3)                  1.3954         0.392809   
      5. B(C   5,C   4)                  1.3846         0.415440   
      6. B(C   5,C   0)                  1.3989         0.391605   
      7. B(H   6,C   1)                  1.0829         0.330941   
      8. B(H   7,C   2)                  1.0814         0.334847   
      9. B(H   8,C   3)                  1.0819         0.333988   
     10. B(H   9,C   4)                  1.0816         0.334427   
     11. B(H  10,C   5)                  1.0814         0.336156   
     12. B(C  11,C   0)                  1.4716         0.316532   
     13. B(O  12,C  11)                  1.2146         0.769062   
     14. B(H  13,C  11)                  1.1057         0.277532   
     15. A(C   1,C   0,C  11)          118.9990         0.108602   
     16. A(C   5,C   0,C  11)          121.0616         0.102812   
     17. A(C   1,C   0,C   5)          119.9394         0.075231   
     18. A(C   0,C   1,H   6)          119.4783         0.074023   
     19. A(C   2,C   1,H   6)          120.3986         0.074773   
     20. A(C   0,C   1,C   2)          120.1231         0.073466   
     21. A(C   3,C   2,H   7)          120.1365         0.074243   
     22. A(C   1,C   2,H   7)          120.1686         0.074398   
     23. A(C   1,C   2,C   3)          119.6949         0.073348   
     24. A(C   2,C   3,C   4)          120.4000         0.073590   
     25. A(C   4,C   3,H   8)          119.7611         0.074652   
     26. A(C   2,C   3,H   8)          119.8389         0.074631   
     27. A(C   5,C   4,H   9)          120.1082         0.074508   
     28. A(C   3,C   4,H   9)          119.9138         0.074513   
     29. A(C   3,C   4,C   5)          119.9780         0.073256   
     30. A(C   0,C   5,H  10)          119.1133         0.072706   
     31. A(C   0,C   5,C   4)          119.8646         0.073417   
     32. A(C   4,C   5,H  10)          121.0221         0.072171   
     33. A(O  12,C  11,H  13)          120.4159         0.111432   
     34. A(C   0,C  11,H  13)          114.5858         0.094783   
     35. A(C   0,C  11,O  12)          124.9984         0.133424   
     36. D(H   6,C   1,C   0,C   5)   -179.9911         0.006929   
     37. D(C   2,C   1,C   0,C   5)     -0.0003         0.006481   
     38. D(C   2,C   1,C   0,C  11)    179.9983         0.006555   
     39. D(H   6,C   1,C   0,C  11)      0.0075         0.006614   
     40. D(C   3,C   2,C   1,C   0)      0.0061         0.007531   
     41. D(C   3,C   2,C   1,H   6)    179.9968         0.007935   
     42. D(H   7,C   2,C   1,H   6)      0.0334         0.008240   
     43. D(H   7,C   2,C   1,C   0)   -179.9574         0.008153   
     44. D(H   8,C   3,C   2,H   7)     -0.0296         0.008312   
     45. D(H   8,C   3,C   2,C   1)   -179.9930         0.008086   
     46. D(C   4,C   3,C   2,H   7)    179.9592         0.008060   
     47. D(C   4,C   3,C   2,C   1)     -0.0043         0.007619   
     48. D(H   9,C   4,C   3,C   2)    179.9913         0.008084   
     49. D(C   5,C   4,C   3,H   8)    179.9854         0.007969   
     50. D(C   5,C   4,C   3,C   2)     -0.0033         0.007606   
     51. D(H   9,C   4,C   3,H   8)     -0.0200         0.008353   
     52. D(H  10,C   5,C   4,H   9)     -0.0022         0.008324   
     53. D(C   0,C   5,C   4,H   9)   -179.9855         0.008320   
     54. D(C   0,C   5,C   4,C   3)      0.0091         0.007429   
     55. D(H  10,C   5,C   0,C  11)      0.0105         0.006729   
     56. D(H  10,C   5,C   0,C   1)   -179.9910         0.006874   
     57. D(H  10,C   5,C   4,C   3)    179.9924         0.008008   
     58. D(C   4,C   5,C   0,C  11)    179.9941         0.006497   
     59. D(C   4,C   5,C   0,C   1)     -0.0073         0.006410   
     60. D(H  13,C  11,C   0,C   5)   -179.9398         0.016724   
     61. D(H  13,C  11,C   0,C   1)      0.0616         0.017563   
     62. D(O  12,C  11,C   0,C   5)      0.0578         0.019045   
     63. D(O  12,C  11,C   0,C   1)   -179.9408         0.017914   
    -----------------------------------------------------------------

Number of atoms                         .... 14
Number of degrees of freedom            .... 63

         *************************************************************
         *                GEOMETRY OPTIMIZATION CYCLE   1            *
         *************************************************************
---------------------------------
CARTESIAN COORDINATES (ANGSTROEM)
---------------------------------
  C     -1.698560    0.070127    0.000050
  C     -0.302522    0.061252    0.000524
  C      0.402052    1.257984   -0.000024
  C     -0.289629    2.464862   -0.000919
  C     -1.684985    2.479043   -0.001357
  C     -2.388995    1.286740   -0.000972
  H      0.224354   -0.884809    0.001169
  H      1.483472    1.251967   -0.000354
  H      0.256933    3.398567   -0.001461
  H     -2.214817    3.421977   -0.001910
  H     -3.470343    1.278023   -0.001179
  C     -2.420147   -1.212409    0.000611
  O     -3.628868   -1.331675   -0.000747
  H     -1.769443   -2.106350    0.002469

----------------------------
CARTESIAN COORDINATES (A.U.)
----------------------------
  NO LB      ZA    FRAG     MASS         X           Y           Z
   0 C     6.0000    0    12.011   -3.209814    0.132521    0.000095
   1 C     6.0000    0    12.011   -0.571683    0.115750    0.000990
   2 C     6.0000    0    12.011    0.759768    2.377246   -0.000046
   3 C     6.0000    0    12.011   -0.547320    4.657915   -0.001736
   4 C     6.0000    0    12.011   -3.184159    4.684712   -0.002565
   5 C     6.0000    0    12.011   -4.514547    2.431586   -0.001836
   6 H     1.0000    0     1.008    0.423967   -1.672046    0.002210
   7 H     1.0000    0     1.008    2.803356    2.365875   -0.000669
   8 H     1.0000    0     1.008    0.485532    6.422360   -0.002761
   9 H     1.0000    0     1.008   -4.185398    6.466600   -0.003610
  10 H     1.0000    0     1.008   -6.557998    2.415113   -0.002228
  11 C     6.0000    0    12.011   -4.573416   -2.291121    0.001154
  12 O     8.0000    0    15.999   -6.857566   -2.516501   -0.001412
  13 H     1.0000    0     1.008   -3.343764   -3.980426    0.004666

--------------------------------
INTERNAL COORDINATES (ANGSTROEM)
--------------------------------
 C      0   0   0     0.000000000000     0.00000000     0.00000000
 C      1   0   0     1.396066606969     0.00000000     0.00000000
 C      2   1   0     1.388737235357   120.12313383     0.00000000
 C      3   2   1     1.391035148543   119.69492073     0.00000000
 C      4   3   2     1.395427165419   120.39996631     0.00000000
 C      5   4   3     1.384636226124   119.97802132     0.00000000
 H      2   1   3     1.082880243008   119.47831122   180.00914568
 H      3   2   1     1.081437098270   120.16859212   180.04262904
 H      4   3   2     1.081912311821   119.83889656   180.00698698
 H      5   4   3     1.081595473026   119.91376647   179.99128568
 H      6   5   4     1.081383123307   121.02212572   179.99241714
 C      1   2   3     1.471593322123   118.99897006   179.99830551
 O     12   1   2     1.214590843665   124.99836924   180.05918333
 H     12   1   2     1.105690149169   114.58575978     0.06162938

---------------------------
INTERNAL COORDINATES (A.U.)
---------------------------
 C      0   0   0     0.000000000000     0.00000000     0.00000000
 C      1   0   0     2.638183551884     0.00000000     0.00000000
 C      2   1   0     2.624333046804   120.12313383     0.00000000
 C      3   2   1     2.628675473404   119.69492073     0.00000000
 C      4   3   2     2.636975182477   120.39996631     0.00000000
 C      5   4   3     2.616583262481   119.97802132     0.00000000
 H      2   1   3     2.046347095120   119.47831122   180.00914568
 H      3   2   1     2.043619946793   120.16859212   180.04262904
 H      4   3   2     2.044517970259   119.83889656   180.00698698
 H      5   4   3     2.043919231709   119.91376647   179.99128568
 H      6   5   4     2.043517948895   121.02212572   179.99241714
 C      1   2   3     2.780908359319   118.99897006   179.99830551
 O     12   1   2     2.295244059295   124.99836924   180.05918333
 H     12   1   2     2.089451570903   114.58575978     0.06162938

---------------------
BASIS SET INFORMATION
---------------------
There are 3 groups of distinct atoms

 Group   1 Type C   : 11s6p2d1f contracted to 5s3p2d1f pattern {62111/411/11/1}
 Group   2 Type H   : 5s1p contracted to 3s1p pattern {311/1}
 Group   3 Type O   : 11s6p2d1f contracted to 5s3p2d1f pattern {62111/411/11/1}

Atom   0C    basis set group =>   1
Atom   1C    basis set group =>   1
Atom   2C    basis set group =>   1
Atom   3C    basis set group =>   1
Atom   4C    basis set group =>   1
Atom   5C    basis set group =>   1
Atom   6H    basis set group =>   2
Atom   7H    basis set group =>   2
Atom   8H    basis set group =>   2
Atom   9H    basis set group =>   2
Atom  10H    basis set group =>   2
Atom  11C    basis set group =>   1
Atom  12O    basis set group =>   3
Atom  13H    basis set group =>   2

-------------------------
BASIS SET IN INPUT FORMAT
-------------------------

 # Basis set for element : H 
 NewGTO H 
 S 3 
   1      34.0613410000      0.0254393072
   2       5.1235746000      0.1900859489
   3       1.1646626000      0.8524411301
 S 1 
   1       0.3272304100      1.0000000000
 S 1 
   1       0.1030724100      1.0000000000
 P 1 
   1       0.8000000000      1.0000000000
  end;

 # Basis set for element : C 
 NewGTO C 
 S 6 
   1   13575.3496820000      0.0006064549
   2    2035.2333680000      0.0046979088
   3     463.2256235900      0.0243324776
   4     131.2001959800      0.0973999683
   5      42.8530158910      0.3019558425
   6      15.5841857660      0.6623360915
 S 2 
   1       6.2067138508      0.6559530854
   2       2.5764896527      0.3758563329
 S 1 
   1       0.5769633942      1.0000000000
 S 1 
   1       0.2297283136      1.0000000000
 S 1 
   1       0.0951644400      1.0000000000
 P 4 
   1      34.6972322440      0.0113272200
   2       7.9582622826      0.0761696592
   3       2.3780826883      0.3019225220
   4       0.8143320818      0.7278502735
 P 1 
   1       0.2888754725      1.0000000000
 P 1 
   1       0.1005682367      1.0000000000
 D 1 
   1       1.0970000000      1.0000000000
 D 1 
   1       0.3180000000      1.0000000000
 F 1 
   1       0.7610000000      1.0000000000
  end;

 # Basis set for element : O 
 NewGTO O 
 S 6 
   1   27032.3826310000      0.0005722733
   2    4052.3871392000      0.0044353233
   3     922.3272271000      0.0230201076
   4     261.2407098900      0.0928224906
   5      85.3546413510      0.2937850002
   6      31.0350352450      0.6740160450
 S 2 
   1      12.2608607280      0.6383993702
   2       4.9987076005      0.3953458713
 S 1 
   1       1.1703108158      1.0000000000
 S 1 
   1       0.4647474099      1.0000000000
 S 1 
   1       0.1850453636      1.0000000000
 P 4 
   1      63.2749548010      0.0120183321
   2      14.6270493790      0.0830054217
   3       4.4501223456      0.3199174393
   4       1.5275799647      0.7071554292
 P 1 
   1       0.5293511794      1.0000000000
 P 1 
   1       0.1747842127      1.0000000000
 D 1 
   1       2.3140000000      1.0000000000
 D 1 
   1       0.6450000000      1.0000000000
 F 1 
   1       1.4280000000      1.0000000000
  end;

---------------------------------
AUXILIARY/J BASIS SET INFORMATION
---------------------------------
There are 3 groups of distinct atoms

 Group   1 Type C   : 12s5p4d2f1g contracted to 6s4p3d1f1g pattern {711111/2111/211/2/1}
 Group   2 Type H   : 5s2p1d contracted to 3s1p1d pattern {311/2/1}
 Group   3 Type O   : 12s5p4d2f1g contracted to 6s4p3d1f1g pattern {711111/2111/211/2/1}

Atom   0C    basis set group =>   1
Atom   1C    basis set group =>   1
Atom   2C    basis set group =>   1
Atom   3C    basis set group =>   1
Atom   4C    basis set group =>   1
Atom   5C    basis set group =>   1
Atom   6H    basis set group =>   2
Atom   7H    basis set group =>   2
Atom   8H    basis set group =>   2
Atom   9H    basis set group =>   2
Atom  10H    basis set group =>   2
Atom  11C    basis set group =>   1
Atom  12O    basis set group =>   3
Atom  13H    basis set group =>   2

-------------------------------------
AUXILIARY/J BASIS SET IN INPUT FORMAT
-------------------------------------

 # Auxiliary/J basis set for element : H 
 NewAuxJGTO H 
 S 3 
   1      15.6752927000      0.1007184237
   2       3.6063578000      0.3404257499
   3       1.2080016000      0.6491996172
 S 1 
   1       0.4726794000      1.0000000000
 S 1 
   1       0.2018100000      1.0000000000
 P 2 
   1       2.0281365000      0.5596620919
   2       0.5358730000      0.5596620919
 D 1 
   1       2.2165124000      1.0000000000
  end;

 # Auxiliary/J basis set for element : C 
 NewAuxJGTO C 
 S 7 
   1    1861.0916331000      0.0134602335
   2     642.9939764000      0.0299160374
   3     235.1105725000      0.1008649584
   4      90.7028894000      0.2370970548
   5      36.7794552000      0.3924037254
   6      15.6046273000      0.3195862154
   7       6.8907294000      0.0530104441
 S 1 
   1       3.1478850000     -1.0000000000
 S 1 
   1       1.4777287000      1.0000000000
 S 1 
   1       0.7076466000      1.0000000000
 S 1 
   1       0.3430122000      1.0000000000
 S 1 
   1       0.1669453000      1.0000000000
 P 2 
   1      13.5472892000     -0.6769313712
   2       5.4669419000     -0.3779500978
 P 1 
   1       2.1751721000      1.0000000000
 P 1 
   1       0.8582194000      1.0000000000
 P 1 
   1       0.3376720000      1.0000000000
 D 2 
   1       5.9287253000     -0.3533329857
   2       1.9809209000     -0.7456525731
 D 1 
   1       0.8055417000     -1.0000000000
 D 1 
   1       0.3531244000     -1.0000000000
 F 2 
   1       1.6755626000      0.6311076882
   2       0.5997536000      0.4968166032
 G 1 
   1       1.0024600000     -1.0000000000
  end;

 # Auxiliary/J basis set for element : O 
 NewAuxJGTO O 
 S 7 
   1    2876.8216605000      0.0168151159
   2    1004.7443032000      0.0340137548
   3     369.7579954000      0.1194951309
   4     142.9442404000      0.2664627624
   5      57.8366425000      0.4202764046
   6      24.3864983000      0.2765077335
   7      10.6622662000      0.0057008815
 S 1 
   1       4.8070437000     -1.0000000000
 S 1 
   1       2.2210770000      1.0000000000
 S 1 
   1       1.0447795000      1.0000000000
 S 1 
   1       0.4968425000      1.0000000000
 S 1 
   1       0.2371384000      1.0000000000
 P 2 
   1      64.2613382000     -0.2731534179
   2      16.3006076000     -0.8168011598
 P 1 
   1       4.3550542000      1.0000000000
 P 1 
   1       1.2019554000      1.0000000000
 P 1 
   1       0.3354196000      1.0000000000
 D 2 
   1       9.2146611000     -0.4661230638
   2       2.8435251000     -0.6600908911
 D 1 
   1       0.9955759000     -1.0000000000
 D 1 
   1       0.3649441000     -1.0000000000
 F 2 
   1       2.6420115000      0.5931563945
   2       0.7345613000      0.5931563945
 G 1 
   1       1.3931000000     -1.0000000000
  end;



           ************************************************************
           *        Program running with 11 parallel MPI-processes    *
           *              working on a common directory               *
           ************************************************************
------------------------------------------------------------------------------
                           ORCA GTO INTEGRAL CALCULATION
                           -- RI-GTO INTEGRALS CHOSEN --
------------------------------------------------------------------------------

                         BASIS SET STATISTICS AND STARTUP INFO

Gaussian basis set:
 # of primitive gaussian shells          ...  196
 # of primitive gaussian functions       ...  416
 # of contracted shells                  ...  112
 # of contracted basis functions         ...  284
 Highest angular momentum                ...    3
 Maximum contraction depth               ...    6
Auxiliary gaussian basis set:
 # of primitive gaussian shells          ...  240
 # of primitive gaussian functions       ...  656
 # of contracted shells                  ...  150
 # of contracted aux-basis functions     ...  458
 Highest angular momentum                ...    4
 Maximum contraction depth               ...    7
Ratio of auxiliary to basis functions    ...  1.61
Integral package used                  ... LIBINT
 One Electron integrals                  ... done
 Ordering auxiliary basis shells         ... done
 Integral threshhold             Thresh  ...  2.500e-11
 Primitive cut-off               TCut    ...  2.500e-12
 Pre-screening matrix                    ... done
 Shell pair data                         ... 
 Ordering of the shell pairs             ... done (   0.001 sec) 5843 of 6328 pairs
 Determination of significant pairs      ... done (   0.000 sec)
 Creation of shell pair data             ... done (   0.001 sec)
 Storage of shell pair data              ... done (   0.061 sec)
 Shell pair data done in (   0.064 sec)
 Computing two index integrals           ... done
 Cholesky decomposition of the V-matrix  ... done


Timings:
 Total evaluation time                   ...   0.321 sec (  0.005 min)
 One electron matrix time                ...   0.046 sec (  0.001 min) = 14.3%
 Schwartz matrix evaluation time         ...   0.156 sec (  0.003 min) = 48.6%
 Two index repulsion integral time       ...   0.008 sec (  0.000 min) =  2.3%
 Cholesky decomposition of V             ...   0.031 sec (  0.001 min) =  9.5%
 Three index repulsion integral time     ...   0.000 sec (  0.000 min) =  0.0%



           ************************************************************
           *        Program running with 11 parallel MPI-processes    *
           *              working on a common directory               *
           ************************************************************
-------------------------------------------------------------------------------
                                 ORCA SCF
-------------------------------------------------------------------------------

------------
SCF SETTINGS
------------
Hamiltonian:
 Density Functional     Method          .... DFT(GTOs)
 Exchange Functional    Exchange        .... B88
   X-Alpha parameter    XAlpha          ....  0.666667
   Becke's b parameter  XBeta           ....  0.004200
 Correlation Functional Correlation     .... LYP
 Gradients option       PostSCFGGA      .... off
   Density functional embedding theory  .... OFF
   NL short-range parameter             ....  4.000000
 RI-approximation to the Coulomb term is turned on
   Number of auxiliary basis functions  .... 458


General Settings:
 Integral files         IntName         .... /tmp/slurm-scratch/opt+freq.113/opt+freq
 Hartree-Fock type      HFTyp           .... RHF
 Total Charge           Charge          ....    0
 Multiplicity           Mult            ....    1
 Number of Electrons    NEL             ....   56
 Basis Dimension        Dim             ....  284
 Nuclear Repulsion      ENuc            ....    321.7258639918 Eh

Convergence Acceleration:
 DIIS                   CNVDIIS         .... on
   Start iteration      DIISMaxIt       ....    12
   Startup error        DIISStart       ....  0.200000
   # of expansion vecs  DIISMaxEq       ....     5
   Bias factor          DIISBfac        ....   1.050
   Max. coefficient     DIISMaxC        ....  10.000
 Newton-Raphson         CNVNR           .... off
 SOSCF                  CNVSOSCF        .... on
   Start iteration      SOSCFMaxIt      ....   150
   Startup grad/error   SOSCFStart      ....  0.003300
 Level Shifting         CNVShift        .... on
   Level shift para.    LevelShift      ....    0.2500
   Turn off err/grad.   ShiftErr        ....    0.0010
 Zerner damping         CNVZerner       .... off
 Static damping         CNVDamp         .... on
   Fraction old density DampFac         ....    0.7000
   Max. Damping (<1)    DampMax         ....    0.9800
   Min. Damping (>=0)   DampMin         ....    0.0000
   Turn off err/grad.   DampErr         ....    0.1000
 Fernandez-Rico         CNVRico         .... off

SCF Procedure:
 Maximum # iterations   MaxIter         ....   125
 SCF integral mode      SCFMode         .... Direct
   Integral package                     .... LIBINT
 Reset frequency        DirectResetFreq ....    20
 Integral Threshold     Thresh          ....  2.500e-11 Eh
 Primitive CutOff       TCut            ....  2.500e-12 Eh

Convergence Tolerance:
 Convergence Check Mode ConvCheckMode   .... Total+1el-Energy
 Convergence forced     ConvForced      .... 0
 Energy Change          TolE            ....  1.000e-08 Eh
 1-El. energy change                    ....  1.000e-05 Eh
 Orbital Gradient       TolG            ....  1.000e-05
 Orbital Rotation angle TolX            ....  1.000e-05
 DIIS Error             TolErr          ....  5.000e-07


Diagonalization of the overlap matrix:
Smallest eigenvalue                        ... 8.834e-06
Time for diagonalization                   ...    0.039 sec
Threshold for overlap eigenvalues          ... 1.000e-08
Number of eigenvalues below threshold      ... 0
Time for construction of square roots      ...    0.027 sec
Total time needed                          ...    0.067 sec

-------------------
DFT GRID GENERATION
-------------------

General Integration Accuracy     IntAcc      ...  4.670
Radial Grid Type                 RadialGrid  ... Gauss-Chebyshev
Angular Grid (max. acc.)         AngularGrid ... Lebedev-302
Angular grid pruning method      GridPruning ... 3 (G Style)
Weight generation scheme         WeightScheme... Becke
Basis function cutoff            BFCut       ...    1.0000e-11
Integration weight cutoff        WCut        ...    1.0000e-14
Grids for H and He will be reduced by one unit

# of grid points (after initial pruning)     ...  70060 (   0.0 sec)
# of grid points (after weights+screening)   ...  64503 (   0.0 sec)
nearest neighbour list constructed           ...    0.0 sec
Grid point re-assignment to atoms done       ...    0.0 sec
Grid point division into batches done        ...    0.2 sec
Reduced shell lists constructed in    0.3 sec

Total number of grid points                  ...    64503
Total number of batches                      ...     1013
Average number of points per batch           ...       63
Average number of grid points per atom       ...     4607
Average number of shells per batch           ...    87.71 (78.31%)
Average number of basis functions per batch  ...   238.20 (83.87%)
Average number of large shells per batch     ...    72.81 (83.01%)
Average number of large basis fcns per batch ...   196.34 (82.43%)
Maximum spatial batch extension              ...   3.70,  4.15, 15.40 au
Average spatial batch extension              ...   0.12,  0.13,  0.18 au

Time for grid setup =    0.425 sec

------------------------------
INITIAL GUESS: MODEL POTENTIAL
------------------------------
Loading Hartree-Fock densities                     ... done
Calculating cut-offs                               ... done
Setting up the integral package                    ... done
Initializing the effective Hamiltonian             ... done
Starting the Coulomb interaction                   ... done (   0.0 sec)
Reading the grid                                   ... done
Mapping shells                                     ... done
Starting the XC term evaluation                    ... done (   0.2 sec)
  promolecular density results
     # of electrons  =     55.996864003
     EX              =    -45.943690907
     EC              =     -1.884195280
     EX+EC           =    -47.827886188
Transforming the Hamiltonian                       ... done (   0.0 sec)
Diagonalizing the Hamiltonian                      ... done (   0.0 sec)
Back transforming the eigenvectors                 ... done (   0.0 sec)
Now organizing SCF variables                       ... done
                      ------------------
                      INITIAL GUESS DONE (   0.8 sec)
                      ------------------

--------------------
CPCM SOLVATION MODEL
--------------------
CPCM parameters:
  Epsilon                                         ...       8.9300
  Refrac                                          ...       1.0000
  Rsolv                                           ...       1.3000
  Surface type                                    ...    GEPOL SES
  Epsilon function type                           ...         CPCM
Solvent:                                     ... DICHLOROMETHANE
SMD-CDS solvent descriptors:
  Soln                                       ...    1.4242
  Soln25                                     ...    1.4212
  Sola                                       ...    0.1000
  Solb                                       ...    0.0500
  Solg                                       ...   39.1500
  Solc                                       ...    0.0000
  Solh                                       ...    0.6670
Radii:
 Radius for C  used is    3.4960 Bohr (=   1.8500 Ang.)
 Radius for H  used is    2.2677 Bohr (=   1.2000 Ang.)
 Radius for O  used is    3.9949 Bohr (=   2.1140 Ang.)
Calculating surface                               ...        done! (  0.0s)
GEPOL surface points                              ...          454
GEPOL Volume                                      ...     879.8969
GEPOL Surface-area                                ...     520.5366
Calculating surface distance matrix               ...        done! (  0.0s)
Performing Cholesky decomposition & store         ...        done! (  0.0s)
Overall time for CPCM initialization              ...                 0.0s
--------------
SCF ITERATIONS
--------------
ITER       Energy         Delta-E        Max-DP      RMS-DP      [F,P]     Damp
               ***  Starting incremental Fock matrix formation  ***
  0   -345.3881678679   0.000000000000 0.40421855  0.00283959  0.2773184 0.7000
  1   -345.4876614745  -0.099493606572 0.31749283  0.00216553  0.0824088 0.7000
                               ***Turning on DIIS***
  2   -345.5193565000  -0.031695025520 0.24596074  0.00223108  0.0309985 0.0000
  3   -345.5758016667  -0.056445166679 0.27293351  0.00176947  0.0419313 0.0000
  4   -345.5872455072  -0.011443840513 0.03802120  0.00032353  0.0350152 0.0000
  5   -345.5890181735  -0.001772666236 0.02396052  0.00018345  0.0059209 0.0000
                      *** Initiating the SOSCF procedure ***
                           *** Shutting down DIIS ***
                      *** Re-Reading the Fockian *** 
                      *** Removing any level shift *** 
ITER      Energy       Delta-E        Grad      Rot      Max-DP    RMS-DP
  6   -345.58909581  -0.0000776388  0.000234  0.000234  0.003629  0.000065
               *** Restarting incremental Fock matrix formation ***
  7   -345.58910073  -0.0000049197  0.000095  0.000477  0.003460  0.000053
  8   -345.58909985   0.0000008805  0.000267  0.000336  0.000272  0.000007
  9   -345.58910132  -0.0000014659  0.000051  0.000167  0.002094  0.000015
 10   -345.58910109   0.0000002237  0.000101  0.000155  0.001431  0.000010
 11   -345.58910138  -0.0000002856  0.000015  0.000088  0.000090  0.000002
 12   -345.58910135   0.0000000269  0.000034  0.000052  0.000074  0.000001
                  ***Gradient check signals convergence***
              ***Rediagonalizing the Fockian in SOSCF/NRSCF***

               *****************************************************
               *                     SUCCESS                       *
               *           SCF CONVERGED AFTER  13 CYCLES          *
               *****************************************************

Setting up the final grid:

General Integration Accuracy     IntAcc      ...  5.010
Radial Grid Type                 RadialGrid  ... Gauss-Chebyshev
Angular Grid (max. acc.)         AngularGrid ... Lebedev-434
Angular grid pruning method      GridPruning ... 3 (G Style)
Weight generation scheme         WeightScheme... Becke
Basis function cutoff            BFCut       ...    1.0000e-11
Integration weight cutoff        WCut        ...    1.0000e-14
Grids for H and He will be reduced by one unit

# of grid points (after initial pruning)     ... 125880 (   0.0 sec)
# of grid points (after weights+screening)   ... 115675 (   0.1 sec)
nearest neighbour list constructed           ...    0.0 sec
Grid point re-assignment to atoms done       ...    0.0 sec
Grid point division into batches done        ...    0.9 sec
Reduced shell lists constructed in    1.1 sec

Total number of grid points                  ...   115675
Total number of batches                      ...     1814
Average number of points per batch           ...       63
Average number of grid points per atom       ...     8262
Average number of shells per batch           ...    86.61 (77.33%)
Average number of basis functions per batch  ...   234.54 (82.59%)
Average number of large shells per batch     ...    71.67 (82.75%)
Average number of large basis fcns per batch ...   192.86 (82.23%)
Maximum spatial batch extension              ...   3.55,  4.05, 15.50 au
Average spatial batch extension              ...   0.11,  0.11,  0.14 au

Final grid set up in    1.2 sec
Final integration                            ... done (   0.5 sec)
Change in XC energy                          ...     0.000014437
Integrated number of electrons               ...    55.999965016
Previous integrated no of electrons          ...    55.999946179

SMD CDS free energy correction energy :                -2.74713     Kcal/mol
Total Energy after SMD CDS correction =              -345.593464775 Eh

----------------
TOTAL SCF ENERGY
----------------

Total Energy       :         -345.59346477 Eh           -9404.07627 eV

Components:
Nuclear Repulsion  :          321.72586399 Eh            8754.60583 eV
Electronic Energy  :         -667.31932877 Eh          -18158.68211 eV
One Electron Energy:        -1104.44400519 Eh          -30053.44927 eV
Two Electron Energy:          437.12467643 Eh           11894.76716 eV
CPCM Dielectric    :           -0.00950443 Eh              -0.25863 eV
SMD CDS (Gcds)     :           -0.00437783 Eh              -0.11913 eV

Virial components:
Potential Energy   :         -690.12911670 Eh          -18779.36799 eV
Kinetic Energy     :          344.53565192 Eh            9375.29172 eV
Virial Ratio       :            2.00307026


DFT components:
N(Alpha)           :       27.999982507801 electrons
N(Beta)            :       27.999982507801 electrons
N(Total)           :       55.999965015602 electrons
E(X)               :      -46.859186245378 Eh       
E(C)               :       -1.899439526046 Eh       
E(XC)              :      -48.758625771424 Eh       
DFET-embed. en.    :        0.000000000000 Eh       
CPCM Solvation Model Properties:
Surface-charge          :           -0.03605827
Charge-correction       :            0.00013657 Eh               0.00372 eV
Free-energy (cav+disp)  :            0.00367635 Eh               0.10004 eV
Corrected G(solv)       :         -345.58965185 Eh           -9403.97252 eV

---------------
SCF CONVERGENCE
---------------

  Last Energy change         ...   -3.2890e-08  Tolerance :   1.0000e-08
  Last MAX-Density change    ...    2.2084e-04  Tolerance :   1.0000e-07
  Last RMS-Density change    ...    2.1065e-06  Tolerance :   5.0000e-09
  Last Orbital Gradient      ...    2.0781e-06  Tolerance :   1.0000e-05
  Last Orbital Rotation      ...    9.9665e-06  Tolerance :   1.0000e-05

             **** THE GBW FILE WAS UPDATED (/tmp/slurm-scratch/opt+freq.113/opt+freq.gbw) ****
             **** DENSITY FILE WAS UPDATED (/tmp/slurm-scratch/opt+freq.113/opt+freq.scfp) ****
             **** ENERGY FILE WAS UPDATED (/tmp/slurm-scratch/opt+freq.113/opt+freq.en.tmp) ****
             **** THE GBW FILE WAS UPDATED (/tmp/slurm-scratch/opt+freq.113/opt+freq.gbw) ****
             **** DENSITY FILE WAS UPDATED (/tmp/slurm-scratch/opt+freq.113/opt+freq.scfp) ****
----------------
ORBITAL ENERGIES
----------------

  NO   OCC          E(Eh)            E(eV) 
   0   2.0000     -18.765889      -510.6458 
   1   2.0000      -9.984730      -271.6983 
   2   2.0000      -9.918151      -269.8866 
   3   2.0000      -9.917656      -269.8731 
   4   2.0000      -9.916571      -269.8436 
   5   2.0000      -9.915027      -269.8016 
   6   2.0000      -9.912689      -269.7380 
   7   2.0000      -9.912658      -269.7371 
   8   2.0000      -0.948209       -25.8021 
   9   2.0000      -0.782234       -21.2857 
  10   2.0000      -0.690661       -18.7938 
  11   2.0000      -0.677545       -18.4369 
  12   2.0000      -0.580810       -15.8047 
  13   2.0000      -0.547818       -14.9069 
  14   2.0000      -0.507384       -13.8066 
  15   2.0000      -0.461847       -12.5675 
  16   2.0000      -0.424446       -11.5498 
  17   2.0000      -0.403893       -10.9905 
  18   2.0000      -0.384141       -10.4530 
  19   2.0000      -0.376416       -10.2428 
  20   2.0000      -0.372999       -10.1498 
  21   2.0000      -0.363663        -9.8958 
  22   2.0000      -0.323965        -8.8155 
  23   2.0000      -0.314672        -8.5627 
  24   2.0000      -0.302074        -8.2198 
  25   2.0000      -0.236286        -6.4297 
  26   2.0000      -0.233824        -6.3627 
  27   2.0000      -0.211112        -5.7447 
  28   0.0000      -0.092419        -2.5148 
  29   0.0000      -0.043576        -1.1858 
  30   0.0000       0.000464         0.0126 
  31   0.0000       0.041057         1.1172 
  32   0.0000       0.057716         1.5705 
  33   0.0000       0.073685         2.0051 
  34   0.0000       0.085990         2.3399 
  35   0.0000       0.089934         2.4472 
  36   0.0000       0.103431         2.8145 
  37   0.0000       0.114159         3.1064 
  38   0.0000       0.119060         3.2398 
  39   0.0000       0.141758         3.8574 
  40   0.0000       0.171729         4.6730 
  41   0.0000       0.178076         4.8457 
  42   0.0000       0.190123         5.1735 
  43   0.0000       0.201476         5.4824 
  44   0.0000       0.202590         5.5128 
  45   0.0000       0.207528         5.6471 
  46   0.0000       0.218665         5.9502 
  47   0.0000       0.225825         6.1450 
  48   0.0000       0.244221         6.6456 
  49   0.0000       0.264067         7.1856 
  50   0.0000       0.268599         7.3089 
  51   0.0000       0.277297         7.5456 
  52   0.0000       0.288696         7.8558 
  53   0.0000       0.294086         8.0025 
  54   0.0000       0.305365         8.3094 
  55   0.0000       0.322448         8.7743 
  56   0.0000       0.322568         8.7775 
  57   0.0000       0.334119         9.0918 
  58   0.0000       0.359921         9.7939 
  59   0.0000       0.373479        10.1629 
  60   0.0000       0.383297        10.4300 
  61   0.0000       0.388910        10.5828 
  62   0.0000       0.398118        10.8334 
  63   0.0000       0.404687        11.0121 
  64   0.0000       0.425442        11.5769 
  65   0.0000       0.433029        11.7833 
  66   0.0000       0.450351        12.2547 
  67   0.0000       0.460869        12.5409 
  68   0.0000       0.461295        12.5525 
  69   0.0000       0.466456        12.6929 
  70   0.0000       0.478625        13.0241 
  71   0.0000       0.489821        13.3287 
  72   0.0000       0.490048        13.3349 
  73   0.0000       0.509786        13.8720 
  74   0.0000       0.529051        14.3962 
  75   0.0000       0.590684        16.0733 
  76   0.0000       0.602546        16.3961 
  77   0.0000       0.619511        16.8578 
  78   0.0000       0.626486        17.0476 
  79   0.0000       0.649836        17.6829 
  80   0.0000       0.664373        18.0785 
  81   0.0000       0.684123        18.6159 
  82   0.0000       0.696361        18.9490 
  83   0.0000       0.700088        19.0504 
  84   0.0000       0.723207        19.6795 
  85   0.0000       0.730672        19.8826 
  86   0.0000       0.731669        19.9097 
  87   0.0000       0.768293        20.9063 
  88   0.0000       0.795124        21.6364 
  89   0.0000       0.798307        21.7230 
  90   0.0000       0.833180        22.6720 
  91   0.0000       0.847219        23.0540 
  92   0.0000       0.853257        23.2183 
  93   0.0000       0.862873        23.4800 
  94   0.0000       0.911828        24.8121 
  95   0.0000       0.932253        25.3679 
  96   0.0000       0.939111        25.5545 
  97   0.0000       0.957236        26.0477 
  98   0.0000       0.975505        26.5448 
  99   0.0000       1.012956        27.5639 
 100   0.0000       1.026401        27.9298 
 101   0.0000       1.059971        28.8433 
 102   0.0000       1.071549        29.1583 
 103   0.0000       1.122900        30.5557 
 104   0.0000       1.153411        31.3859 
 105   0.0000       1.162988        31.6465 
 106   0.0000       1.166579        31.7442 
 107   0.0000       1.181292        32.1446 
 108   0.0000       1.190786        32.4029 
 109   0.0000       1.201919        32.7059 
 110   0.0000       1.217280        33.1239 
 111   0.0000       1.257922        34.2298 
 112   0.0000       1.285216        34.9725 
 113   0.0000       1.307737        35.5853 
 114   0.0000       1.312336        35.7105 
 115   0.0000       1.323876        36.0245 
 116   0.0000       1.373700        37.3803 
 117   0.0000       1.389084        37.7989 
 118   0.0000       1.404928        38.2300 
 119   0.0000       1.413073        38.4517 
 120   0.0000       1.421965        38.6936 
 121   0.0000       1.428395        38.8686 
 122   0.0000       1.466359        39.9017 
 123   0.0000       1.503073        40.9007 
 124   0.0000       1.521425        41.4001 
 125   0.0000       1.546969        42.0952 
 126   0.0000       1.562490        42.5175 
 127   0.0000       1.568980        42.6941 
 128   0.0000       1.582544        43.0632 
 129   0.0000       1.598014        43.4842 
 130   0.0000       1.606211        43.7072 
 131   0.0000       1.628744        44.3204 
 132   0.0000       1.633945        44.4619 
 133   0.0000       1.647894        44.8415 
 134   0.0000       1.705757        46.4160 
 135   0.0000       1.740359        47.3576 
 136   0.0000       1.746406        47.5221 
 137   0.0000       1.777551        48.3696 
 138   0.0000       1.844503        50.1915 
 139   0.0000       1.867115        50.8068 
 140   0.0000       1.873017        50.9674 
 141   0.0000       1.922908        52.3250 
 142   0.0000       1.931752        52.5656 
 143   0.0000       1.943840        52.8946 
 144   0.0000       1.974534        53.7298 
 145   0.0000       2.007681        54.6318 
 146   0.0000       2.020445        54.9791 
 147   0.0000       2.028676        55.2031 
 148   0.0000       2.068482        56.2863 
 149   0.0000       2.071530        56.3692 
 150   0.0000       2.108346        57.3710 
 151   0.0000       2.120361        57.6980 
 152   0.0000       2.162898        58.8555 
 153   0.0000       2.188354        59.5481 
 154   0.0000       2.238157        60.9033 
 155   0.0000       2.287638        62.2498 
 156   0.0000       2.291389        62.3519 
 157   0.0000       2.298602        62.5481 
 158   0.0000       2.350181        63.9517 
 159   0.0000       2.373070        64.5745 
 160   0.0000       2.429727        66.1162 
 161   0.0000       2.446775        66.5801 
 162   0.0000       2.497429        67.9585 
 163   0.0000       2.503502        68.1238 
 164   0.0000       2.524179        68.6864 
 165   0.0000       2.540765        69.1377 
 166   0.0000       2.557294        69.5875 
 167   0.0000       2.567813        69.8737 
 168   0.0000       2.579050        70.1795 
 169   0.0000       2.592045        70.5331 
 170   0.0000       2.600374        70.7598 
 171   0.0000       2.623989        71.4024 
 172   0.0000       2.631110        71.5961 
 173   0.0000       2.648277        72.0633 
 174   0.0000       2.672816        72.7310 
 175   0.0000       2.679444        72.9114 
 176   0.0000       2.692335        73.2621 
 177   0.0000       2.703574        73.5680 
 178   0.0000       2.715739        73.8990 
 179   0.0000       2.753900        74.9374 
 180   0.0000       2.757837        75.0446 
 181   0.0000       2.773617        75.4740 
 182   0.0000       2.804358        76.3105 
 183   0.0000       2.820669        76.7543 
 184   0.0000       2.822856        76.8138 
 185   0.0000       2.833472        77.1027 
 186   0.0000       2.863640        77.9236 
 187   0.0000       2.885662        78.5228 
 188   0.0000       2.895718        78.7965 
 189   0.0000       2.928604        79.6914 
 190   0.0000       2.951434        80.3126 
 191   0.0000       3.001841        81.6842 
 192   0.0000       3.032982        82.5316 
 193   0.0000       3.048041        82.9414 
 194   0.0000       3.059627        83.2567 
 195   0.0000       3.061613        83.3107 
 196   0.0000       3.063144        83.3524 
 197   0.0000       3.071665        83.5842 
 198   0.0000       3.089495        84.0694 
 199   0.0000       3.094092        84.1945 
 200   0.0000       3.115081        84.7657 
 201   0.0000       3.127579        85.1058 
 202   0.0000       3.165459        86.1365 
 203   0.0000       3.182408        86.5977 
 204   0.0000       3.185836        86.6910 
 205   0.0000       3.240584        88.1808 
 206   0.0000       3.246050        88.3295 
 207   0.0000       3.251492        88.4776 
 208   0.0000       3.277932        89.1971 
 209   0.0000       3.279612        89.2428 
 210   0.0000       3.283087        89.3373 
 211   0.0000       3.288136        89.4747 
 212   0.0000       3.304906        89.9311 
 213   0.0000       3.318324        90.2962 
 214   0.0000       3.333809        90.7175 
 215   0.0000       3.383988        92.0830 
 216   0.0000       3.390032        92.2474 
 217   0.0000       3.420898        93.0874 
 218   0.0000       3.454747        94.0085 
 219   0.0000       3.461438        94.1905 
 220   0.0000       3.526688        95.9661 
 221   0.0000       3.531842        96.1063 
 222   0.0000       3.556315        96.7722 
 223   0.0000       3.591142        97.7200 
 224   0.0000       3.602849        98.0385 
 225   0.0000       3.672765        99.9410 
 226   0.0000       3.708691       100.9186 
 227   0.0000       3.748385       101.9987 
 228   0.0000       3.752475       102.1100 
 229   0.0000       3.787276       103.0570 
 230   0.0000       3.822003       104.0020 
 231   0.0000       3.860547       105.0508 
 232   0.0000       3.888021       105.7984 
 233   0.0000       3.943437       107.3064 
 234   0.0000       3.971817       108.0786 
 235   0.0000       3.994962       108.7084 
 236   0.0000       4.070352       110.7599 
 237   0.0000       4.083022       111.1047 
 238   0.0000       4.104238       111.6820 
 239   0.0000       4.133590       112.4807 
 240   0.0000       4.139612       112.6446 
 241   0.0000       4.143894       112.7611 
 242   0.0000       4.162053       113.2552 
 243   0.0000       4.190304       114.0240 
 244   0.0000       4.217616       114.7672 
 245   0.0000       4.226344       115.0047 
 246   0.0000       4.285198       116.6062 
 247   0.0000       4.357324       118.5688 
 248   0.0000       4.416023       120.1661 
 249   0.0000       4.537904       123.4826 
 250   0.0000       4.561840       124.1340 
 251   0.0000       4.584180       124.7419 
 252   0.0000       4.617798       125.6567 
 253   0.0000       4.655128       126.6725 
 254   0.0000       4.777107       129.9917 
 255   0.0000       4.792733       130.4169 
 256   0.0000       4.878926       132.7623 
 257   0.0000       4.903398       133.4283 
 258   0.0000       5.079532       138.2211 
 259   0.0000       5.101783       138.8266 
 260   0.0000       5.118539       139.2825 
 261   0.0000       5.139451       139.8516 
 262   0.0000       5.272461       143.4710 
 263   0.0000       5.290056       143.9497 
 264   0.0000       5.327816       144.9772 
 265   0.0000       5.452204       148.3620 
 266   0.0000       5.542367       150.8155 
 267   0.0000       5.588585       152.0731 
 268   0.0000       5.967103       162.3731 
 269   0.0000       6.213763       169.0851 
 270   0.0000       6.239249       169.7786 
 271   0.0000       6.347689       172.7294 
 272   0.0000       6.388245       173.8330 
 273   0.0000       6.669851       181.4959 
 274   0.0000       6.863572       186.7673 
 275   0.0000       6.927492       188.5067 
 276   0.0000      21.705442       590.6351 
 277   0.0000      22.265545       605.8763 
 278   0.0000      22.300707       606.8331 
 279   0.0000      22.419297       610.0601 
 280   0.0000      22.504922       612.3901 
 281   0.0000      22.614562       615.3735 
 282   0.0000      22.929015       623.9302 
 283   0.0000      43.385651      1180.5836 
------------------
MOLECULAR ORBITALS
------------------
                      0         1         2         3         4         5   
                 -18.76589  -9.98473  -9.91815  -9.91766  -9.91657  -9.91503
                   2.00000   2.00000   2.00000   2.00000   2.00000   2.00000
                  --------  --------  --------  --------  --------  --------
  0C   1s        -0.000024 -0.000572 -0.433047  0.173414 -0.004064 -0.025718
  0C   2s         0.000121 -0.000890 -0.562144  0.224737 -0.005456 -0.033031
  0C   3s        -0.000796  0.002139 -0.050222  0.021288 -0.000868 -0.004095
  0C   4s         0.002690 -0.028348  0.053760 -0.030837  0.016231  0.011717
  0C   5s        -0.010682  0.052635 -0.041915  0.039931  0.001478 -0.023364
  0C   1pz        0.000000 -0.000000  0.000000 -0.000000  0.000000 -0.000001
  0C   1px       -0.000041  0.000273 -0.000407 -0.000793 -0.000071 -0.000532
  0C   1py       -0.000171  0.000457 -0.000142  0.000155 -0.000120  0.000717
  0C   2pz       -0.000005  0.000003  0.000003  0.000008 -0.000005  0.000016
  0C   2px        0.004311 -0.004405  0.005704  0.022210  0.005908  0.013567
  0C   2py        0.010307 -0.007935 -0.002224 -0.001310  0.010105 -0.018358
  0C   3pz        0.000003 -0.000013  0.000000 -0.000011 -0.000000 -0.000008
  0C   3px        0.003867  0.021546 -0.008476 -0.006660 -0.000476 -0.014566
  0C   3py        0.003196  0.036034 -0.005072  0.012140  0.000326  0.000698
  0C   1dz2       0.000144 -0.000002  0.001534 -0.000946 -0.000167  0.000409
  0C   1dxz      -0.000001  0.000000 -0.000001  0.000000 -0.000000 -0.000000
  0C   1dyz       0.000000  0.000000  0.000002 -0.000001 -0.000000  0.000000
  0C   1dx2y2    -0.000128  0.000047  0.000007 -0.000061 -0.000042  0.000004
  0C   1dxy      -0.000003 -0.000215 -0.000011  0.000051  0.000087 -0.000089
  0C   2dz2      -0.000577  0.001656 -0.007848  0.002915 -0.001741 -0.000282
  0C   2dxz       0.000007 -0.000008  0.000005  0.000006  0.000007 -0.000007
  0C   2dyz      -0.000003  0.000003 -0.000006  0.000013 -0.000003  0.000012
  0C   2dx2y2     0.002386 -0.004456  0.002902  0.016746  0.002972  0.009012
  0C   2dxy      -0.005342  0.010666  0.003152 -0.001442 -0.005853  0.014501
  0C   1f0        0.000000 -0.000001 -0.000000 -0.000001  0.000000 -0.000002
  0C   1f+1      -0.000027  0.000451 -0.000367 -0.001190 -0.000122 -0.000692
  0C   1f-1      -0.000117  0.000710  0.000062  0.000090 -0.000216  0.001038
  0C   1f+2      -0.000000 -0.000000  0.000000  0.000001  0.000000 -0.000001
  0C   1f-2      -0.000000  0.000001 -0.000000 -0.000000  0.000000 -0.000002
  0C   1f+3       0.000061 -0.000752 -0.000446 -0.001084 -0.000321  0.001148
  0C   1f-3       0.000032  0.000106 -0.000023 -0.000028 -0.000014 -0.000090
  1C   1s        -0.000012  0.000012 -0.173656 -0.433337  0.001830  0.003567
  1C   2s         0.000063  0.000020 -0.225820 -0.562544  0.002313  0.004723
  1C   3s        -0.000716 -0.000054 -0.011909 -0.042272  0.000269  0.000678
  1C   4s        -0.000145  0.001523 -0.028999  0.012360  0.004796 -0.012855
  1C   5s        -0.002513 -0.052559  0.023686 -0.030815 -0.004941  0.026378
  1C   1pz        0.000000 -0.000000  0.000000  0.000001  0.000000 -0.000000
  1C   1px       -0.000046  0.000377  0.000386  0.000439 -0.000349 -0.000263
  1C   1py       -0.000099  0.000403  0.000163 -0.001025 -0.000315  0.000126
  1C   2pz       -0.000003  0.000003  0.000007  0.000001 -0.000004  0.000007
  1C   2px        0.005305 -0.012503  0.002229  0.012186  0.012437  0.013650
  1C   2py        0.003509 -0.010894 -0.010455  0.004101  0.013411 -0.003318
  1C   3pz        0.000002  0.000017 -0.000004  0.000006  0.000001 -0.000004
  1C   3px       -0.004654  0.008395 -0.009920 -0.001498 -0.000602 -0.007792
  1C   3py       -0.005971 -0.026349  0.003476 -0.008261 -0.002392  0.004295
  1C   1dz2       0.000072 -0.000016  0.000499  0.001770 -0.000118  0.000114
  1C   1dxz      -0.000000  0.000000 -0.000000 -0.000001 -0.000000 -0.000000
  1C   1dyz       0.000000 -0.000000  0.000000  0.000002 -0.000000  0.000000
  1C   1dx2y2    -0.000040 -0.000124 -0.000037 -0.000322 -0.000087 -0.000100
  1C   1dxy      -0.000088 -0.000164 -0.000215 -0.000344  0.000048 -0.000064
  1C   2dz2      -0.000534  0.000067  0.003837 -0.000033  0.000079  0.000773
  1C   2dxz       0.000001  0.000001  0.000000 -0.000003 -0.000003 -0.000005
  1C   2dyz      -0.000002  0.000004  0.000006 -0.000004 -0.000002  0.000000
  1C   2dx2y2    -0.001759  0.006018  0.004377 -0.006245 -0.005823 -0.003429
  1C   2dxy       0.000553  0.001579 -0.000806  0.001569  0.002755  0.004590
  1C   1f0        0.000000 -0.000000  0.000000  0.000001  0.000000 -0.000000
  1C   1f+1      -0.000065  0.000341  0.000616 -0.000170 -0.000313 -0.000246
  1C   1f-1      -0.000085  0.000293  0.000127 -0.000479 -0.000362  0.000123
  1C   1f+2      -0.000000 -0.000000 -0.000001  0.000001  0.000000  0.000000
  1C   1f-2      -0.000000  0.000000  0.000000  0.000001 -0.000000 -0.000000
  1C   1f+3       0.000128 -0.000238  0.000098 -0.001981 -0.000125  0.000134
  1C   1f-3      -0.000114  0.000328  0.000069  0.000093 -0.000028  0.000225
  2C   1s        -0.000011  0.000035 -0.005271 -0.017041 -0.021985 -0.002283
  2C   2s         0.000055 -0.000011 -0.006998 -0.022333 -0.028831 -0.002789
  2C   3s         0.000142 -0.000866 -0.001922 -0.000914 -0.001308 -0.001338
  2C   4s        -0.004409  0.009326  0.013392 -0.014998 -0.010235 -0.004780
  2C   5s         0.005121  0.040332 -0.012880  0.023257  0.019989 -0.010931
  2C   1pz       -0.000000 -0.000000 -0.000000 -0.000000  0.000000  0.000000
  2C   1px        0.000010  0.000132  0.000140 -0.000021 -0.000045  0.000232
  2C   1py       -0.000012  0.000212  0.000462  0.000372 -0.000657  0.000009
  2C   2pz       -0.000001  0.000004  0.000007  0.000005 -0.000009 -0.000000
  2C   2px        0.002133 -0.005834 -0.008065  0.005451  0.002509  0.001614
  2C   2py        0.002616 -0.008009 -0.013349 -0.004821  0.016641  0.000354
  2C   3pz        0.000002  0.000001  0.000002  0.000001 -0.000003  0.000001
  2C   3px        0.000151 -0.012465  0.006920 -0.004314 -0.003599  0.003334
  2C   3py       -0.003854 -0.004291 -0.003845 -0.005259  0.002612 -0.001418
  2C   1dz2       0.000061 -0.000173 -0.000269 -0.000159 -0.000213  0.000124
  2C   1dxz       0.000000  0.000000  0.000000 -0.000000  0.000000 -0.000000
  2C   1dyz       0.000000 -0.000000 -0.000000 -0.000000 -0.000000  0.000000
  2C   1dx2y2     0.000057 -0.000126 -0.000025 -0.000193 -0.000131  0.000006
  2C   1dxy      -0.000048  0.000116  0.000210  0.000327 -0.000397  0.000028
  2C   2dz2       0.000508 -0.000665 -0.001524  0.000469  0.000154  0.000127
  2C   2dxz       0.000000 -0.000002 -0.000003 -0.000002  0.000006  0.000000
  2C   2dyz       0.000001  0.000000 -0.000001  0.000000 -0.000002  0.000002
  2C   2dx2y2     0.000433  0.000316 -0.000611 -0.001275 -0.002018  0.002720
  2C   2dxy      -0.000876  0.003485  0.006304  0.003869 -0.008767  0.000253
  2C   1f0        0.000000 -0.000000 -0.000001 -0.000001  0.000002 -0.000000
  2C   1f+1      -0.000060  0.000164  0.000332  0.000242  0.000315 -0.000044
  2C   1f-1      -0.000061  0.000188  0.000612  0.000814 -0.001082  0.000056
  2C   1f+2       0.000000 -0.000000 -0.000000 -0.000001  0.000001 -0.000000
  2C   1f-2       0.000000  0.000000  0.000000  0.000001  0.000002 -0.000000
  2C   1f+3       0.000061 -0.000157 -0.000384 -0.001043 -0.001007  0.000096
  2C   1f-3       0.000050  0.000028  0.000135 -0.000097  0.000102  0.000064
  3C   1s        -0.000009  0.000042  0.003440 -0.002498 -0.466142 -0.002878
  3C   2s         0.000045 -0.000015  0.004276 -0.003220 -0.605412 -0.003688
  3C   3s        -0.000477  0.000340  0.001923 -0.001224 -0.043270  0.000200
  3C   4s         0.000068  0.004506  0.001634  0.007003  0.007039 -0.006844
  3C   5s         0.002857 -0.028553  0.017942 -0.012838 -0.033526  0.006266
  3C   1pz       -0.000000 -0.000000 -0.000000 -0.000000 -0.000000 -0.000000
  3C   1px        0.000023 -0.000046 -0.000193 -0.000149  0.000522 -0.000367
  3C   1py        0.000039 -0.000072 -0.000145  0.000339  0.000884  0.000062
  3C   2pz        0.000000  0.000001  0.000003  0.000007 -0.000001  0.000003
  3C   2px        0.000821 -0.000149  0.001010  0.004538  0.001125  0.010552
  3C   2py       -0.000128 -0.001002 -0.003602 -0.008246  0.002869  0.000172
  3C   3pz        0.000001 -0.000005  0.000003  0.000001 -0.000002  0.000002
  3C   3px        0.000744  0.007222 -0.001700  0.003634  0.002932  0.001110
  3C   3py       -0.001157  0.009902 -0.005503  0.001582  0.004561 -0.002303
  3C   1dz2       0.000025 -0.000091 -0.000168 -0.000058  0.001716  0.000140
  3C   1dxz      -0.000000  0.000000  0.000000  0.000000 -0.000001 -0.000000
  3C   1dyz       0.000000 -0.000000 -0.000000 -0.000000  0.000002  0.000000
  3C   1dx2y2    -0.000009  0.000015 -0.000024  0.000031 -0.000170 -0.000013
  3C   1dxy       0.000013  0.000015  0.000051 -0.000026  0.000326  0.000031
  3C   2dz2      -0.000169  0.000033  0.000582 -0.000461  0.000888  0.000303
  3C   2dxz      -0.000000  0.000001  0.000001  0.000000 -0.000002 -0.000000
  3C   2dyz      -0.000000  0.000000 -0.000000 -0.000003  0.000001 -0.000002
  3C   2dx2y2    -0.000441  0.000544  0.000090 -0.003268 -0.000273 -0.003328
  3C   2dxy       0.000160 -0.001338 -0.002374 -0.000977  0.000785 -0.001877
  3C   1f0        0.000000 -0.000000 -0.000000 -0.000000 -0.000001 -0.000000
  3C   1f+1      -0.000017  0.000004 -0.000024 -0.000131  0.000227 -0.000331
  3C   1f-1      -0.000002  0.000002  0.000105  0.000226  0.000363  0.000002
  3C   1f+2       0.000000  0.000000  0.000000 -0.000000 -0.000000  0.000000
  3C   1f-2      -0.000000  0.000000  0.000000 -0.000000  0.000001 -0.000000
  3C   1f+3       0.000027  0.000025 -0.000054 -0.000107 -0.001573  0.000051
  3C   1f-3       0.000007  0.000017  0.000001  0.000001  0.000026  0.000016
  4C   1s        -0.000010  0.000041  0.000326  0.001195 -0.021390  0.039674
  4C   2s         0.000047 -0.000013  0.000290  0.001416 -0.028052  0.051770
  4C   3s         0.000403 -0.000087 -0.001232  0.001558 -0.001204  0.003433
  4C   4s        -0.006448  0.004637  0.019222 -0.000435 -0.011256  0.009721
  4C   5s        -0.001168  0.037836 -0.017795  0.014973  0.019598 -0.015782
  4C   1pz        0.000000  0.000000  0.000000  0.000000  0.000000  0.000000
  4C   1px       -0.000066  0.000095  0.000231  0.000029 -0.000552 -0.000403
  4C   1py       -0.000058  0.000130  0.000194 -0.000273 -0.000356 -0.000286
  4C   2pz       -0.000002  0.000002  0.000005 -0.000001 -0.000002  0.000002
  4C   2px        0.003077 -0.002319 -0.005236  0.001563  0.012763  0.009032
  4C   2py        0.005101 -0.006029 -0.013939  0.002509  0.010342  0.001805
  4C   3pz       -0.000000  0.000007 -0.000004  0.000003  0.000003 -0.000001
  4C   3px       -0.000320  0.005421 -0.003052  0.004685  0.004674  0.003675
  4C   3py        0.001197 -0.011330  0.006357 -0.003211 -0.001657  0.004011
  4C   1dz2       0.000091 -0.000116 -0.000238 -0.000047 -0.000204  0.000155
  4C   1dxz       0.000000  0.000000  0.000000  0.000000  0.000000  0.000000
  4C   1dyz       0.000000 -0.000000 -0.000000 -0.000000  0.000000  0.000000
  4C   1dx2y2     0.000015  0.000001 -0.000103  0.000064  0.000383  0.000235
  4C   1dxy      -0.000091  0.000105  0.000023 -0.000011 -0.000095 -0.000346
  4C   2dz2       0.000588 -0.000139 -0.001686  0.000279  0.000236 -0.000036
  4C   2dxz       0.000001 -0.000001 -0.000002  0.000000  0.000003  0.000004
  4C   2dyz       0.000001 -0.000001 -0.000002  0.000002  0.000003  0.000001
  4C   2dx2y2     0.001377 -0.002193 -0.003252  0.002740  0.008310  0.004059
  4C   2dxy      -0.001443  0.000806  0.003374  0.001294 -0.002864 -0.004231
  4C   1f0        0.000000 -0.000000 -0.000000  0.000000 -0.000000  0.000000
  4C   1f+1      -0.000049  0.000033  0.000146 -0.000123 -0.001082 -0.000687
  4C   1f-1      -0.000112  0.000153  0.000355 -0.000106 -0.000248 -0.000775
  4C   1f+2       0.000000 -0.000000 -0.000000  0.000000  0.000001  0.000001
  4C   1f-2      -0.000000 -0.000000  0.000000 -0.000000 -0.000000 -0.000001
  4C   1f+3       0.000099 -0.000033 -0.000081 -0.000081 -0.001012  0.001005
  4C   1f-3      -0.000037  0.000002 -0.000115  0.000131 -0.000054 -0.000128
  5C   1s        -0.000012  0.000017 -0.022531  0.012687 -0.001384  0.464764
  5C   2s         0.000061  0.000010 -0.029620  0.016506 -0.001859  0.603479
  5C   3s        -0.000562 -0.000562  0.002524 -0.000522 -0.000030  0.043770
  5C   4s         0.000368  0.008218 -0.028848  0.020801  0.004790 -0.002461
  5C   5s         0.003308 -0.051476  0.024929 -0.032690 -0.005481  0.020371
  5C   1pz       -0.000000 -0.000000 -0.000000 -0.000000  0.000000  0.000001
  5C   1px       -0.000029  0.000119  0.000232 -0.000310 -0.000119  0.001110
  5C   1py       -0.000201  0.000394  0.000483  0.000031 -0.000453 -0.000014
  5C   2pz       -0.000004  0.000008  0.000003  0.000010 -0.000008  0.000009
  5C   2px        0.000825 -0.000647 -0.006441  0.011461  0.005626  0.005181
  5C   2py        0.009555 -0.014166 -0.009698 -0.007807  0.017489 -0.011290
  5C   3pz       -0.000001 -0.000009  0.000003 -0.000007 -0.000001 -0.000001
  5C   3px        0.001156 -0.025325  0.007559 -0.008665 -0.001853  0.004065
  5C   3py       -0.000140  0.000013 -0.000763  0.006556 -0.000410  0.005544
  5C   1dz2       0.000042 -0.000074 -0.000125 -0.000109 -0.000106 -0.001815
  5C   1dxz       0.000000  0.000000  0.000000  0.000000 -0.000000  0.000001
  5C   1dyz       0.000000 -0.000000 -0.000000 -0.000000 -0.000000 -0.000002
  5C   1dx2y2     0.000031  0.000141  0.000011 -0.000133 -0.000003 -0.000473
  5C   1dxy      -0.000010  0.000002 -0.000106 -0.000001  0.000102 -0.000048
  5C   2dz2      -0.000234 -0.000467  0.003604 -0.001718  0.000109 -0.001167
  5C   2dxz      -0.000001  0.000001  0.000002  0.000004 -0.000003  0.000003
  5C   2dyz       0.000001 -0.000005 -0.000000 -0.000002  0.000003 -0.000003
  5C   2dx2y2     0.000682 -0.004531 -0.001171  0.002934  0.000755 -0.001110
  5C   2dxy       0.003221 -0.003625 -0.007076 -0.003287  0.006492 -0.004888
  5C   1f0        0.000000 -0.000000 -0.000001 -0.000000  0.000000 -0.000000
  5C   1f+1      -0.000058  0.000022 -0.000129 -0.000178 -0.000175  0.000417
  5C   1f-1      -0.000238  0.000296  0.000688 -0.000072 -0.000455  0.000224
  5C   1f+2       0.000000 -0.000001 -0.000001  0.000000  0.000001 -0.000001
  5C   1f-2      -0.000000 -0.000000 -0.000001 -0.000000  0.000000 -0.000001
  5C   1f+3       0.000098 -0.000045  0.000582 -0.000350 -0.000158  0.001795
  5C   1f-3       0.000089 -0.000288 -0.000006  0.000223  0.000024  0.000055
  6H   1s        -0.000010  0.000392  0.000308  0.000802  0.000179 -0.000178
  6H   2s        -0.000868 -0.000057  0.004310 -0.000107  0.001446 -0.000535
  6H   3s        -0.000945 -0.008327  0.000611  0.002383 -0.000364  0.001240
  6H   1pz       -0.000000 -0.000000 -0.000001 -0.000001 -0.000000  0.000000
  6H   1px        0.000141 -0.000037 -0.001291 -0.000635  0.000051  0.000473
  6H   1py       -0.000030  0.000064  0.000964  0.002198  0.000511 -0.000141
  7H   1s        -0.000037  0.000066  0.000166 -0.000142 -0.000020 -0.000199
  7H   2s        -0.000320  0.000779  0.001119  0.000812  0.001716 -0.001357
  7H   3s        -0.000428  0.001049 -0.002251 -0.001133 -0.001350  0.000158
  7H   1pz       -0.000000  0.000000  0.000000  0.000000 -0.000001 -0.000000
  7H   1px        0.000046 -0.000193 -0.000373 -0.000080 -0.000309  0.000165
  7H   1py        0.000048 -0.000184 -0.000438 -0.000574  0.000858 -0.000047
  8H   1s        -0.000062  0.000187  0.000242  0.000090  0.000868 -0.000151
  8H   2s        -0.000390  0.000190  0.002514  0.000662  0.001820 -0.001450
  8H   3s         0.000187 -0.002850  0.000164  0.000041  0.002113  0.000072
  8H   1pz       -0.000000  0.000000  0.000000  0.000000  0.000001 -0.000000
  8H   1px        0.000043 -0.000012 -0.000181  0.000016 -0.001339  0.000382
  8H   1py        0.000050 -0.000040 -0.000410 -0.000312 -0.002282  0.000211
  9H   1s        -0.000052  0.000057  0.000256  0.000121 -0.000031  0.000028
  9H   2s        -0.000371  0.000978  0.001135  0.000896  0.001743 -0.001261
  9H   3s        -0.000342  0.001257 -0.001728  0.000306 -0.001267  0.001590
  9H   1pz       -0.000000  0.000000  0.000000 -0.000000  0.000000 -0.000000
  9H   1px        0.000048 -0.000027 -0.000010  0.000125  0.000888  0.000451
  9H   1py        0.000101 -0.000266 -0.000404  0.000035  0.000142  0.000618
 10H   1s        -0.000112  0.000364  0.000077  0.000132  0.000179 -0.000854
 10H   2s        -0.000036  0.000147  0.004334 -0.000842  0.001529 -0.001639
 10H   3s        -0.000079 -0.007794 -0.000718 -0.000426 -0.000508 -0.001500
 10H   1pz       -0.000000 -0.000000  0.000001  0.000000 -0.000000 -0.000000
 10H   1px        0.000007  0.000047  0.000780  0.000066  0.000458 -0.002644
 10H   1py        0.000119  0.000024 -0.000846 -0.000090  0.000303 -0.000350
 11C   1s        -0.000050 -0.467292  0.000583 -0.000250 -0.000023  0.000053
 11C   2s         0.000280 -0.606474  0.000620 -0.000253 -0.000106  0.000070
 11C   3s        -0.001469 -0.043567  0.002886 -0.001254  0.000534  0.000375
 11C   4s         0.002466  0.013966 -0.019330  0.014695  0.003364 -0.008621
 11C   5s         0.007913  0.006456  0.006030 -0.005579 -0.000942  0.002437
 11C   1pz        0.000001  0.000003  0.000000  0.000000  0.000000 -0.000000
 11C   1px        0.000715  0.001522 -0.000109 -0.000139  0.000011 -0.000011
 11C   1py       -0.000088 -0.000850 -0.000101 -0.000098  0.000005  0.000316
 11C   2pz        0.000008  0.000009  0.000005 -0.000001 -0.000001  0.000005
 11C   2px        0.013026  0.009367  0.000070  0.011289  0.003474 -0.003027
 11C   2py        0.007186  0.001342 -0.005203  0.009921  0.004816 -0.010714
 11C   3pz       -0.000014 -0.000011  0.000002  0.000004 -0.000000  0.000006
 11C   3px       -0.007402 -0.003601  0.001991  0.001192 -0.000463  0.003726
 11C   3py        0.004846  0.007298  0.000118 -0.003946 -0.000431 -0.002370
 11C   1dz2       0.000242  0.002226 -0.000034  0.000001 -0.000081  0.000072
 11C   1dxz      -0.000001 -0.000006 -0.000000 -0.000000 -0.000000 -0.000000
 11C   1dyz      -0.000000  0.000002 -0.000000 -0.000000 -0.000000  0.000000
 11C   1dx2y2    -0.000463 -0.001702 -0.000053 -0.000104 -0.000047  0.000036
 11C   1dxy      -0.000085 -0.000656 -0.000035 -0.000038  0.000023 -0.000011
 11C   2dz2       0.001039  0.002108  0.002580 -0.000722  0.000299  0.000032
 11C   2dxz      -0.000011 -0.000009 -0.000007 -0.000005 -0.000004  0.000006
 11C   2dyz      -0.000003  0.000002  0.000005  0.000001  0.000000  0.000003
 11C   2dx2y2    -0.006302 -0.002617 -0.001118 -0.001269 -0.002166  0.005553
 11C   2dxy       0.001877  0.000213  0.001792  0.004722  0.001989 -0.001401
 11C   1f0       -0.000001 -0.000001 -0.000000 -0.000000 -0.000000 -0.000000
 11C   1f+1      -0.000400 -0.000995 -0.000383 -0.000237 -0.000105  0.000107
 11C   1f-1      -0.000122 -0.000579 -0.000353 -0.000004 -0.000073  0.000262
 11C   1f+2       0.000001  0.000005  0.000001  0.000001  0.000001 -0.000001
 11C   1f-2      -0.000001  0.000004 -0.000001  0.000001  0.000000 -0.000001
 11C   1f+3       0.000304 -0.002391  0.000532 -0.000550 -0.000034  0.000270
 11C   1f-3      -0.000013 -0.000921 -0.000000 -0.000443  0.000013 -0.000258
 12O   1s        -0.435412  0.000050 -0.000006 -0.000001 -0.000003  0.000003
 12O   2s        -0.638448  0.000305  0.000099  0.000020  0.000043 -0.000056
 12O   3s        -0.039777 -0.004095 -0.001169 -0.000556 -0.000569  0.000758
 12O   4s         0.035913  0.014159  0.004257  0.003164  0.002838 -0.004456
 12O   5s        -0.014344 -0.000217  0.002135  0.002039 -0.000082  0.001197
 12O   1pz       -0.000003 -0.000001 -0.000000 -0.000000 -0.000000  0.000000
 12O   1px       -0.002235 -0.000724 -0.000254 -0.000089 -0.000059  0.000020
 12O   1py       -0.000324 -0.000082 -0.000199 -0.000046 -0.000048  0.000007
 12O   2pz        0.000009  0.000011  0.000002  0.000002  0.000001 -0.000002
 12O   2px        0.007494  0.009635  0.002138  0.002006  0.001086 -0.001456
 12O   2py        0.001226  0.001029  0.001333  0.000613  0.000453 -0.000153
 12O   3pz       -0.000000  0.000000  0.000000  0.000000  0.000000 -0.000000
 12O   3px       -0.000692  0.000478  0.000657  0.000059  0.000016 -0.000290
 12O   3py       -0.000760 -0.000275  0.000575  0.000555 -0.000009  0.000469
 12O   1dz2       0.000098 -0.000000  0.000019 -0.000063 -0.000033  0.000047
 12O   1dxz      -0.000001  0.000000  0.000000  0.000000  0.000000 -0.000000
 12O   1dyz      -0.000000 -0.000000 -0.000000 -0.000000 -0.000000 -0.000000
 12O   1dx2y2    -0.000333 -0.000023  0.000021  0.000019  0.000003 -0.000011
 12O   1dxy      -0.000082  0.000004 -0.000109 -0.000033 -0.000010 -0.000044
 12O   2dz2      -0.000829 -0.002085 -0.000297 -0.000029  0.000036 -0.000084
 12O   2dxz       0.000004  0.000008  0.000000  0.000001  0.000000 -0.000001
 12O   2dyz       0.000001  0.000001  0.000001  0.000001  0.000000 -0.000000
 12O   2dx2y2     0.001649  0.003733  0.000011  0.000430  0.000112 -0.000214
 12O   2dxy       0.000431  0.000611  0.000714  0.000274  0.000153  0.000107
 12O   1f0       -0.000000 -0.000002 -0.000000 -0.000000  0.000000 -0.000000
 12O   1f+1      -0.000158 -0.000583 -0.000047  0.000006  0.000019 -0.000040
 12O   1f-1      -0.000019 -0.000011  0.000023  0.000007  0.000002  0.000011
 12O   1f+2       0.000001  0.000002 -0.000000  0.000000 -0.000000 -0.000000
 12O   1f-2       0.000000  0.000000 -0.000000  0.000000  0.000000 -0.000000
 12O   1f+3      -0.000191 -0.000883  0.000125 -0.000104  0.000009  0.000027
 12O   1f-3      -0.000040 -0.000154 -0.000013  0.000019 -0.000009  0.000008
 13H   1s        -0.000340  0.000679  0.000087  0.000306  0.000147 -0.000160
 13H   2s         0.000433  0.001781  0.002923  0.000805  0.001202 -0.001934
 13H   3s         0.003060  0.005303 -0.002386 -0.001755 -0.000387 -0.002166
 13H   1pz        0.000000 -0.000004 -0.000001 -0.000001 -0.000001  0.000001
 13H   1px        0.000346 -0.001426  0.000144 -0.000255  0.000010 -0.000064
 13H   1py        0.000184  0.001964  0.000775  0.000056  0.000293 -0.000685
                      6         7         8         9        10        11   
                  -9.91269  -9.91266  -0.94821  -0.78223  -0.69066  -0.67754
                   2.00000   2.00000   2.00000   2.00000   2.00000   2.00000
                  --------  --------  --------  --------  --------  --------
  0C   1s         0.001078  0.001871 -0.009952 -0.050240  0.062587 -0.009883
  0C   2s         0.001410  0.002497 -0.020174 -0.104209  0.130643 -0.020651
  0C   3s         0.000476  0.001527  0.029209  0.158066 -0.201353  0.031956
  0C   4s        -0.005665 -0.019636  0.027687  0.164668 -0.228989  0.036235
  0C   5s         0.003156  0.013723  0.008250  0.006115 -0.011159  0.005786
  0C   1pz       -0.000000 -0.000000 -0.000003 -0.000012 -0.000023 -0.000051
  0C   1px       -0.000389  0.000405 -0.013621  0.023817 -0.008112 -0.074346
  0C   1py        0.000371  0.000351 -0.011288  0.033402  0.027328  0.046138
  0C   2pz        0.000013  0.000004 -0.000012 -0.000004 -0.000017 -0.000026
  0C   2px        0.012277 -0.013418 -0.000050  0.009762  0.002237 -0.036651
  0C   2py       -0.012497 -0.012895  0.013179  0.013789  0.022514  0.019172
  0C   3pz       -0.000005  0.000002  0.000001  0.000015  0.000000  0.000013
  0C   3px       -0.006821  0.002114  0.012199 -0.013443  0.005222  0.009347
  0C   3py        0.004030 -0.001856  0.011026 -0.024426 -0.001238 -0.008457
  0C   1dz2       0.000031  0.000158 -0.000983 -0.006398  0.007036 -0.001100
  0C   1dxz       0.000000  0.000000  0.000001  0.000004 -0.000005  0.000001
  0C   1dyz      -0.000000  0.000000  0.000000 -0.000007  0.000008 -0.000005
  0C   1dx2y2    -0.000068  0.000121  0.000290  0.000077 -0.000781 -0.004955
  0C   1dxy      -0.000101 -0.000151  0.001000 -0.000468  0.000761 -0.003187
  0C   2dz2       0.000415  0.001611 -0.002777 -0.010113  0.012255 -0.001827
  0C   2dxz      -0.000001 -0.000006  0.000011 -0.000000  0.000001 -0.000001
  0C   2dyz       0.000007  0.000001 -0.000001 -0.000012  0.000011 -0.000008
  0C   2dx2y2     0.006186 -0.004963  0.006395 -0.003666  0.002853 -0.004641
  0C   2dxy       0.005088  0.004069 -0.007472  0.005522 -0.004230 -0.001117
  0C   1f0       -0.000001 -0.000000  0.000001  0.000001  0.000001  0.000002
  0C   1f+1      -0.000246  0.000283  0.000303 -0.000430 -0.000072  0.001145
  0C   1f-1       0.000233  0.000228  0.000037 -0.000637 -0.000707 -0.000619
  0C   1f+2      -0.000000 -0.000000 -0.000001  0.000003 -0.000001  0.000001
  0C   1f-2      -0.000000  0.000000 -0.000002  0.000003 -0.000004  0.000002
  0C   1f+3      -0.000073 -0.000068  0.000114 -0.003611  0.005224 -0.000826
  0C   1f-3      -0.000177  0.000062  0.000861 -0.000102  0.000385  0.000869
  1C   1s         0.009488 -0.015101 -0.001908 -0.047085  0.030696  0.051081
[...]
      3       0.015350  -0.016885  -0.039304  -0.034454  -0.030345  -0.200517
      4       0.107552  -0.019431  -0.023805  -0.044368   0.022844  -0.135096
      5       0.000037   0.000014  -0.000106   0.000098  -0.000120   0.000149
      6      -0.100702  -0.009859  -0.020993   0.101911  -0.012058   0.007851
      7      -0.019235  -0.014887   0.059712   0.051115   0.083510   0.177123
      8      -0.000075   0.000096  -0.000082  -0.000094  -0.000059  -0.000108
      9       0.077284  -0.046022   0.027594  -0.005049   0.013840   0.206930
     10      -0.043500   0.035001  -0.005139  -0.013869  -0.006843  -0.130224
     11       0.000273  -0.000335   0.000142  -0.000014   0.000029   0.000036
     12      -0.008745   0.057102   0.030753   0.003137  -0.085420  -0.144447
     13       0.058351   0.008987  -0.013244   0.119523  -0.007895  -0.094949
     14       0.000184   0.000366   0.000081   0.000116   0.000062   0.000017
     15      -0.087324   0.003765  -0.002654  -0.000745  -0.028779   0.029465
     16      -0.059475  -0.010596  -0.030033  -0.087042  -0.013450   0.246846
     17      -0.000451  -0.000222  -0.000152  -0.000014   0.000141  -0.000298
     18       0.351615  -0.104569  -0.514121   0.218612  -0.461640   0.461159
     19       0.304022  -0.068240  -0.289047   0.085479  -0.215345   0.232181
     20      -0.000875   0.000318   0.000997  -0.000462   0.000586  -0.000876
     21      -0.110060  -0.011048  -0.018294   0.112149  -0.017531   0.007908
     22      -0.259765  -0.248902   0.622479   0.506713  -0.321257   0.134718
     23       0.000454  -0.000514  -0.000171   0.000134  -0.000006  -0.000090
     24       0.451837  -0.546283   0.265056   0.014692   0.149807  -0.372966
     25      -0.264469   0.327618  -0.145926  -0.019616  -0.085595   0.208624
     26      -0.001331   0.001789  -0.000642   0.000135   0.000005   0.000918
     27       0.216618   0.531349   0.117388   0.428066   0.366440  -0.136967
     28       0.190857   0.273460   0.034352   0.365496   0.249979  -0.093006
     29      -0.001492  -0.002413  -0.000395  -0.001482  -0.000809  -0.000260
     30      -0.093114   0.003584  -0.002596  -0.008693  -0.029599   0.033602
     31      -0.536100  -0.382779  -0.371178  -0.151594   0.536873  -0.477246
     32       0.003282   0.002044   0.001546   0.000507  -0.001252   0.001492
     33      -0.004193  -0.002921  -0.005850   0.006618   0.000439   0.001838
     34       0.014091  -0.021185  -0.031484   0.129760   0.077595   0.024331
     35       0.000007  -0.000040  -0.000075  -0.000050  -0.000067   0.000008
     36      -0.014442  -0.001155  -0.003723   0.033296   0.004641   0.007584
     37      -0.010911  -0.000432  -0.001078   0.012159  -0.023293  -0.012214
     38      -0.000021   0.000011   0.000016   0.000005   0.000018   0.000016
     39      -0.038365  -0.029820  -0.040712   0.258617  -0.222069  -0.124790
     40      -0.008458  -0.041449  -0.058620   0.318476  -0.085184  -0.064136
     41      -0.000227   0.000136   0.000324  -0.000174   0.000026  -0.000136
                 30         31         32         33         34         35    
      0       0.020729  -0.134704   0.057049   0.216304  -0.174530  -0.096011
      1       0.012911   0.085750   0.130503  -0.170028  -0.119052   0.091893
      2       0.000004  -0.000106  -0.000086   0.000192   0.000014  -0.000123
      3       0.015270   0.010300  -0.113834  -0.185122   0.254516  -0.040339
      4      -0.018421  -0.100560  -0.018619   0.030503   0.190253  -0.083402
      5       0.000005   0.000069   0.000033  -0.000008  -0.000115   0.000055
      6      -0.006390   0.073510   0.033040   0.134715  -0.104011   0.011710
      7       0.056578   0.123390  -0.134131  -0.200094  -0.219031   0.092944
      8      -0.000032  -0.000077   0.000055   0.000125   0.000129  -0.000062
      9       0.003804  -0.114640   0.057021  -0.279269   0.122096   0.015298
     10      -0.001772   0.055812   0.081495   0.208039   0.081370  -0.041331
     11       0.000024   0.000046  -0.000064  -0.000106  -0.000040   0.000024
     12      -0.045982  -0.050171  -0.152928   0.136408  -0.232403   0.009873
     13      -0.042844  -0.110363  -0.043949  -0.102781  -0.189867   0.053577
     14       0.000041   0.000124   0.000063   0.000085   0.000130  -0.000027
     15       0.019282   0.085635   0.055174  -0.075243   0.109718   0.028411
     16       0.022643   0.037515  -0.111256   0.232174   0.237701  -0.115668
     17      -0.000013  -0.000047   0.000169  -0.000269  -0.000173   0.000118
     18      -0.073388   0.192849   0.379359   0.164931  -0.410199   0.111148
     19      -0.074093  -0.013701   0.267588   0.232042  -0.174297   0.009001
     20       0.000080  -0.000068  -0.000558  -0.000471   0.000539  -0.000064
     21      -0.007350   0.084108   0.045439   0.152908  -0.111785   0.012269
     22      -0.202479  -0.427934   0.459568   0.256771   0.257941  -0.086905
     23       0.000061   0.000306  -0.000087   0.000124  -0.000198   0.000055
     24       0.116670   0.528499   0.058622   0.471952   0.004936  -0.039742
     25      -0.068868  -0.322530   0.101677  -0.226865   0.163194  -0.012259
     26      -0.000062  -0.000532  -0.000001  -0.000652   0.000108   0.000046
     27       0.135492   0.346078   0.416557   0.044011   0.352373  -0.000153
     28       0.056369   0.095352   0.284079  -0.174347   0.129298   0.047898
     29      -0.000266  -0.000475  -0.000743   0.000282  -0.000646  -0.000042
     30       0.021866   0.097844   0.065924  -0.074076   0.121554   0.044829
     31       0.018034  -0.160831   0.439955  -0.330135  -0.330832   0.121351
     32       0.000039   0.000479  -0.000929   0.000905   0.000831  -0.000260
     33       0.011651  -0.024811  -0.017693   0.088499   0.089650   0.630988
     34      -0.086179  -0.006624  -0.035407   0.037499   0.032126   0.098929
     35       0.000089  -0.000033   0.000027   0.000053   0.000027   0.000409
     36      -0.077108   0.056217  -0.000321  -0.081706  -0.036839  -0.408702
     37       0.030061   0.000675   0.001420  -0.014353  -0.005553  -0.047574
     38      -0.000088   0.000042   0.000000  -0.000065  -0.000023  -0.000297
     39       0.811746  -0.296132   0.018305   0.104657  -0.147110  -0.313367
     40       0.474103  -0.192937  -0.010115   0.049580  -0.118029  -0.479116
     41       0.000149  -0.000085  -0.000043  -0.000000   0.000056   0.000284
                 36         37         38         39         40         41    
      0       0.002777   0.001474  -0.000700   0.000884   0.001390  -0.000002
      1      -0.000022   0.000728  -0.000053   0.000574  -0.001328   0.001200
      2       0.000004   0.000001   0.000000   0.000000   0.000001  -0.000001
      3      -0.000453  -0.036039   0.016720  -0.009596  -0.007423  -0.004935
      4       0.000746   0.063256  -0.030314   0.018299   0.017684   0.011067
      5      -0.000002  -0.000045   0.000023  -0.000019  -0.000015  -0.000014
      6      -0.000535   0.034151   0.011767  -0.042588  -0.053955  -0.039069
      7      -0.000273  -0.001667   0.001889  -0.001649   0.000496   0.001415
      8       0.000001   0.000009   0.000002  -0.000010  -0.000010  -0.000012
      9      -0.000278  -0.010872  -0.026217   0.021301  -0.012568  -0.022561
     10       0.000017  -0.018782  -0.045856   0.032054  -0.026615  -0.037665
     11      -0.000000   0.000013   0.000029  -0.000021   0.000015   0.000023
     12       0.000418  -0.007042  -0.024395  -0.023861  -0.006413   0.023303
     13      -0.000267   0.012732   0.045154   0.038855   0.017336  -0.041742
     14       0.000000  -0.000011  -0.000035  -0.000027  -0.000012   0.000037
     15      -0.000076   0.006142   0.020420   0.040078  -0.056955   0.046644
     16       0.000582  -0.000796  -0.000650  -0.001498  -0.000611   0.001747
     17       0.000000   0.000003   0.000010   0.000023  -0.000025   0.000024
     18       0.000623   0.415680  -0.195142   0.111287   0.099822   0.061112
     19      -0.009109  -0.739374   0.347855  -0.198927  -0.183445  -0.111280
     20       0.000007   0.000567  -0.000258   0.000133   0.000127   0.000067
     21       0.001103  -0.414521  -0.137585   0.493782   0.608069   0.434248
     22      -0.000868   0.004192  -0.001029  -0.000770  -0.004081  -0.004295
     23       0.000001  -0.000090  -0.000031   0.000094   0.000125   0.000084
     24       0.000008   0.130342   0.313810  -0.226592   0.164432   0.244927
     25       0.000530   0.222848   0.536400  -0.381301   0.286393   0.416450
     26      -0.000004  -0.000139  -0.000349   0.000238  -0.000196  -0.000271
     27      -0.001943   0.084310   0.295292   0.258182   0.097234  -0.258417
     28       0.001091  -0.150307  -0.528884  -0.456950  -0.179830   0.459828
     29       0.000001   0.000116   0.000416   0.000372   0.000136  -0.000352
     30      -0.006842  -0.071335  -0.248344  -0.473901   0.654236  -0.524912
     31       0.001782   0.001518   0.000776   0.003096  -0.001129  -0.000430
     32      -0.000003  -0.000045  -0.000139  -0.000252   0.000344  -0.000265
     33       0.042597   0.000432  -0.000006   0.000497  -0.000590   0.000730
     34      -0.069760   0.000848  -0.000453   0.000546   0.000019   0.000748
     35       0.000075  -0.000001   0.000002   0.000000  -0.000002  -0.000000
     36       0.002979  -0.000382   0.000090  -0.000377   0.000227  -0.000533
     37       0.000689  -0.000171   0.000168   0.000024  -0.000192  -0.000024
     38       0.000005  -0.000002  -0.000000   0.000004   0.000002   0.000004
     39      -0.569886   0.001641  -0.000733   0.001521  -0.000757   0.002527
     40       0.817550  -0.007233   0.003036  -0.004343   0.001951  -0.006469
     41      -0.001022   0.000007  -0.000002   0.000001  -0.000003   0.000004


-----------
IR SPECTRUM
-----------

 Mode    freq (cm**-1)   T**2         TX         TY         TZ
-------------------------------------------------------------------
   6:       105.70    6.851450  ( -0.005742   0.004229   2.617518)
   7:       214.87   12.039975  (  0.307545   3.455886   0.047346)
   8:       221.68   12.705412  (  0.011088   0.046072  -3.564150)
   9:       400.52    0.131938  (  0.001387  -0.014818   0.362927)
  10:       432.75    0.218299  ( -0.069590  -0.461573   0.020169)
  11:       446.90   12.726679  (  0.007970   0.019231   3.567386)
  12:       613.54    0.482744  (  0.164477  -0.674958  -0.011094)
  13:       642.07   43.761774  (  2.057369   6.287158  -0.025562)
  14:       678.89   68.739637  (  0.008590   0.018779   8.290911)
  15:       738.48   61.870405  ( -0.001611  -0.001459   7.865774)
  16:       814.37   47.084207  ( -1.787214  -6.624957  -0.003365)
  17:       829.66    0.008342  ( -0.016953  -0.053785  -0.071846)
  18:       912.00    1.620669  ( -0.005586  -0.027991  -1.272735)
  19:       950.40    0.001526  (  0.011850  -0.000500  -0.037224)
  20:       974.08    0.108246  (  0.001257  -0.015572  -0.328637)
  21:       989.58    2.181536  ( -0.716219  -1.291687   0.010577)
  22:       996.95    2.912346  ( -0.010423  -0.035894  -1.706150)
  23:      1010.92   10.453836  (  1.626652   2.794199  -0.016978)
  24:      1068.56   12.881207  (  3.126101  -1.763137   0.006896)
  25:      1144.78   16.842326  ( -2.676232  -3.111283   0.004790)
  26:      1148.66   35.626903  ( -2.866475  -5.235476   0.003223)
  27:      1190.78  123.513011  (  5.660388   9.564152   0.002338)
  28:      1301.81   31.733186  (  2.202194   5.184916  -0.013115)
  29:      1323.18    8.833770  (  2.956016  -0.309422   0.000452)
  30:      1383.80   15.619482  (  2.876683  -2.709993   0.010839)
  31:      1439.80   25.206399  ( -0.043344  -5.020407   0.005356)
  32:      1473.65    3.235883  ( -1.142801  -1.389204  -0.001274)
  33:      1557.70   48.234901  (  5.294734   4.494518   0.002863)
  34:      1574.44  108.850845  (  7.030845   7.708311   0.002539)
  35:      1652.35  434.542403  ( 18.691573   9.228617   0.010991)
  36:      2818.38  200.885670  (  5.370679 -13.116445   0.018948)
  37:      3092.98    5.716890  ( -0.766575   2.264785   0.000984)
  38:      3099.67    1.801253  ( -0.520883  -1.236903   0.002245)
  39:      3108.39   15.089701  ( -1.636134   3.523171  -0.005758)
  40:      3116.73   28.130478  ( -5.245551   0.783884  -0.014253)
  41:      3122.21   18.507689  ( -1.126422  -4.151971  -0.000048)

The first frequency considered to be a vibration is 6
The total number of vibrations considered is 36


--------------------------
THERMOCHEMISTRY AT 298.15K
--------------------------

Temperature         ... 298.15 K
Pressure            ... 1.00 atm
Total Mass          ... 106.12 AMU

Throughout the following assumptions are being made:
  (1) The electronic state is orbitally nondegenerate
  (2) There are no thermally accessible electronically excited states
  (3) Hindered rotations indicated by low frequency modes are not
      treated as such but are treated as vibrations and this may
      cause some error
  (4) All equations used are the standard statistical mechanics
      equations for an ideal gas
  (5) All vibrations are strictly harmonic

freq.     105.70  E(vib)   ...       0.45 
freq.     214.87  E(vib)   ...       0.34 
freq.     221.68  E(vib)   ...       0.33 
freq.     400.52  E(vib)   ...       0.19 
freq.     432.75  E(vib)   ...       0.17 
freq.     446.90  E(vib)   ...       0.17 
freq.     613.54  E(vib)   ...       0.10 
freq.     642.07  E(vib)   ...       0.09 
freq.     678.89  E(vib)   ...       0.08 
freq.     738.48  E(vib)   ...       0.06 
freq.     814.37  E(vib)   ...       0.05 
freq.     829.66  E(vib)   ...       0.04 
freq.     912.00  E(vib)   ...       0.03 
freq.     950.40  E(vib)   ...       0.03 
freq.     974.08  E(vib)   ...       0.03 
freq.     989.58  E(vib)   ...       0.02 
freq.     996.95  E(vib)   ...       0.02 
freq.    1010.92  E(vib)   ...       0.02 
freq.    1068.56  E(vib)   ...       0.02 
freq.    1144.78  E(vib)   ...       0.01 
freq.    1148.66  E(vib)   ...       0.01 
freq.    1190.78  E(vib)   ...       0.01 
freq.    1301.81  E(vib)   ...       0.01 
freq.    1323.18  E(vib)   ...       0.01 
freq.    1383.80  E(vib)   ...       0.00 
freq.    1439.80  E(vib)   ...       0.00 
freq.    1473.65  E(vib)   ...       0.00 
freq.    1557.70  E(vib)   ...       0.00 
freq.    1574.44  E(vib)   ...       0.00 
freq.    1652.35  E(vib)   ...       0.00 
freq.    2818.38  E(vib)   ...       0.00 
freq.    3092.98  E(vib)   ...       0.00 
freq.    3099.67  E(vib)   ...       0.00 
freq.    3108.39  E(vib)   ...       0.00 
freq.    3116.73  E(vib)   ...       0.00 
freq.    3122.21  E(vib)   ...       0.00 

------------
INNER ENERGY
------------

The inner energy is: U= E(el) + E(ZPE) + E(vib) + E(rot) + E(trans)
    E(el)   - is the total energy from the electronic structure calculation
              = E(kin-el) + E(nuc-el) + E(el-el) + E(nuc-nuc)
    E(ZPE)  - the the zero temperature vibrational energy from the frequency calculation
    E(vib)  - the the finite temperature correction to E(ZPE) due to population
              of excited vibrational states
    E(rot)  - is the rotational thermal energy
    E(trans)- is the translational thermal energy

Summary of contributions to the inner energy U:
Electronic energy                ...   -345.62577637 Eh
Zero point energy                ...      0.10614261 Eh      66.61 kcal/mol
Thermal vibrational correction   ...      0.00368457 Eh       2.31 kcal/mol
Thermal rotational correction    ...      0.00141627 Eh       0.89 kcal/mol
Thermal translational correction ...      0.00141627 Eh       0.89 kcal/mol
-----------------------------------------------------------------------
Total thermal energy                   -345.51311665 Eh


Summary of corrections to the electronic energy:
(perhaps to be used in another calculation)
Total thermal correction                  0.00651711 Eh       4.09 kcal/mol
Non-thermal (ZPE) correction              0.10614261 Eh      66.61 kcal/mol
-----------------------------------------------------------------------
Total correction                          0.11265972 Eh      70.69 kcal/mol


--------
ENTHALPY
--------

The enthalpy is H = U + kB*T
                kB is Boltzmann's constant
Total free energy                 ...   -345.51311665 Eh 
Thermal Enthalpy correction       ...      0.00094421 Eh       0.59 kcal/mol
-----------------------------------------------------------------------
Total Enthalpy                    ...   -345.51217244 Eh


Note: Only C1 symmetry has been detected, increase convergence thresholds 
      if your molecule has a higher symmetry. Symmetry factor of 1.0 is   
      used for the rotational entropy correction. 
 

Note: Rotational entropy computed according to Herzberg 
Infrared and Raman Spectra, Chapter V,1, Van Nostrand Reinhold, 1945 
Point Group:  C1, Symmetry Number:   1  
Rotational constants in cm-1:     0.173349     0.051579     0.039751 

Vibrational entropy computed according to the QRRHO of S. Grimme
Chem.Eur.J. 2012 18 9955


-------
ENTROPY
-------

The entropy contributions are T*S = T*(S(el)+S(vib)+S(rot)+S(trans))
     S(el)   - electronic entropy
     S(vib)  - vibrational entropy
     S(rot)  - rotational entropy
     S(trans)- translational entropy
The entropies will be listed as mutliplied by the temperature to get
units of energy

Electronic entropy                ...      0.00000000 Eh      0.00 kcal/mol
Vibrational entropy               ...      0.00591141 Eh      3.71 kcal/mol
Rotational entropy                ...      0.01326025 Eh      8.32 kcal/mol
Translational entropy             ...      0.01895542 Eh     11.89 kcal/mol
-----------------------------------------------------------------------
Final entropy term                ...      0.03812708 Eh     23.93 kcal/mol

In case the symmetry of your molecule has not been determined correctly
or in case you have a reason to use a different symmetry number we print 
out the resulting rotational entropy values for sn=1,12 :
 --------------------------------------------------------
|  sn= 1 | S(rot)=       0.01326025 Eh      8.32 kcal/mol|
|  sn= 2 | S(rot)=       0.01260579 Eh      7.91 kcal/mol|
|  sn= 3 | S(rot)=       0.01222296 Eh      7.67 kcal/mol|
|  sn= 4 | S(rot)=       0.01195134 Eh      7.50 kcal/mol|
|  sn= 5 | S(rot)=       0.01174065 Eh      7.37 kcal/mol|
|  sn= 6 | S(rot)=       0.01156850 Eh      7.26 kcal/mol|
|  sn= 7 | S(rot)=       0.01142296 Eh      7.17 kcal/mol|
|  sn= 8 | S(rot)=       0.01129688 Eh      7.09 kcal/mol|
|  sn= 9 | S(rot)=       0.01118567 Eh      7.02 kcal/mol|
|  sn=10 | S(rot)=       0.01108619 Eh      6.96 kcal/mol|
|  sn=11 | S(rot)=       0.01099620 Eh      6.90 kcal/mol|
|  sn=12 | S(rot)=       0.01091405 Eh      6.85 kcal/mol|
 --------------------------------------------------------


-------------------
GIBBS FREE ENERGY
-------------------

The Gibbs free energy is G = H - T*S

Total enthalpy                    ...   -345.51217244 Eh 
Total entropy correction          ...     -0.03812708 Eh    -23.93 kcal/mol
-----------------------------------------------------------------------
Final Gibbs free energy         ...   -345.55029953 Eh

For completeness - the Gibbs free energy minus the electronic energy
G-E(el)                           ...      0.07547685 Eh     47.36 kcal/mol


Timings for individual modules:

Sum of individual times         ...      336.367 sec (=   5.606 min)
GTO integral calculation        ...        4.057 sec (=   0.068 min)   1.2 %
SCF iterations                  ...       45.343 sec (=   0.756 min)  13.5 %
SCF Gradient evaluation         ...       16.198 sec (=   0.270 min)   4.8 %
Geometry relaxation             ...        1.308 sec (=   0.022 min)   0.4 %
Analytical frequency calculation...      269.462 sec (=   4.491 min)  80.1 %
                             ****ORCA TERMINATED NORMALLY****
TOTAL RUN TIME: 0 days 0 hours 5 minutes 37 seconds 472 msec
