(SLURM) JOB ID:         110

                                 *****************
                                 * O   R   C   A *
                                 *****************

           --- An Ab Initio, DFT and Semiempirical electronic structure package ---

                  #######################################################
                  #                        -***-                        #
                  #          Department of theory and spectroscopy      #
                  #               Directorship: Frank Neese             #
                  #        Max Planck Institute fuer Kohlenforschung    #
                  #                Kaiser Wilhelm Platz 1               #
                  #                 D-45470 Muelheim/Ruhr               #
                  #                      Germany                        #
                  #                                                     #
                  #                  All rights reserved                #
                  #                        -***-                        #
                  #######################################################


                         Program Version 4.2.1 -  RELEASE  -


 With contributions from (in alphabetic order):
   Daniel Aravena         : Magnetic Suceptibility
   Michael Atanasov       : Ab Initio Ligand Field Theory (pilot matlab implementation)
   Alexander A. Auer      : GIAO ZORA, VPT2
   Ute Becker             : Parallelization
   Giovanni Bistoni       : ED, misc. LED, open-shell LED, HFLD
   Martin Brehm           : Molecular dynamics
   Dmytro Bykov           : SCF Hessian
   Vijay G. Chilkuri      : MRCI spin determinant printing, contributions to CSF-ICE
   Dipayan Datta          : RHF DLPNO-CCSD density
   Achintya Kumar Dutta   : EOM-CC, STEOM-CC
   Dmitry Ganyushin       : Spin-Orbit,Spin-Spin,Magnetic field MRCI
   Miquel Garcia          : C-PCM Hessian, Gaussian charge scheme
   Yang Guo               : DLPNO-NEVPT2, CIM, IAO-localization
   Andreas Hansen         : Spin unrestricted coupled pair/coupled cluster methods
   Benjamin Helmich-Paris : CASSCF linear response (MC-RPA)
   Lee Huntington         : MR-EOM, pCC
   Robert Izsak           : Overlap fitted RIJCOSX, COSX-SCS-MP3, EOM
   Christian Kollmar      : KDIIS, OOCD, Brueckner-CCSD(T), CCSD density
   Simone Kossmann        : Meta GGA functionals, TD-DFT gradient, OOMP2, MP2 Hessian
   Martin Krupicka        : AUTO-CI
   Lucas Lang             : DCDCAS
   Dagmar Lenk            : GEPOL surface, SMD
   Dimitrios Liakos       : Extrapolation schemes; Compound Job, initial MDCI parallelization
   Dimitrios Manganas     : Further ROCIS development; embedding schemes
   Dimitrios Pantazis     : SARC Basis sets
   Taras Petrenko         : DFT Hessian,TD-DFT gradient, ASA, ECA, R-Raman, ABS, FL, XAS/XES, NRVS
   Peter Pinski           : DLPNO-MP2, DLPNO-MP2 Gradient
   Christoph Reimann      : Effective Core Potentials
   Marius Retegan         : Local ZFS, SOC
   Christoph Riplinger    : Optimizer, TS searches, QM/MM, DLPNO-CCSD(T), (RO)-DLPNO pert. Triples
   Tobias Risthaus        : Range-separated hybrids, TD-DFT gradient, RPA, STAB
   Michael Roemelt        : Original ROCIS implementation
   Masaaki Saitow         : Open-shell DLPNO-CCSD energy and density
   Barbara Sandhoefer     : DKH picture change effects
   Avijit Sen             : IP-ROCIS
   Kantharuban Sivalingam : CASSCF convergence, NEVPT2, FIC-MRCI
   Bernardo de Souza      : ESD, SOC TD-DFT
   Georgi Stoychev        : AutoAux, RI-MP2 NMR
   Willem Van den Heuvel  : Paramagnetic NMR
   Boris Wezisla          : Elementary symmetry handling
   Frank Wennmohs         : Technical directorship


 We gratefully acknowledge several colleagues who have allowed us to
 interface, adapt or use parts of their codes:
   Stefan Grimme, W. Hujo, H. Kruse,             : VdW corrections, initial TS optimization,
                  C. Bannwarth                     DFT functionals, gCP, sTDA/sTD-DF
   Ed Valeev, F. Pavosevic, A. Kumar             : LibInt (2-el integral package), F12 methods
   Garnet Chan, S. Sharma, J. Yang, R. Olivares  : DMRG
   Ulf Ekstrom                                   : XCFun DFT Library
   Mihaly Kallay                                 : mrcc  (arbitrary order and MRCC methods)
   Andreas Klamt, Michael Diedenhofen            : otool_cosmo (COSMO solvation model)
   Jiri Pittner, Ondrej Demel                    : Mk-CCSD
   Frank Weinhold                                : gennbo (NPA and NBO analysis)
   Christopher J. Cramer and Donald G. Truhlar   : smd solvation model
   Lars Goerigk                                  : TD-DFT with DH, B97 family of functionals
   V. Asgeirsson, H. Jonsson                     : NEB implementation
   FAccTs GmbH                                   : IRC, NEB, NEB-TS, Multilevel, MM, QM/MM, CI optimization
   S Lehtola, MJT Oliveira, MAL Marques          : LibXC Library


 Your calculation uses the libint2 library for the computation of 2-el integrals
 For citations please refer to: http://libint.valeyev.net

 Your ORCA version has been built with support for libXC version: 4.2.3
 For citations please refer to: https://tddft.org/programs/libxc/

 This ORCA versions uses:
   CBLAS   interface :  Fast vector & matrix operations
   LAPACKE interface :  Fast linear algebra routines
   SCALAPACK package :  Parallel linear algebra routines




***************************************
The coordinates will be read from file: init.xyz
***************************************


Your calculation utilizes the SMD solvation module
Please cite in your paper:
A.V. Marenich, C.J. Cramer, D.G. Truhlar J. Phys. Chem. B, 113, (2009), 6378 

Your calculation utilizes the semiempirical GFN2-xTB method
Please cite in your paper:
C. Bannwarth, Ehlert S., S. Grimme,  J. Chem. Theory Comput., 15, (2019), 1652.
   

----- Orbital basis set information -----
Your calculation utilizes the basis: def2-SVP
   F. Weigend and R. Ahlrichs, Phys. Chem. Chem. Phys. 7, 3297 (2005).

================================================================================
                                        WARNINGS
                       Please study these warnings very carefully!
================================================================================

WARNING: Gradients needed for Numerical Frequencies
  ===> : Setting RunTyp to EnGrad

WARNING: The environment variable RSH_COMMAND is not set!
  ===> : All Displacements for the Numerical Hessian calculation
         will be started on localhost

WARNING: Found dipole moment calculation with XTB calculation
  ===> : Switching off dipole moment calculation


INFO   : the flag for use of LIBINT has been found!

================================================================================
                                       INPUT FILE
================================================================================
NAME = /tmp/slurm-scratch/freq.110/freq.inp
|  1> ! XTB2 NumFreq
|  2> %maxcore 1450
|  3> 
|  4> * xyzfile 0 1 init.xyz
|  5> 
|  6> %cpcm
|  7>  smd true
|  8>  smdsolvent "ch2cl2"
|  9> end
| 10> %pal nprocs 8 end
| 11> 
| 12>                          ****END OF INPUT****
================================================================================

                     *******************************
                     * Energy+Gradient Calculation *
                     *******************************

      -----------------------------------------------------------      
     |                   =====================                   |     
     |                           x T B                           |     
     |                   =====================                   |     
     |                         S. Grimme                         |     
     |          Mulliken Center for Theoretical Chemistry        |     
     |                    University of Bonn                     |     
      -----------------------------------------------------------      

   * xtb version 6.3.0 (preview) compiled by 'ehlert@majestix' on 2020-01-15

   This program is distributed in the hope that it will be useful,
   but WITHOUT ANY WARRANTY; without even the implied warranty of
   MERCHANTABILITY or FITNESS FOR A PARTICULAR PURPOSE.
   
   FOR NON-COMMERCIAL, ACADEMIA USE ONLY.
   
   Cite this work as:
   * S. Grimme, C. Bannwarth, P. Shushkov, J. Chem. Theory Comput., 2017,
     13, 1989-2009. DOI: 10.1021/acs.jctc.7b00118
   * C. Bannwarth, S. Ehlert and S. Grimme., J. Chem. Theory Comput., 2019,
     15, 1652-1671. DOI: 10.1021/acs.jctc.8b01176
   * P. Pracht, E. Caldeweyher, S. Ehlert, S. Grimme, ChemRxiv, 2019, preprint.
     DOI: 10.26434/chemrxiv.8326202.v1
   * S. Grimme, S. Spicher unpublished
   
   for DFT-D4:
   * E. Caldeweyher, C. Bannwarth and S. Grimme, J. Chem. Phys., 2017,
     147, 034112. DOI: 10.1063/1.4993215
   * E. Caldeweyher, S. Ehlert, A. Hansen, H. Neugebauer, S. Spicher,
     C. Bannwarth and S. Grimme, J. Chem. Phys., 2019, 150, 154122.
     DOI: 10.1063/1.5090222
   
   for sTDA-xTB:
   * S. Grimme and C. Bannwarth, J. Chem. Phys., 2016, 145, 054103.
     DOI: 10.1063/1.4959605
   
   in the mass-spec context:
   * V. Asgeirsson, C. Bauer and S. Grimme, Chem. Sci., 2017, 8, 4879.
     DOI: 10.1039/c7sc00601b
   
   for metadynamics refer to:
   * S. Grimme, J. Chem. Theory Comput., 2019, 155, 2847-2862
     DOI: 10.1021/acs.jctc.9b00143
   
   with help from (in alphabetical order)
   C. Bannwarth, F. Bohle, G. Brandenburg, E. Caldeweyher, M. Checinski,
   S. Dohm, S. Ehlert, S. Ehrlich, F. März, H. Neugebauer, J. Pisarek,
   P. Pracht, P. Shushkov, and S. Spicher.
   
 * started run on 2020/08/21 at 16:51:10.920     

           -------------------------------------------------
          |                Calculation Setup                |
           -------------------------------------------------

          program call               : /opt/orca/otool_xtb /tmp/slurm-scratch/freq.110/freq_XTB.xyz --grad -c 0 -u 0 -P 8 --namespace /tmp/slurm-scratch/freq.110/freq --gbsa CH2Cl2
          hostname                   : headnode-pbs
          calculation namespace      : /tmp/slurm-scratch/freq.110/freq
          coordinate file            : /tmp/slurm-scratch/freq.110/freq_XTB.xyz
          omp threads                :                     8
          number of atoms            :                    36
          number of electrons        :                    88
          charge                     :                     0
          spin                       :                   0.0
          first test random number   :      0.61389670110364


molecular fragmentation (1/2 indicates fragments):
111111111111211111121222211111111111
# atoms in fragment 1/2:    30     6
 fragment masses (1/2) :      179.26       36.03
CMA distance (Bohr)    :   5.329
constraining FC (au)   :  0.0500

########################################################################
# WARNING! Please study the warnings concerning your input carefully
#  - Process number higher than OMP_NUM_THREADS, I hope you know what you are doing.
########################################################################

           ------------------------------------------------- 
          |                 G F N 2 - x T B                 |
          | Geometry, Frequencies, Noncovalent interactions |
          |            JCTC 2019 parametrisation            |
           ------------------------------------------------- 
             k(s)              :                1.8500
             k(p)              :                2.2300
             k(d)              :                2.2300
             k(f)              :                2.0000
             kEN (H0ij)        :               -2.0000
             D4 a1             :                0.5200
             D4 a2             :                5.0000
             D4 s6             :                1.0000
             D4 s8             :                2.7000
             D4 s9             :                5.0000
             alphaj            :                2.0000

  Z AO/shell   Hii/eV     exponent
  1     Wed Apr 25 08:07:45 CEST 2018   EN: 2.200 GM2: 0.406  GM3: 0.0800  RAES: 1.40
     1s    -10.707211    1.230000
  6     Wed Apr 25 08:07:45 CEST 2018   EN: 2.550 GM2: 0.538  GM3: 0.1500  RAES: 3.00
     2s    -13.970922    2.096432
     2p    -10.063292    1.800000
  7     Wed Apr 25 08:07:45 CEST 2018   EN: 3.040 GM2: 0.461  GM3:-0.0640  RAES: 1.90
     2s    -16.686243    2.339881
     2p    -12.523956    2.014332
  8     Wed Apr 25 08:07:45 CEST 2018   EN: 3.440 GM2: 0.452  GM3:-0.0517  RAES: 1.80
     2s    -20.229985    2.439742
     2p    -15.503117    2.137023

 Solvent             : CH2Cl2
 Using internal parameter file: .param_gbsa2_CH2Cl2
 Gsolv ref. state (COSMO-RS): gsolv [1 M gas/solution]
 temperature (mdtemp)       :    298.150000000000     
 dielectric constant        :    8.93000000000000     
 rho                        :    1.33000000000000     
 mass                       :    84.9300000000000     
 surface tension            :    15.5689454083859     
 probe radius               :   0.719875900000000     
 Gshift (Eh)                :   4.440829173451759E-003
 c1                         :    1.49173776000000     
 soset                      :   0.000000000000000E+000
 HB correction              :  F
           ------------------------------------------------- 
          |        Self-Consistent Charge Iterations        |
           ------------------------------------------------- 

          ...................................................
          :                      SETUP                      :
          :.................................................:
          :  # basis functions                  81          :
          :  # atomic orbitals                  81          :
          :  # shells                           51          :
          :  # electrons                        88          :
          :  max. iterations                   250          :
          :  Hamiltonian                  GFN2-xTB          :
          :  GBSA solvation                   true          :
          :  PC potential                    false          :
          :  electronic temp.          300.0000000     K    :
          :  accuracy                    1.0000000          :
          :  -> integral cutoff          0.2500000E+02      :
          :  -> integral neglect         0.1000000E-07      :
          :  -> SCF convergence          0.1000000E-05 Eh   :
          :  -> wf. convergence          0.1000000E-03 e    :
          :  Broyden damping             0.4000000          :
          ...................................................
  Checking positiv definite overlap ...  done.
 

 iter      E             dE          RMSdq      gap      omega  full diag
   1    -49.9048567 -0.499049E+02  0.391E+00    3.99       0.0  T
   2    -49.9456051 -0.407485E-01  0.227E+00    4.28       1.0  T
   3    -49.9443995  0.120565E-02  0.646E-01    4.26       1.0  T
   4    -49.9473173 -0.291777E-02  0.244E-01    4.27       1.0  T
   5    -49.9490696 -0.175232E-02  0.723E-02    4.27       1.0  T
   6    -49.9490893 -0.197279E-04  0.312E-02    4.28       1.0  T
   7    -49.9490917 -0.240035E-05  0.119E-02    4.28       1.4  T
   8    -49.9490936 -0.192724E-05  0.449E-03    4.28       3.7  T
   9    -49.9490938 -0.185707E-06  0.225E-03    4.28       7.4  T
  10    -49.9490938 -0.175525E-07  0.966E-04    4.28      17.3  T
  11    -49.9490939 -0.841802E-08  0.415E-04    4.28      40.1  T

   *** convergence criteria satisfied after 11 iterations ***

         #    Occupation            Energy/Eh            Energy/eV
      -------------------------------------------------------------
         1        2.0000           -0.6865428             -18.6818
       ...           ...                  ...                  ...
        38        2.0000           -0.4359052             -11.8616
        39        2.0000           -0.4271113             -11.6223
        40        2.0000           -0.4234826             -11.5235
        41        2.0000           -0.4095178             -11.1435
        42        2.0000           -0.4086035             -11.1187
        43        2.0000           -0.4072634             -11.0822
        44        2.0000           -0.3928245             -10.6893 (HOMO)
        45                         -0.2355881              -6.4107 (LUMO)
        46                         -0.2324233              -6.3246
        47                         -0.1120672              -3.0495
        48                         -0.0255285              -0.6947
        49                          0.0124223               0.3380
       ...                                ...                  ...
        81                          0.6141595              16.7121
      -------------------------------------------------------------
                  HL-Gap            0.1572364 Eh            4.2786 eV
             Fermi-level           -0.3142063 Eh           -8.5500 eV

 SCC (total)                   0 d,  0 h,  0 min,  0.039 sec
 SCC setup                      ...        0 min,  0.002 sec (  4.125%)
 Dispersion                     ...        0 min,  0.000 sec (  1.141%)
 integral evaluation            ...        0 min,  0.009 sec ( 23.989%)
 zeroth order Hamiltonian       ...        0 min,  0.000 sec (  0.038%)
 iterations                     ...        0 min,  0.018 sec ( 45.808%)
 molecular gradient             ...        0 min,  0.009 sec ( 23.640%)
 printout                       ...        0 min,  0.000 sec (  1.118%)

         :::::::::::::::::::::::::::::::::::::::::::::::::::::
         ::                     SUMMARY                     ::
         :::::::::::::::::::::::::::::::::::::::::::::::::::::
         :: total energy             -49.382993755805 Eh    ::
         :: total w/o Gsasa/hb       -49.365252332861 Eh    ::
         :: gradient norm              0.054271317472 Eh/a0 ::
         :: HOMO-LUMO gap              4.278619036659 eV    ::
         ::.................................................::
         :: SCC energy               -49.966835273757 Eh    ::
         :: -> isotropic ES            0.107745419680 Eh    ::
         :: -> anisotropic ES         -0.004526925573 Eh    ::
         :: -> anisotropic XC          0.022505934053 Eh    ::
         :: -> dispersion             -0.029328306684 Eh    ::
         :: -> Gsolv                  -0.024908562277 Eh    ::
         ::    -> Gborn               -0.007167139333 Eh    ::
         ::    -> Gsasa               -0.022182252118 Eh    ::
         ::    -> Ghb                  0.000000000000 Eh    ::
         ::    -> Gshift               0.004440829173 Eh    ::
         :: repulsion energy           0.583553685620 Eh    ::
         :: add. restraining           0.000000000000 Eh    ::
         :::::::::::::::::::::::::::::::::::::::::::::::::::::

           -------------------------------------------------
          |                Property Printout                |
           -------------------------------------------------

    * Orbital Energies and Occupations

         #    Occupation            Energy/Eh            Energy/eV
      -------------------------------------------------------------
         1        2.0000           -0.6865428             -18.6818
       ...           ...                  ...                  ...
        32        2.0000           -0.4666156             -12.6973
        33        2.0000           -0.4494418             -12.2299
        34        2.0000           -0.4464815             -12.1494
        35        2.0000           -0.4455359             -12.1237
        36        2.0000           -0.4423042             -12.0357
        37        2.0000           -0.4377981             -11.9131
        38        2.0000           -0.4359052             -11.8616
        39        2.0000           -0.4271113             -11.6223
        40        2.0000           -0.4234826             -11.5235
        41        2.0000           -0.4095178             -11.1435
        42        2.0000           -0.4086035             -11.1187
        43        2.0000           -0.4072634             -11.0822
        44        2.0000           -0.3928245             -10.6893 (HOMO)
        45                         -0.2355881              -6.4107 (LUMO)
        46                         -0.2324233              -6.3246
        47                         -0.1120672              -3.0495
        48                         -0.0255285              -0.6947
        49                          0.0124223               0.3380
        50                          0.0452123               1.2303
        51                          0.0558339               1.5193
        52                          0.0609863               1.6595
        53                          0.0861076               2.3431
        54                          0.0936330               2.5479
        55                          0.1087687               2.9597
       ...                                ...                  ...
        81                          0.6141595              16.7121
      -------------------------------------------------------------
                  HL-Gap            0.1572364 Eh            4.2786 eV
             Fermi-level           -0.3142063 Eh           -8.5500 eV

     #   Z        covCN         q      C6AA      α(0)
     1   6 C      2.959    -0.018    28.458     8.750
     2   6 C      2.913    -0.040    28.996     8.830
     3   6 C      2.908    -0.030    28.747     8.792
     4   6 C      2.908    -0.030    28.760     8.794
     5   6 C      2.908    -0.030    28.744     8.791
     6   6 C      2.911    -0.035    28.882     8.812
     7   6 C      3.659     0.178    18.010     6.090
     8   1 H      0.924     0.028     2.610     2.527
     9   1 H      0.925     0.057     2.235     2.338
    10   1 H      0.925     0.040     2.445     2.445
    11   7 N      2.674    -0.299    27.697     7.816
    12   6 C      3.730     0.015    20.420     6.451
    13   1 H      0.796     0.312     0.688     1.303
    14   6 C      3.797    -0.070    21.838     6.654
    15   1 H      0.923     0.036     2.507     2.476
    16   1 H      0.923     0.021     2.712     2.576
    17   1 H      0.924     0.050     2.319     2.381
    18   1 H      0.923     0.049     2.332     2.388
    19   8 O      1.650    -0.488    22.634     6.422
    20   8 O      1.602    -0.626    25.810     6.856
    21   1 H      0.800     0.329     0.640     1.257
    22   1 H      0.804     0.290     0.753     1.363
    23   8 O      1.598    -0.618    25.642     6.834
    24   1 H      0.799     0.324     0.653     1.270
    25   1 H      0.804     0.288     0.758     1.368
    26   1 H      0.923     0.018     2.757     2.597
    27   1 H      0.859     0.152     1.388     1.845
    28   6 C      3.796    -0.053    21.523     6.606
    29   1 H      0.923     0.031     2.573     2.509
    30   1 H      0.923     0.029     2.595     2.519
    31   1 H      0.925     0.042     2.422     2.434
    32   1 H      0.925     0.040     2.453     2.449
    33   6 C      3.745    -0.102    22.513     6.768
    34   1 H      0.923     0.036     2.509     2.477
    35   1 H      0.923     0.037     2.496     2.471
    36   1 H      0.923     0.035     2.511     2.478

 Mol. C6AA /au·bohr⁶  :      10806.993210
 Mol. C8AA /au·bohr⁸  :     237449.665510
 Mol. α(0) /au        :        158.737331


Wiberg/Mayer (AO) data.
largest (>0.10) Wiberg bond orders for each atom
          total WBO             WBO to atom ...
     1  C   3.985        C    6 1.420    C    2 1.411    C    7 0.974    C    4 0.110
     2  C   3.990        C    3 1.447    C    1 1.411    H    8 0.969    C    5 0.112
     3  C   3.990        C    2 1.447    C    4 1.435    H   32 0.971    C    6 0.111
     4  C   3.990        C    5 1.442    C    3 1.435    H   10 0.971    C    1 0.110
     5  C   3.990        C    4 1.442    C    6 1.438    H   31 0.971    C    2 0.112
     6  C   3.989        C    5 1.438    C    1 1.420    H    9 0.963    C    3 0.111
     7  C   3.951        O   19 1.011    C    1 0.974    N   11 0.963    H   26 0.951
     8  H   0.999        C    2 0.969
     9  H   0.997        C    6 0.963
    10  H   0.998        C    4 0.971
    11  N   3.141        C   12 0.988    C    7 0.963    H   27 0.953
    12  C   3.975        C   14 1.006    N   11 0.988    H   15 0.977    H   16 0.970
    13  H   0.903        O   23 0.812
    14  C   3.993        C   12 1.006    C   28 1.005    H   18 0.975    H   17 0.974
    15  H   0.998        C   12 0.977
    16  H   0.999        C   12 0.970
    17  H   0.997        C   14 0.974
    18  H   0.998        C   14 0.975
    19  O   1.951        C    7 1.011    H   21 0.821
    20  O   1.852        H   22 0.913    H   24 0.827
    21  H   0.892        O   19 0.821
    22  H   0.916        O   20 0.913
    23  O   1.869        H   25 0.914    H   13 0.812
    24  H   0.895        O   20 0.827
    25  H   0.917        O   23 0.914
    26  H   0.999        C    7 0.951
    27  H   0.977        N   11 0.953
    28  C   3.996        C   33 1.019    C   14 1.005    H   30 0.978    H   29 0.978
    29  H   0.999        C   28 0.978
    30  H   0.999        C   28 0.978
    31  H   0.998        C    5 0.971
    32  H   0.998        C    3 0.971
    33  C   3.996        C   28 1.019    H   36 0.988    H   35 0.988    H   34 0.987
    34  H   0.998        C   33 0.987
    35  H   0.999        C   33 0.988
    36  H   0.999        C   33 0.988

molecular dipole:
                 x           y           z       tot (Debye)
 q only:       -0.171       0.553       0.912
   full:       -0.253       0.996       1.036       3.708
molecular quadrupole (traceless):
                xx          xy          yy          xz          yz          zz
 q only:        7.970       0.331      -0.587       0.841      -0.202      -7.383
  q+dip:        7.395       1.847       3.344      -0.822      -1.548     -10.739
   full:        7.075       1.499       1.689      -0.180      -0.954      -8.764

           -------------------------------------------------
          |                Property Printout                |
           -------------------------------------------------

    * Orbital Energies and Occupations

         #    Occupation            Energy/Eh            Energy/eV
      -------------------------------------------------------------
         1        2.0000           -0.6865428             -18.6818
       ...           ...                  ...                  ...
        32        2.0000           -0.4666156             -12.6973
        33        2.0000           -0.4494418             -12.2299
        34        2.0000           -0.4464815             -12.1494
        35        2.0000           -0.4455359             -12.1237
        36        2.0000           -0.4423042             -12.0357
        37        2.0000           -0.4377981             -11.9131
        38        2.0000           -0.4359052             -11.8616
        39        2.0000           -0.4271113             -11.6223
        40        2.0000           -0.4234826             -11.5235
        41        2.0000           -0.4095178             -11.1435
        42        2.0000           -0.4086035             -11.1187
        43        2.0000           -0.4072634             -11.0822
        44        2.0000           -0.3928245             -10.6893 (HOMO)
        45                         -0.2355881              -6.4107 (LUMO)
        46                         -0.2324233              -6.3246
        47                         -0.1120672              -3.0495
        48                         -0.0255285              -0.6947
        49                          0.0124223               0.3380
        50                          0.0452123               1.2303
        51                          0.0558339               1.5193
        52                          0.0609863               1.6595
        53                          0.0861076               2.3431
        54                          0.0936330               2.5479
        55                          0.1087687               2.9597
       ...                                ...                  ...
        81                          0.6141595              16.7121
      -------------------------------------------------------------
                  HL-Gap            0.1572364 Eh            4.2786 eV
             Fermi-level           -0.3142063 Eh           -8.5500 eV

     #   Z        covCN         q      C6AA      α(0)
     1   6 C      2.959    -0.018    28.458     8.750
     2   6 C      2.913    -0.040    28.996     8.830
     3   6 C      2.908    -0.030    28.747     8.792
     4   6 C      2.908    -0.030    28.760     8.794
     5   6 C      2.908    -0.030    28.744     8.791
     6   6 C      2.911    -0.035    28.882     8.812
     7   6 C      3.659     0.178    18.010     6.090
     8   1 H      0.924     0.028     2.610     2.527
     9   1 H      0.925     0.057     2.235     2.338
    10   1 H      0.925     0.040     2.445     2.445
    11   7 N      2.674    -0.299    27.697     7.816
    12   6 C      3.730     0.015    20.420     6.451
    13   1 H      0.796     0.312     0.688     1.303
    14   6 C      3.797    -0.070    21.838     6.654
    15   1 H      0.923     0.036     2.507     2.476
    16   1 H      0.923     0.021     2.712     2.576
    17   1 H      0.924     0.050     2.319     2.381
    18   1 H      0.923     0.049     2.332     2.388
    19   8 O      1.650    -0.488    22.634     6.422
    20   8 O      1.602    -0.626    25.810     6.856
    21   1 H      0.800     0.329     0.640     1.257
    22   1 H      0.804     0.290     0.753     1.363
    23   8 O      1.598    -0.618    25.642     6.834
    24   1 H      0.799     0.324     0.653     1.270
    25   1 H      0.804     0.288     0.758     1.368
    26   1 H      0.923     0.018     2.757     2.597
    27   1 H      0.859     0.152     1.388     1.845
    28   6 C      3.796    -0.053    21.523     6.606
    29   1 H      0.923     0.031     2.573     2.509
    30   1 H      0.923     0.029     2.595     2.519
    31   1 H      0.925     0.042     2.422     2.434
    32   1 H      0.925     0.040     2.453     2.449
    33   6 C      3.745    -0.102    22.513     6.768
    34   1 H      0.923     0.036     2.509     2.477
    35   1 H      0.923     0.037     2.496     2.471
    36   1 H      0.923     0.035     2.511     2.478

 Mol. C6AA /au·bohr⁶  :      10806.993210
 Mol. C8AA /au·bohr⁸  :     237449.665510
 Mol. α(0) /au        :        158.737331


Wiberg/Mayer (AO) data.
largest (>0.10) Wiberg bond orders for each atom
          total WBO             WBO to atom ...
     1  C   3.985        C    6 1.420    C    2 1.411    C    7 0.974    C    4 0.110
     2  C   3.990        C    3 1.447    C    1 1.411    H    8 0.969    C    5 0.112
     3  C   3.990        C    2 1.447    C    4 1.435    H   32 0.971    C    6 0.111
     4  C   3.990        C    5 1.442    C    3 1.435    H   10 0.971    C    1 0.110
     5  C   3.990        C    4 1.442    C    6 1.438    H   31 0.971    C    2 0.112
     6  C   3.989        C    5 1.438    C    1 1.420    H    9 0.963    C    3 0.111
     7  C   3.951        O   19 1.011    C    1 0.974    N   11 0.963    H   26 0.951
     8  H   0.999        C    2 0.969
     9  H   0.997        C    6 0.963
    10  H   0.998        C    4 0.971
    11  N   3.141        C   12 0.988    C    7 0.963    H   27 0.953
    12  C   3.975        C   14 1.006    N   11 0.988    H   15 0.977    H   16 0.970
    13  H   0.903        O   23 0.812
    14  C   3.993        C   12 1.006    C   28 1.005    H   18 0.975    H   17 0.974
    15  H   0.998        C   12 0.977
    16  H   0.999        C   12 0.970
    17  H   0.997        C   14 0.974
    18  H   0.998        C   14 0.975
    19  O   1.951        C    7 1.011    H   21 0.821
    20  O   1.852        H   22 0.913    H   24 0.827
    21  H   0.892        O   19 0.821
    22  H   0.916        O   20 0.913
    23  O   1.869        H   25 0.914    H   13 0.812
    24  H   0.895        O   20 0.827
    25  H   0.917        O   23 0.914
    26  H   0.999        C    7 0.951
    27  H   0.977        N   11 0.953
    28  C   3.996        C   33 1.019    C   14 1.005    H   30 0.978    H   29 0.978
    29  H   0.999        C   28 0.978
    30  H   0.999        C   28 0.978
    31  H   0.998        C    5 0.971
    32  H   0.998        C    3 0.971
    33  C   3.996        C   28 1.019    H   36 0.988    H   35 0.988    H   34 0.987
    34  H   0.998        C   33 0.987
    35  H   0.999        C   33 0.988
    36  H   0.999        C   33 0.988

molecular dipole:
                 x           y           z       tot (Debye)
 q only:       -0.171       0.553       0.912
   full:       -0.253       0.996       1.036       3.708
molecular quadrupole (traceless):
                xx          xy          yy          xz          yz          zz
 q only:        7.970       0.331      -0.587       0.841      -0.202      -7.383
  q+dip:        7.395       1.847       3.344      -0.822      -1.548     -10.739
   full:        7.075       1.499       1.689      -0.180      -0.954      -8.764


           -------------------------------------------------
          | TOTAL ENERGY              -49.382993755805 Eh   |
          | GRADIENT NORM               0.054271317472 Eh/α |
          | HOMO-LUMO GAP               4.278619036659 eV   |
           -------------------------------------------------

------------------------------------------------------------------------
 * finished run on 2020/08/21 at 16:51:11.020     
------------------------------------------------------------------------
 total:
 * wall-time:     0 d,  0 h,  0 min,  0.100 sec
 *  cpu-time:     0 d,  0 h,  0 min,  0.734 sec
 * ratio c/w:     7.359 speedup
 SCF:
 * wall-time:     0 d,  0 h,  0 min,  0.040 sec
 *  cpu-time:     0 d,  0 h,  0 min,  0.313 sec
 * ratio c/w:     7.907 speedup


-------------------------   --------------------
FINAL SINGLE POINT ENERGY       -49.382993755810
-------------------------   --------------------


----------------------------------------------------------------------------
                           ORCA NUMERICAL FREQUENCIES
                              (8-process run)
----------------------------------------------------------------------------

Number of atoms                ... 36
Central differences            ... used
Number of displacements        ... 216
Numerical increment            ... 5.000e-03 bohr
IR-spectrum generation         ... on
Raman-spectrum generation      ... off
Surface Crossing Hessian       ... off
List of participating nodes    ...  /tmp/slurm-scratch/freq.110/freq.hostnames

The output will be reduced. Please look at the following files:
SCF program output             ... >/tmp/slurm-scratch/freq.110/freq.lastscf
Integral program output        ... >/tmp/slurm-scratch/freq.110/freq.lastint
Gradient program output        ... >/tmp/slurm-scratch/freq.110/freq.lastgrad
Dipole moment program output   ... >/tmp/slurm-scratch/freq.110/freq.lastmom
AutoCI program output          ... >/tmp/slurm-scratch/freq.110/freq.lastautoci


         <<< Energy and Gradient at the input geometry >>>

        <<< Energy and Gradient at displaced geometries >>>
             <<<Displacing   2/coordinate 2 (+)>>>
             <<<Displacing   3/coordinate 1 (+)>>>
             <<<Displacing   1/coordinate 1 (+)>>>
             <<<Displacing   2/coordinate 3 (+)>>>
             <<<Displacing   3/coordinate 2 (+)>>>
             <<<Displacing   2/coordinate 1 (+)>>>
             <<<Displacing   1/coordinate 3 (+)>>>
             <<<Displacing   1/coordinate 2 (+)>>>
             <<<Displacing   1/coordinate 2 (-)>>>
             <<<Displacing   2/coordinate 2 (-)>>>
             <<<Displacing   2/coordinate 1 (-)>>>
             <<<Displacing   3/coordinate 1 (-)>>>
             <<<Displacing   1/coordinate 1 (-)>>>
             <<<Displacing   3/coordinate 2 (-)>>>
             <<<Displacing   2/coordinate 3 (-)>>>
             <<<Displacing   1/coordinate 3 (-)>>>
             <<<Displacing   3/coordinate 3 (+)>>>
             <<<Displacing   4/coordinate 3 (+)>>>
             <<<Displacing   6/coordinate 1 (+)>>>
             <<<Displacing   5/coordinate 1 (+)>>>
             <<<Displacing   5/coordinate 2 (+)>>>
             <<<Displacing   4/coordinate 1 (+)>>>
             <<<Displacing   3/coordinate 3 (-)>>>
             <<<Displacing   5/coordinate 3 (+)>>>
             <<<Displacing   4/coordinate 3 (-)>>>
             <<<Displacing   5/coordinate 1 (-)>>>
             <<<Displacing   4/coordinate 2 (+)>>>
             <<<Displacing   6/coordinate 1 (-)>>>
             <<<Displacing   5/coordinate 2 (-)>>>
             <<<Displacing   5/coordinate 3 (-)>>>
             <<<Displacing   4/coordinate 1 (-)>>>
             <<<Displacing   4/coordinate 2 (-)>>>
             <<<Displacing   7/coordinate 1 (+)>>>
             <<<Displacing   6/coordinate 2 (+)>>>
             <<<Displacing   7/coordinate 3 (+)>>>
             <<<Displacing   8/coordinate 1 (+)>>>
             <<<Displacing   7/coordinate 1 (-)>>>
             <<<Displacing   6/coordinate 3 (+)>>>
             <<<Displacing   7/coordinate 2 (+)>>>
             <<<Displacing   8/coordinate 2 (+)>>>
             <<<Displacing   6/coordinate 2 (-)>>>
             <<<Displacing   7/coordinate 3 (-)>>>
             <<<Displacing   8/coordinate 3 (+)>>>
             <<<Displacing   6/coordinate 3 (-)>>>
             <<<Displacing   7/coordinate 2 (-)>>>
             <<<Displacing   8/coordinate 1 (-)>>>
             <<<Displacing   8/coordinate 2 (-)>>>
             <<<Displacing   8/coordinate 3 (-)>>>
             <<<Displacing   9/coordinate 1 (+)>>>
             <<<Displacing   9/coordinate 2 (+)>>>
             <<<Displacing  10/coordinate 2 (+)>>>
             <<<Displacing  10/coordinate 1 (+)>>>
             <<<Displacing   9/coordinate 1 (-)>>>
             <<<Displacing   9/coordinate 3 (+)>>>
             <<<Displacing   9/coordinate 2 (-)>>>
             <<<Displacing  11/coordinate 2 (+)>>>
             <<<Displacing  10/coordinate 2 (-)>>>
             <<<Displacing  10/coordinate 3 (+)>>>
             <<<Displacing  11/coordinate 1 (+)>>>
             <<<Displacing  10/coordinate 1 (-)>>>
             <<<Displacing   9/coordinate 3 (-)>>>
             <<<Displacing  10/coordinate 3 (-)>>>
             <<<Displacing  11/coordinate 2 (-)>>>
             <<<Displacing  11/coordinate 1 (-)>>>
             <<<Displacing  11/coordinate 3 (+)>>>
             <<<Displacing  12/coordinate 1 (+)>>>
             <<<Displacing  12/coordinate 3 (+)>>>
             <<<Displacing  12/coordinate 2 (+)>>>
             <<<Displacing  11/coordinate 3 (-)>>>
             <<<Displacing  13/coordinate 1 (+)>>>
             <<<Displacing  13/coordinate 2 (+)>>>
             <<<Displacing  13/coordinate 3 (+)>>>
             <<<Displacing  12/coordinate 1 (-)>>>
             <<<Displacing  12/coordinate 2 (-)>>>
             <<<Displacing  12/coordinate 3 (-)>>>
             <<<Displacing  13/coordinate 1 (-)>>>
             <<<Displacing  14/coordinate 1 (+)>>>
             <<<Displacing  13/coordinate 3 (-)>>>
             <<<Displacing  13/coordinate 2 (-)>>>
             <<<Displacing  14/coordinate 1 (-)>>>
             <<<Displacing  14/coordinate 2 (+)>>>
             <<<Displacing  15/coordinate 1 (+)>>>
             <<<Displacing  14/coordinate 3 (+)>>>
             <<<Displacing  15/coordinate 2 (+)>>>
             <<<Displacing  15/coordinate 3 (+)>>>
             <<<Displacing  16/coordinate 2 (+)>>>
             <<<Displacing  16/coordinate 1 (+)>>>
             <<<Displacing  14/coordinate 2 (-)>>>
             <<<Displacing  15/coordinate 1 (-)>>>
             <<<Displacing  14/coordinate 3 (-)>>>
             <<<Displacing  16/coordinate 3 (+)>>>
             <<<Displacing  15/coordinate 2 (-)>>>
             <<<Displacing  15/coordinate 3 (-)>>>
             <<<Displacing  16/coordinate 2 (-)>>>
             <<<Displacing  16/coordinate 1 (-)>>>
             <<<Displacing  16/coordinate 3 (-)>>>
             <<<Displacing  17/coordinate 1 (+)>>>
             <<<Displacing  17/coordinate 2 (+)>>>
             <<<Displacing  18/coordinate 1 (+)>>>
             <<<Displacing  17/coordinate 1 (-)>>>
             <<<Displacing  17/coordinate 3 (+)>>>
             <<<Displacing  17/coordinate 2 (-)>>>
             <<<Displacing  19/coordinate 1 (+)>>>
             <<<Displacing  18/coordinate 1 (-)>>>
             <<<Displacing  19/coordinate 2 (+)>>>
             <<<Displacing  18/coordinate 3 (+)>>>
             <<<Displacing  18/coordinate 2 (+)>>>
             <<<Displacing  17/coordinate 3 (-)>>>
             <<<Displacing  19/coordinate 1 (-)>>>
             <<<Displacing  18/coordinate 2 (-)>>>
             <<<Displacing  19/coordinate 2 (-)>>>
             <<<Displacing  18/coordinate 3 (-)>>>
             <<<Displacing  19/coordinate 3 (+)>>>
             <<<Displacing  20/coordinate 2 (+)>>>
             <<<Displacing  20/coordinate 3 (+)>>>
             <<<Displacing  19/coordinate 3 (-)>>>
             <<<Displacing  20/coordinate 1 (+)>>>
             <<<Displacing  21/coordinate 1 (+)>>>
             <<<Displacing  22/coordinate 1 (+)>>>
             <<<Displacing  20/coordinate 2 (-)>>>
             <<<Displacing  21/coordinate 2 (+)>>>
             <<<Displacing  20/coordinate 3 (-)>>>
             <<<Displacing  21/coordinate 3 (+)>>>
             <<<Displacing  21/coordinate 1 (-)>>>
             <<<Displacing  20/coordinate 1 (-)>>>
             <<<Displacing  22/coordinate 1 (-)>>>
             <<<Displacing  21/coordinate 3 (-)>>>
             <<<Displacing  21/coordinate 2 (-)>>>
             <<<Displacing  22/coordinate 2 (+)>>>
             <<<Displacing  22/coordinate 3 (+)>>>
             <<<Displacing  22/coordinate 2 (-)>>>
             <<<Displacing  23/coordinate 1 (+)>>>
             <<<Displacing  22/coordinate 3 (-)>>>
             <<<Displacing  24/coordinate 1 (+)>>>
             <<<Displacing  23/coordinate 2 (+)>>>
             <<<Displacing  23/coordinate 3 (+)>>>
             <<<Displacing  23/coordinate 1 (-)>>>
             <<<Displacing  24/coordinate 2 (+)>>>
             <<<Displacing  24/coordinate 3 (+)>>>
             <<<Displacing  23/coordinate 3 (-)>>>
             <<<Displacing  23/coordinate 2 (-)>>>
             <<<Displacing  24/coordinate 1 (-)>>>
             <<<Displacing  24/coordinate 2 (-)>>>
             <<<Displacing  24/coordinate 3 (-)>>>
             <<<Displacing  25/coordinate 1 (+)>>>
             <<<Displacing  25/coordinate 1 (-)>>>
             <<<Displacing  26/coordinate 2 (+)>>>
             <<<Displacing  25/coordinate 3 (+)>>>
             <<<Displacing  25/coordinate 2 (+)>>>
             <<<Displacing  27/coordinate 1 (+)>>>
             <<<Displacing  26/coordinate 1 (+)>>>
             <<<Displacing  26/coordinate 3 (+)>>>
             <<<Displacing  26/coordinate 2 (-)>>>
             <<<Displacing  25/coordinate 3 (-)>>>
             <<<Displacing  27/coordinate 2 (+)>>>
             <<<Displacing  27/coordinate 1 (-)>>>
             <<<Displacing  25/coordinate 2 (-)>>>
             <<<Displacing  26/coordinate 1 (-)>>>
             <<<Displacing  26/coordinate 3 (-)>>>
             <<<Displacing  27/coordinate 2 (-)>>>
             <<<Displacing  27/coordinate 3 (+)>>>
             <<<Displacing  27/coordinate 3 (-)>>>
             <<<Displacing  28/coordinate 2 (+)>>>
             <<<Displacing  28/coordinate 3 (+)>>>
             <<<Displacing  29/coordinate 3 (+)>>>
             <<<Displacing  29/coordinate 1 (+)>>>
             <<<Displacing  28/coordinate 1 (+)>>>
             <<<Displacing  28/coordinate 2 (-)>>>
             <<<Displacing  30/coordinate 1 (+)>>>
             <<<Displacing  29/coordinate 2 (+)>>>
             <<<Displacing  28/coordinate 3 (-)>>>
             <<<Displacing  29/coordinate 1 (-)>>>
             <<<Displacing  29/coordinate 3 (-)>>>
             <<<Displacing  28/coordinate 1 (-)>>>
             <<<Displacing  30/coordinate 1 (-)>>>
             <<<Displacing  29/coordinate 2 (-)>>>
             <<<Displacing  30/coordinate 2 (+)>>>
             <<<Displacing  30/coordinate 2 (-)>>>
             <<<Displacing  30/coordinate 3 (+)>>>
             <<<Displacing  30/coordinate 3 (-)>>>
             <<<Displacing  31/coordinate 2 (+)>>>
             <<<Displacing  31/coordinate 1 (+)>>>
             <<<Displacing  31/coordinate 3 (+)>>>
             <<<Displacing  32/coordinate 1 (+)>>>
             <<<Displacing  32/coordinate 2 (+)>>>
             <<<Displacing  31/coordinate 2 (-)>>>
             <<<Displacing  31/coordinate 1 (-)>>>
             <<<Displacing  32/coordinate 3 (+)>>>
             <<<Displacing  31/coordinate 3 (-)>>>
             <<<Displacing  32/coordinate 1 (-)>>>
             <<<Displacing  32/coordinate 2 (-)>>>
             <<<Displacing  32/coordinate 3 (-)>>>
             <<<Displacing  33/coordinate 1 (+)>>>
             <<<Displacing  33/coordinate 1 (-)>>>
             <<<Displacing  33/coordinate 2 (+)>>>
             <<<Displacing  33/coordinate 2 (-)>>>
             <<<Displacing  33/coordinate 3 (+)>>>
             <<<Displacing  34/coordinate 1 (+)>>>
             <<<Displacing  34/coordinate 2 (+)>>>
             <<<Displacing  33/coordinate 3 (-)>>>
             <<<Displacing  34/coordinate 3 (+)>>>
             <<<Displacing  35/coordinate 1 (+)>>>
             <<<Displacing  34/coordinate 1 (-)>>>
             <<<Displacing  35/coordinate 2 (+)>>>
             <<<Displacing  34/coordinate 2 (-)>>>
             <<<Displacing  34/coordinate 3 (-)>>>
             <<<Displacing  35/coordinate 1 (-)>>>
             <<<Displacing  35/coordinate 2 (-)>>>
             <<<Displacing  35/coordinate 3 (+)>>>
             <<<Displacing  35/coordinate 3 (-)>>>
             <<<Displacing  36/coordinate 3 (+)>>>
             <<<Displacing  36/coordinate 1 (+)>>>
             <<<Displacing  36/coordinate 3 (-)>>>
             <<<Displacing  36/coordinate 2 (+)>>>
             <<<Displacing  36/coordinate 1 (-)>>>
             <<<Displacing  36/coordinate 2 (-)>>>

-----------------------
VIBRATIONAL FREQUENCIES
-----------------------

Scaling factor for frequencies =  1.000000000 (already applied!)

   0:         0.00 cm**-1
   1:         0.00 cm**-1
   2:         0.00 cm**-1
   3:         0.00 cm**-1
   4:         0.00 cm**-1
   5:         0.00 cm**-1
   6:        59.90 cm**-1
   7:        67.83 cm**-1
   8:        75.51 cm**-1
   9:        89.49 cm**-1
  10:       107.60 cm**-1
  11:       116.14 cm**-1
  12:       128.90 cm**-1
  13:       156.76 cm**-1
  14:       173.61 cm**-1
  15:       178.50 cm**-1
  16:       190.23 cm**-1
  17:       239.52 cm**-1
  18:       249.58 cm**-1
  19:       254.26 cm**-1
  20:       266.93 cm**-1
  21:       328.64 cm**-1
  22:       353.67 cm**-1
  23:       366.18 cm**-1
  24:       402.50 cm**-1
  25:       412.30 cm**-1
  26:       438.39 cm**-1
  27:       499.56 cm**-1
  28:       512.80 cm**-1
  29:       532.67 cm**-1
  30:       546.11 cm**-1
  31:       589.42 cm**-1
  32:       603.35 cm**-1
  33:       626.41 cm**-1
  34:       638.26 cm**-1
  35:       685.64 cm**-1
  36:       736.56 cm**-1
  37:       782.31 cm**-1
  38:       793.72 cm**-1
  39:       803.95 cm**-1
  40:       822.80 cm**-1
  41:       842.34 cm**-1
  42:       875.47 cm**-1
  43:       906.44 cm**-1
  44:       916.53 cm**-1
  45:       924.63 cm**-1
  46:       933.57 cm**-1
  47:       951.02 cm**-1
  48:       952.65 cm**-1
  49:       956.37 cm**-1
  50:       969.10 cm**-1
  51:       974.32 cm**-1
  52:      1005.79 cm**-1
  53:      1031.74 cm**-1
  54:      1059.60 cm**-1
  55:      1069.71 cm**-1
  56:      1091.92 cm**-1
  57:      1111.18 cm**-1
  58:      1124.06 cm**-1
  59:      1155.71 cm**-1
  60:      1180.49 cm**-1
  61:      1183.29 cm**-1
  62:      1200.63 cm**-1
  63:      1223.26 cm**-1
  64:      1227.37 cm**-1
  65:      1245.39 cm**-1
  66:      1262.90 cm**-1
  67:      1281.41 cm**-1
  68:      1284.90 cm**-1
  69:      1291.79 cm**-1
  70:      1302.81 cm**-1
  71:      1343.24 cm**-1
  72:      1356.86 cm**-1
  73:      1364.52 cm**-1
  74:      1379.17 cm**-1
  75:      1409.13 cm**-1
  76:      1433.57 cm**-1
  77:      1447.25 cm**-1
  78:      1473.17 cm**-1
  79:      1502.77 cm**-1
  80:      1507.73 cm**-1
  81:      1512.08 cm**-1
  82:      1515.54 cm**-1
  83:      1534.00 cm**-1
  84:      1541.99 cm**-1
  85:      1548.64 cm**-1
  86:      1561.00 cm**-1
  87:      2587.84 cm**-1
  88:      2818.82 cm**-1
  89:      2830.65 cm**-1
  90:      2868.66 cm**-1
  91:      2892.87 cm**-1
  92:      2900.83 cm**-1
  93:      2906.93 cm**-1
  94:      2908.01 cm**-1
  95:      2912.33 cm**-1
  96:      2916.88 cm**-1
  97:      2930.43 cm**-1
  98:      2935.14 cm**-1
  99:      2970.10 cm**-1
 100:      2981.79 cm**-1
 101:      2987.44 cm**-1
 102:      2998.29 cm**-1
 103:      3008.01 cm**-1
 104:      3021.14 cm**-1
 105:      3275.68 cm**-1
 106:      3417.67 cm**-1
 107:      3426.12 cm**-1


------------
NORMAL MODES
------------

These modes are the cartesian displacements weighted by the diagonal matrix
M(i,i)=1/sqrt(m[i]) where m[i] is the mass of the displaced atom
Thus, these vectors are normalized but *not* orthogonal

                  0          1          2          3          4          5    
      0       0.000000   0.000000   0.000000   0.000000   0.000000   0.000000
      1       0.000000   0.000000   0.000000   0.000000   0.000000   0.000000
      2       0.000000   0.000000   0.000000   0.000000   0.000000   0.000000
      3       0.000000   0.000000   0.000000   0.000000   0.000000   0.000000
      4       0.000000   0.000000   0.000000   0.000000   0.000000   0.000000
      5       0.000000   0.000000   0.000000   0.000000   0.000000   0.000000
      6       0.000000   0.000000   0.000000   0.000000   0.000000   0.000000
      7       0.000000   0.000000   0.000000   0.000000   0.000000   0.000000
      8       0.000000   0.000000   0.000000   0.000000   0.000000   0.000000
      9       0.000000   0.000000   0.000000   0.000000   0.000000   0.000000
     10       0.000000   0.000000   0.000000   0.000000   0.000000   0.000000
     11       0.000000   0.000000   0.000000   0.000000   0.000000   0.000000
     12       0.000000   0.000000   0.000000   0.000000   0.000000   0.000000
     13       0.000000   0.000000   0.000000   0.000000   0.000000   0.000000
     14       0.000000   0.000000   0.000000   0.000000   0.000000   0.000000
     15       0.000000   0.000000   0.000000   0.000000   0.000000   0.000000
     16       0.000000   0.000000   0.000000   0.000000   0.000000   0.000000
     17       0.000000   0.000000   0.000000   0.000000   0.000000   0.000000
     18       0.000000   0.000000   0.000000   0.000000   0.000000   0.000000
     19       0.000000   0.000000   0.000000   0.000000   0.000000   0.000000
     20       0.000000   0.000000   0.000000   0.000000   0.000000   0.000000
     21       0.000000   0.000000   0.000000   0.000000   0.000000   0.000000
     22       0.000000   0.000000   0.000000   0.000000   0.000000   0.000000
     23       0.000000   0.000000   0.000000   0.000000   0.000000   0.000000
     24       0.000000   0.000000   0.000000   0.000000   0.000000   0.000000
     25       0.000000   0.000000   0.000000   0.000000   0.000000   0.000000
     26       0.000000   0.000000   0.000000   0.000000   0.000000   0.000000
     27       0.000000   0.000000   0.000000   0.000000   0.000000   0.000000
     28       0.000000   0.000000   0.000000   0.000000   0.000000   0.000000
     29       0.000000   0.000000   0.000000   0.000000   0.000000   0.000000
     30       0.000000   0.000000   0.000000   0.000000   0.000000   0.000000
     31       0.000000   0.000000   0.000000   0.000000   0.000000   0.000000
     32       0.000000   0.000000   0.000000   0.000000   0.000000   0.000000
     33       0.000000   0.000000   0.000000   0.000000   0.000000   0.000000
     34       0.000000   0.000000   0.000000   0.000000   0.000000   0.000000
     35       0.000000   0.000000   0.000000   0.000000   0.000000   0.000000
     36       0.000000   0.000000   0.000000   0.000000   0.000000   0.000000
     37       0.000000   0.000000   0.000000   0.000000   0.000000   0.000000
     38       0.000000   0.000000   0.000000   0.000000   0.000000   0.000000
     39       0.000000   0.000000   0.000000   0.000000   0.000000   0.000000
     40       0.000000   0.000000   0.000000   0.000000   0.000000   0.000000
     41       0.000000   0.000000   0.000000   0.000000   0.000000   0.000000
     42       0.000000   0.000000   0.000000   0.000000   0.000000   0.000000
     43       0.000000   0.000000   0.000000   0.000000   0.000000   0.000000
     44       0.000000   0.000000   0.000000   0.000000   0.000000   0.000000
     45       0.000000   0.000000   0.000000   0.000000   0.000000   0.000000
     46       0.000000   0.000000   0.000000   0.000000   0.000000   0.000000
     47       0.000000   0.000000   0.000000   0.000000   0.000000   0.000000
     48       0.000000   0.000000   0.000000   0.000000   0.000000   0.000000
     49       0.000000   0.000000   0.000000   0.000000   0.000000   0.000000
     50       0.000000   0.000000   0.000000   0.000000   0.000000   0.000000
     51       0.000000   0.000000   0.000000   0.000000   0.000000   0.000000
     52       0.000000   0.000000   0.000000   0.000000   0.000000   0.000000
     53       0.000000   0.000000   0.000000   0.000000   0.000000   0.000000
     54       0.000000   0.000000   0.000000   0.000000   0.000000   0.000000
     55       0.000000   0.000000   0.000000   0.000000   0.000000   0.000000
     56       0.000000   0.000000   0.000000   0.000000   0.000000   0.000000
     57       0.000000   0.000000   0.000000   0.000000   0.000000   0.000000
     58       0.000000   0.000000   0.000000   0.000000   0.000000   0.000000
     59       0.000000   0.000000   0.000000   0.000000   0.000000   0.000000
     60       0.000000   0.000000   0.000000   0.000000   0.000000   0.000000
     61       0.000000   0.000000   0.000000   0.000000   0.000000   0.000000
     62       0.000000   0.000000   0.000000   0.000000   0.000000   0.000000
     63       0.000000   0.000000   0.000000   0.000000   0.000000   0.000000
     64       0.000000   0.000000   0.000000   0.000000   0.000000   0.000000
     65       0.000000   0.000000   0.000000   0.000000   0.000000   0.000000
     66       0.000000   0.000000   0.000000   0.000000   0.000000   0.000000
     67       0.000000   0.000000   0.000000   0.000000   0.000000   0.000000
     68       0.000000   0.000000   0.000000   0.000000   0.000000   0.000000
     69       0.000000   0.000000   0.000000   0.000000   0.000000   0.000000
     70       0.000000   0.000000   0.000000   0.000000   0.000000   0.000000
     71       0.000000   0.000000   0.000000   0.000000   0.000000   0.000000
     72       0.000000   0.000000   0.000000   0.000000   0.000000   0.000000
     73       0.000000   0.000000   0.000000   0.000000   0.000000   0.000000
     74       0.000000   0.000000   0.000000   0.000000   0.000000   0.000000
     75       0.000000   0.000000   0.000000   0.000000   0.000000   0.000000
     76       0.000000   0.000000   0.000000   0.000000   0.000000   0.000000
     77       0.000000   0.000000   0.000000   0.000000   0.000000   0.000000
     78       0.000000   0.000000   0.000000   0.000000   0.000000   0.000000
     79       0.000000   0.000000   0.000000   0.000000   0.000000   0.000000
     80       0.000000   0.000000   0.000000   0.000000   0.000000   0.000000
     81       0.000000   0.000000   0.000000   0.000000   0.000000   0.000000
     82       0.000000   0.000000   0.000000   0.000000   0.000000   0.000000
     83       0.000000   0.000000   0.000000   0.000000   0.000000   0.000000
     84       0.000000   0.000000   0.000000   0.000000   0.000000   0.000000
     85       0.000000   0.000000   0.000000   0.000000   0.000000   0.000000
     86       0.000000   0.000000   0.000000   0.000000   0.000000   0.000000
     87       0.000000   0.000000   0.000000   0.000000   0.000000   0.000000
     88       0.000000   0.000000   0.000000   0.000000   0.000000   0.000000
     89       0.000000   0.000000   0.000000   0.000000   0.000000   0.000000
     90       0.000000   0.000000   0.000000   0.000000   0.000000   0.000000
     91       0.000000   0.000000   0.000000   0.000000   0.000000   0.000000
     92       0.000000   0.000000   0.000000   0.000000   0.000000   0.000000
     93       0.000000   0.000000   0.000000   0.000000   0.000000   0.000000
     94       0.000000   0.000000   0.000000   0.000000   0.000000   0.000000
     95       0.000000   0.000000   0.000000   0.000000   0.000000   0.000000
     96       0.000000   0.000000   0.000000   0.000000   0.000000   0.000000
     97       0.000000   0.000000   0.000000   0.000000   0.000000   0.000000
     98       0.000000   0.000000   0.000000   0.000000   0.000000   0.000000
     99       0.000000   0.000000   0.000000   0.000000   0.000000   0.000000
    100       0.000000   0.000000   0.000000   0.000000   0.000000   0.000000
    101       0.000000   0.000000   0.000000   0.000000   0.000000   0.000000
    102       0.000000   0.000000   0.000000   0.000000   0.000000   0.000000
    103       0.000000   0.000000   0.000000   0.000000   0.000000   0.000000
    104       0.000000   0.000000   0.000000   0.000000   0.000000   0.000000
    105       0.000000   0.000000   0.000000   0.000000   0.000000   0.000000
    106       0.000000   0.000000   0.000000   0.000000   0.000000   0.000000
    107       0.000000   0.000000   0.000000   0.000000   0.000000   0.000000
                  6          7          8          9         10         11    
      0      -0.044872   0.031829  -0.040579  -0.008460  -0.019863  -0.016194
      1       0.019220  -0.021050  -0.005073   0.005753  -0.026554   0.010524
      2      -0.005136  -0.000054  -0.012980  -0.006695  -0.010043  -0.009670
      3      -0.073513   0.002708  -0.011742   0.029497   0.044036  -0.048925
      4      -0.002163  -0.046539   0.016818   0.036203  -0.001801   0.000233
      5       0.005137   0.043452  -0.022376  -0.040228   0.185685  -0.132198
      6      -0.068990   0.022273  -0.003555   0.033525   0.043574  -0.048512
      7      -0.036992  -0.088097   0.056751   0.089828   0.023394  -0.004085
      8       0.013046   0.111716   0.026925  -0.005517   0.191427  -0.126701
      9      -0.036256   0.071372  -0.024425   0.002614  -0.023915  -0.015529
     10      -0.052361  -0.105981   0.075887   0.114734   0.024156   0.001769
     11       0.010144   0.141870   0.088872   0.064538  -0.001933   0.005523
     12      -0.007378   0.101939  -0.052601  -0.033974  -0.087570   0.016595
     13      -0.032141  -0.081218   0.054972   0.085417   0.001931   0.009737
     14       0.002398   0.107715   0.104246   0.100041  -0.191628   0.127455
     15      -0.011311   0.082985  -0.060865  -0.037533  -0.086976   0.014484
     16       0.003350  -0.039949   0.015184   0.031937  -0.022867   0.014450
     17      -0.004308   0.037433   0.055103   0.067295  -0.199419   0.121978
     18      -0.052506   0.010771  -0.046385  -0.005617  -0.020009  -0.015818
     19       0.061128   0.039205  -0.047874  -0.054981  -0.057128   0.005841
     20      -0.026343  -0.074211  -0.071263  -0.019337  -0.042524  -0.016856
     21      -0.098400  -0.034528   0.003345   0.055454   0.090727  -0.073404
     22       0.009272  -0.033342   0.002586   0.016143  -0.000745  -0.003410
     23       0.005922   0.020721  -0.067680  -0.090291   0.320471  -0.222772
     24       0.014164   0.100592  -0.082156  -0.057973  -0.130488   0.037083
     25       0.020124  -0.023968  -0.000425   0.014372  -0.035610   0.019649
     26      -0.009311   0.008459   0.064633   0.090746  -0.333737   0.208685
     27      -0.033207   0.084644  -0.019051   0.005198  -0.025053  -0.014351
     28      -0.079642  -0.138038   0.105685   0.154572   0.043631  -0.001261
     29       0.014142   0.188767   0.122426   0.089237  -0.000353   0.010078
     30      -0.035830   0.036133  -0.003425  -0.012158   0.021760   0.021096
     31       0.039069   0.080946  -0.024147  -0.057200  -0.075431  -0.159098
     32      -0.030878  -0.095749  -0.100630  -0.020179  -0.061566   0.002782
     33      -0.010373   0.052594  -0.013600  -0.022899   0.017932   0.023128
     34      -0.029132   0.030821  -0.002511  -0.029446  -0.065793  -0.143778
     35      -0.038811  -0.120982  -0.129826  -0.010594  -0.092661   0.024588
     36       0.069315  -0.208328   0.180099  -0.257079  -0.031239  -0.019079
     37       0.100833   0.110490  -0.031656  -0.102929   0.013117  -0.110574
     38       0.015666  -0.109437  -0.135277  -0.028845   0.103917   0.179121
     39      -0.064698   0.026299   0.015638   0.006984   0.055755   0.076820
     40      -0.086649  -0.000249   0.019779   0.001613  -0.032093  -0.093127
     41       0.020516  -0.002612   0.017768  -0.005851  -0.049967  -0.005743
     42       0.011971   0.055356  -0.045335  -0.042160   0.011442   0.009534
     43      -0.002518   0.100005   0.093177  -0.025633  -0.027034  -0.162573
     44      -0.063842  -0.173829  -0.195124  -0.009299  -0.120120   0.042214
     45       0.027739   0.082392  -0.009801  -0.031961   0.001658   0.012944
     46      -0.070955  -0.049644  -0.096806  -0.026300  -0.099700  -0.114662
     47      -0.063890  -0.173485  -0.192941  -0.009535  -0.116959   0.044102
     48      -0.072552   0.066257   0.109197   0.024636   0.113932   0.115592
     49      -0.097823  -0.031448  -0.021329  -0.010758  -0.041874  -0.081676
     50       0.031151   0.012688   0.028416  -0.000293  -0.055420  -0.023195
     51      -0.116912  -0.049940  -0.053572   0.025336   0.044133   0.115783
     52      -0.058833   0.039607   0.053834   0.007765  -0.031678  -0.119722
     53       0.034799   0.017819   0.034784  -0.000148  -0.050783  -0.020648
     54      -0.043405   0.029471  -0.084508  -0.035952  -0.058903  -0.063681
     55       0.093253   0.057345  -0.074763  -0.082758  -0.064474   0.061591
     56      -0.065885  -0.081331  -0.063369  -0.007364  -0.060883  -0.140636
     57       0.307455  -0.127692  -0.015875   0.371257   0.015806  -0.081942
     58       0.198285   0.072908  -0.108438  -0.086775   0.096524   0.227012
     59      -0.021956  -0.065653  -0.080602  -0.020185   0.083717  -0.070470
     60       0.043025   0.013750  -0.071823   0.045878  -0.014498  -0.031805
     61       0.098058   0.049122  -0.065875  -0.058459  -0.044914   0.037544
     62      -0.059062  -0.090950  -0.053578   0.021179  -0.029878  -0.168276
     63       0.327114  -0.128326  -0.023370   0.412801   0.022213  -0.089466
     64       0.247385   0.061026  -0.117291   0.001478   0.108746   0.214249
     65      -0.021058  -0.024532  -0.119579   0.048975   0.096177  -0.099283
     66       0.125073  -0.282350   0.225159  -0.311176  -0.036638  -0.017481
     67       0.109140   0.110662  -0.031379  -0.106350   0.042080  -0.098048
     68       0.031279  -0.110212  -0.127680  -0.044702   0.134260   0.182962
     69       0.271796  -0.166533   0.045021   0.230381  -0.008216  -0.074791
     70       0.177975   0.084155  -0.081683  -0.111301   0.084534   0.135149
     71      -0.013880  -0.071475  -0.090116  -0.017800   0.086551  -0.025883
     72       0.126590  -0.310047   0.247338  -0.358880  -0.040102  -0.015972
     73       0.062303   0.137733  -0.034201  -0.139138   0.051294  -0.098852
     74       0.033456  -0.168475  -0.080824  -0.146296   0.127082   0.187220
     75      -0.085446  -0.050624  -0.053988   0.020001  -0.025941  -0.006324
     76       0.084668   0.038365  -0.069742  -0.071463  -0.054632   0.080801
     77      -0.003319  -0.086711  -0.100038  -0.035743  -0.042212   0.080852
     78      -0.006475   0.060266  -0.004744  -0.021275   0.038184   0.042911
     79       0.063618   0.120374  -0.041632  -0.066879  -0.072300  -0.188624
     80      -0.032984  -0.124142  -0.079476  -0.016508  -0.047187   0.069963
     81      -0.032510   0.047852   0.012996  -0.012873   0.036478   0.037902
     82      -0.161870  -0.038566   0.047898   0.049707   0.031925   0.014574
     83       0.043904   0.066961   0.133516  -0.012916   0.009533   0.009315
     84      -0.016408   0.018835  -0.075839  -0.033839  -0.028857  -0.021500
     85      -0.163481  -0.031721   0.069257   0.061550   0.037962   0.022520
     86       0.041738   0.067572   0.135066  -0.017900   0.018458   0.015627
     87       0.014576   0.108507   0.081401  -0.035375   0.044740  -0.003955
     88      -0.172546  -0.051209   0.030249   0.045956   0.038199   0.028051
     89       0.040291   0.063017   0.126904  -0.017128   0.014362   0.015098
     90       0.016585   0.138712  -0.068059  -0.059703  -0.135414   0.041022
     91      -0.043116  -0.094323   0.068632   0.104423   0.003535   0.012368
     92       0.001420   0.131260   0.150301   0.151191  -0.327905   0.221393
     93      -0.090000  -0.000654   0.018057   0.060133   0.091296  -0.070897
     94      -0.051802  -0.106169   0.072228   0.110058   0.041797  -0.010189
     95       0.020223   0.138712   0.016909  -0.030750   0.331515  -0.216560
     96      -0.083979   0.026946   0.037308   0.024077   0.093031   0.133323
     97      -0.214948  -0.061977   0.069079   0.087363   0.087493   0.110568
     98       0.073132   0.136135   0.254647  -0.007712   0.051040   0.009263
     99      -0.063336   0.037834   0.033765   0.009825   0.073195   0.095784
    100      -0.258902  -0.081694   0.084213   0.118361   0.135172   0.194218
    101       0.083005   0.161061   0.297393  -0.010194   0.073658   0.013700
    102      -0.123084  -0.016361  -0.008759   0.043532   0.097759   0.180806
    103      -0.204462  -0.041442   0.104332   0.090702   0.093082   0.104965
    104       0.079044   0.148589   0.276802  -0.004901   0.054873   0.006849
    105      -0.099718   0.045979   0.103309   0.044879   0.148442   0.191698
    106      -0.216831  -0.078186   0.032262   0.078846   0.073913   0.101662
    107       0.077073   0.145751   0.272898  -0.004413   0.052799   0.006920
                 12         13         14         15         16         17    
      0      -0.045148   0.012425   0.013936  -0.012521   0.014317   0.008905
      1       0.033200   0.022470  -0.111634   0.029390  -0.053543   0.038328
      2       0.163249   0.000974   0.064959  -0.017164   0.043050   0.027067
      3      -0.099128   0.000660   0.072057  -0.032802   0.038865  -0.006764
      4       0.006301   0.013813  -0.066883   0.015929  -0.033726   0.023791
      5       0.080314  -0.001157   0.023519  -0.019854   0.016838   0.044599
      6      -0.137039   0.002089   0.054697  -0.028921   0.026919  -0.016091
      7      -0.033140  -0.003877   0.020944  -0.008532   0.007392  -0.016515
      8      -0.086190  -0.001152  -0.032360  -0.005024  -0.028636   0.001997
      9      -0.132097   0.019164  -0.026628  -0.004807  -0.012968   0.000199
     10      -0.048239  -0.011454   0.057186  -0.017046   0.023547  -0.031870
     11      -0.170629   0.000925  -0.041548   0.011761  -0.043592  -0.047918
     12      -0.077256   0.032917  -0.083903   0.014749  -0.034144   0.033108
     13      -0.022408  -0.002339   0.011329  -0.003522   0.003549  -0.013336
     14      -0.064398   0.003520   0.017986   0.010585   0.006300  -0.008428
     15      -0.040004   0.030727  -0.061709   0.008963  -0.018936   0.036454
     16       0.018608   0.014923  -0.075696   0.020891  -0.036727   0.025854
     17       0.103823   0.003720   0.072472  -0.003346   0.051233   0.033812
     18      -0.043211   0.010475   0.019141  -0.010465   0.006544   0.003332
     19       0.052396   0.028913  -0.127945   0.022826  -0.046658  -0.027432
     20       0.128272   0.012792   0.063093  -0.022622   0.007493  -0.047073
     21      -0.114935  -0.009921   0.131369  -0.052747   0.067768  -0.023795
     22       0.021043   0.018497  -0.093982   0.023315  -0.046328   0.035404
     23       0.126964  -0.001724   0.021023  -0.029416   0.017808   0.070153
     24      -0.011421   0.042746  -0.107985   0.023122  -0.037735   0.058150
     25       0.029879   0.022724  -0.109915   0.029746  -0.051905   0.039130
     26       0.162587   0.005727   0.105446  -0.000748   0.075452   0.049266
     27      -0.161099   0.020162  -0.042433  -0.000656  -0.025314  -0.009981
     28      -0.078634  -0.024086   0.119268  -0.033832   0.051305  -0.056191
     29      -0.308045   0.001181  -0.089529   0.023987  -0.087722  -0.100810
     30       0.102036   0.001187  -0.004833  -0.004634   0.045648   0.041699
     31       0.062031   0.007524  -0.021034   0.001213   0.024966  -0.112908
     32       0.045490   0.016903   0.064775  -0.022275  -0.029542  -0.035298
     33       0.123112  -0.014559  -0.004706   0.015474  -0.006764   0.003756
     34      -0.003559   0.032951  -0.024221  -0.036583   0.138658   0.078149
     35      -0.119345   0.002681   0.089327   0.019133  -0.135502   0.174477
     36      -0.001643  -0.014502   0.030470  -0.002937  -0.011131   0.030935
     37       0.018967  -0.061375   0.148783   0.050332  -0.109006   0.002289
     38      -0.050975   0.092899  -0.185402  -0.042537   0.171870  -0.119704
     39       0.122854  -0.039574  -0.011765   0.009016   0.009174   0.078439
     40      -0.015887   0.023722  -0.021274  -0.042461   0.155570   0.157491
     41      -0.052995  -0.283694  -0.118452  -0.082625  -0.014278   0.036571
     42       0.196505   0.051649   0.022141   0.027007  -0.021493  -0.141083
     43       0.097666  -0.140250  -0.165864  -0.127151   0.262359  -0.087674
     44      -0.211894   0.119551   0.190625   0.085246  -0.225658   0.330080
     45       0.072821  -0.077847  -0.031556   0.030867  -0.070460   0.009181
     46      -0.116096   0.212699   0.121173   0.052874   0.022321   0.276066
     47      -0.198888   0.119693   0.186260   0.081561  -0.219580   0.312188
     48       0.139115  -0.035804  -0.002750   0.100949   0.068797   0.012931
     49      -0.055434   0.242360   0.138864   0.121414   0.149353   0.192195
     50      -0.026097  -0.452621  -0.243629  -0.229624  -0.024356   0.020600
     51       0.103743  -0.079060  -0.022204  -0.085353  -0.103185   0.139873
     52       0.025222  -0.197982  -0.185767  -0.213080   0.162629   0.102950
     53      -0.026899  -0.434900  -0.229407  -0.205535  -0.018035   0.006866
     54      -0.086960   0.012497   0.046133  -0.031303   0.008937  -0.199193
     55       0.048912   0.029223  -0.123278   0.007665  -0.045954  -0.079206
     56       0.093354   0.008536   0.106658  -0.022399   0.010659  -0.150809
     57       0.028280   0.005992  -0.014273   0.010234  -0.007371   0.000618
     58      -0.064870  -0.036611   0.220999  -0.067981   0.069338   0.018601
     59      -0.003194   0.017604  -0.086609   0.070474  -0.068853   0.085906
     60      -0.044954   0.014990   0.009750  -0.013328   0.015644  -0.115901
     61       0.047798   0.033032  -0.150772   0.023347  -0.048159  -0.058579
     62       0.084943   0.009251   0.096300  -0.007951   0.014003  -0.124719
     63       0.033069   0.003459  -0.000704   0.009437  -0.006599   0.005425
     64      -0.053592  -0.041115   0.260678  -0.072517   0.078222   0.026667
     65       0.003146   0.010957  -0.113384   0.084745  -0.103651   0.109263
     66      -0.045359  -0.007422   0.005726   0.002482  -0.015127  -0.004890
     67       0.003503  -0.061243   0.118485   0.065904  -0.120053   0.022118
     68      -0.068803   0.078782  -0.181650  -0.016340   0.127509  -0.075905
     69       0.018634   0.006451  -0.013332   0.012287  -0.006913  -0.007620
     70      -0.052155  -0.058105   0.228605  -0.025599  -0.011797   0.065863
     71      -0.009411   0.023524  -0.073770   0.048382  -0.033579   0.069264
     72      -0.058839  -0.003307  -0.007282   0.001590  -0.009503  -0.029177
     73       0.017281  -0.066444   0.117920   0.071952  -0.127653   0.034309
     74      -0.097335   0.087919  -0.210735  -0.018733   0.140942  -0.127003
     75      -0.103025   0.018985   0.004275   0.002129  -0.042364   0.042380
     76       0.044237   0.033516  -0.145459   0.020352  -0.064933  -0.013031
     77       0.105466   0.020041   0.036558  -0.022118  -0.027681  -0.015923
     78       0.191829  -0.001495  -0.022992   0.010997   0.015611  -0.050769
     79       0.104167  -0.001787   0.013270   0.013506  -0.005325  -0.239731
     80       0.085233   0.028676  -0.001488  -0.021775  -0.020687   0.040587
     81       0.133246  -0.017107  -0.012684   0.017970   0.059571   0.115320
     82      -0.022999   0.002314   0.006377  -0.007310   0.047595   0.060987
     83      -0.045747  -0.066960   0.021547   0.190514   0.126668  -0.036614
     84       0.108518  -0.144682  -0.077023  -0.031831   0.123501   0.207614
     85       0.016116   0.014873  -0.059490  -0.267668  -0.130870   0.089695
     86      -0.071376  -0.049391   0.087268   0.406264   0.253100  -0.080022
     87       0.154900   0.145705   0.037756   0.061543   0.144721   0.162807
     88      -0.062630  -0.016629   0.079890   0.272178   0.202518  -0.007527
     89      -0.070741  -0.066301   0.075332   0.381740   0.237695  -0.077558
     90      -0.063774   0.044518  -0.144572   0.034624  -0.063455   0.054402
     91      -0.036414  -0.007228   0.038569  -0.010904   0.016300  -0.024442
     92      -0.118721   0.005726   0.017909   0.021012   0.004128  -0.020353
     93      -0.169139  -0.009834   0.102932  -0.043906   0.047308  -0.038826
     94      -0.047858  -0.011776   0.057017  -0.018584   0.023962  -0.031463
     95      -0.155678  -0.001946  -0.071075  -0.005091  -0.057242  -0.001210
     96       0.150732  -0.039610   0.005786   0.036092  -0.092133  -0.039678
     97      -0.011454  -0.026147   0.025976   0.018538  -0.102241  -0.104523
     98       0.034115   0.156444   0.010763  -0.100722  -0.066897   0.014612
     99       0.145450  -0.019540   0.000573   0.025170  -0.030835   0.027005
    100       0.001952  -0.057290   0.044557   0.055716  -0.229936  -0.259335
    101       0.044069   0.233137   0.052639  -0.024689  -0.021192  -0.024557
    102       0.134440  -0.159340  -0.008202   0.074828  -0.154937  -0.119068
    103       0.024302   0.047468  -0.006126  -0.188798  -0.233152  -0.046012
    104       0.057485   0.202188  -0.011113  -0.238163  -0.156117   0.051440
    105       0.186790   0.043035   0.038694   0.023712  -0.204655  -0.149966
    106      -0.047925  -0.091775   0.053741   0.211737   0.045228  -0.135739
    107       0.056952   0.194581  -0.016202  -0.249976  -0.164445   0.056612
                 18         19         20         21         22         23    
      0       0.060147   0.050419  -0.010773   0.000833  -0.000049   0.019329
      1      -0.062385   0.102272  -0.119019   0.031275  -0.003497  -0.127525
      2       0.132436   0.053302   0.014965   0.007666  -0.000957   0.079860
      3       0.127299   0.044886   0.034768  -0.005129   0.001089   0.108066
      4      -0.025837   0.087327  -0.083663   0.031761  -0.003096  -0.078923
      5       0.167063   0.090491   0.009733  -0.058010   0.000999  -0.127642
      6       0.089939   0.032538   0.029164   0.005765   0.001007   0.135134
      7       0.024834   0.001917   0.023108   0.005921  -0.000315   0.023477
      8      -0.014100   0.000376  -0.000305  -0.026209   0.001241  -0.090063
      9       0.014630   0.084497  -0.055371   0.055076  -0.001978   0.146785
     10       0.031759  -0.041255   0.062553  -0.005263   0.000907   0.049614
     11      -0.194083  -0.113863  -0.005831   0.053955  -0.000345   0.094885
     12       0.010012   0.143855  -0.111216   0.042026  -0.002340   0.003108
     13       0.005946  -0.009049   0.018811  -0.005731   0.000145  -0.037085
     14       0.005432  -0.026954   0.024771  -0.025684   0.004139  -0.059782
     15       0.058180   0.147438  -0.086320   0.023567  -0.001578  -0.003942
     16      -0.047226   0.069945  -0.084469   0.014816  -0.002361  -0.149055
     17       0.192784   0.066822   0.045541  -0.067118   0.004845  -0.102718
     18       0.001361   0.010531  -0.015647   0.002707  -0.000485  -0.058933
     19      -0.005712   0.012704   0.035954  -0.013891  -0.000170   0.052198
     20      -0.020119  -0.001974   0.000559   0.128238  -0.007431   0.134236
     21       0.193368   0.026064   0.091346  -0.012961   0.002062   0.195529
     22      -0.044856   0.103318  -0.110104   0.029957  -0.003589  -0.139161
     23       0.236250   0.142133   0.002519  -0.083858   0.000347  -0.241265
     24       0.054724   0.210798  -0.133019   0.041518  -0.003301  -0.052014
     25      -0.060323   0.111426  -0.123174   0.032221  -0.003878  -0.169545
     26       0.287400   0.092212   0.085031  -0.104758   0.007673  -0.174015
     27      -0.038329   0.062528  -0.064646   0.074461  -0.002718   0.174056
     28       0.057809  -0.096255   0.123189  -0.016969   0.002544   0.121189
     29      -0.415627  -0.226592  -0.026955   0.135818  -0.003074   0.243891
     30      -0.004292  -0.004182   0.002442   0.045790  -0.004323   0.021022
     31      -0.036437   0.002806  -0.060242  -0.208391   0.013019   0.124153
     32      -0.029463  -0.019248   0.011598   0.131150  -0.005787   0.108610
     33      -0.033212  -0.029974  -0.018355  -0.038033   0.001263   0.022790
     34      -0.033849  -0.039875  -0.006276  -0.079284   0.007439   0.097080
     35      -0.005063  -0.122629  -0.038473  -0.107568   0.013172   0.006833
     36      -0.006683   0.006929   0.033532   0.066141  -0.002846  -0.000268
     37       0.104655  -0.112986  -0.095089   0.065295  -0.000142   0.021452
     38       0.028067  -0.065175  -0.140233  -0.111602   0.006206   0.049601
     39      -0.076850  -0.095966   0.013016   0.038171  -0.001493  -0.067325
     40      -0.055725  -0.085864   0.025480   0.022767   0.001385  -0.002120
     41       0.012287  -0.006303  -0.018676  -0.026654   0.017694  -0.000250
     42      -0.029832   0.035247  -0.016773   0.021717  -0.006858   0.100362
     43      -0.034143   0.079111   0.039562   0.123316  -0.000284   0.125582
     44      -0.005190  -0.225829  -0.073906  -0.273515   0.020729  -0.032496
     45      -0.011685  -0.035779  -0.067850  -0.220449   0.014526   0.001266
     46      -0.037430  -0.172708  -0.047144  -0.265000   0.014370   0.049174
     47      -0.007251  -0.214947  -0.067983  -0.245752   0.018830  -0.027645
     48      -0.073936  -0.058851   0.038108   0.115516  -0.032994  -0.128849
     49      -0.063516  -0.130729   0.013493  -0.039440  -0.035684   0.020891
     50       0.018614   0.021380  -0.014535   0.004220   0.053585  -0.004946
     51      -0.075989  -0.134003   0.011258   0.056333   0.026301  -0.126190
     52      -0.041440  -0.029130   0.028924   0.061688   0.041295   0.001486
     53       0.021140   0.027496  -0.015944   0.002162   0.047117  -0.003287
     54      -0.015235  -0.110805   0.179959  -0.018856  -0.003733  -0.304135
     55       0.079276  -0.083939   0.235802   0.043597  -0.004480   0.072507
     56      -0.170558   0.044969  -0.150097   0.029396  -0.003731  -0.053839
     57       0.011055  -0.020194  -0.007674   0.004385  -0.000453   0.004999
[...]
     75      -0.000317  -0.003526   0.000918  -0.001642  -0.000348   0.000172
     76       0.005160  -0.037948   0.011608   0.002780  -0.000256   0.000013
     77      -0.003057   0.025168  -0.008026  -0.004347   0.000036  -0.000082
     78       0.001333  -0.001243   0.001381   0.533264  -0.002139   0.001270
     79      -0.001120   0.000330  -0.000785  -0.672163   0.003569  -0.001918
     80      -0.000791   0.000274  -0.000335  -0.508197   0.001574  -0.001112
     81      -0.000018   0.000053   0.000000  -0.000021  -0.000025  -0.000003
     82      -0.000054   0.000366  -0.000050   0.000051   0.000006  -0.000007
     83       0.000001  -0.000036   0.000007   0.000043   0.000004   0.000002
     84       0.000199  -0.000946   0.000201  -0.000266   0.000060  -0.000121
     85       0.000510  -0.002912   0.000516  -0.000283  -0.000063  -0.000115
     86       0.000570  -0.003433   0.000581  -0.000353  -0.000133  -0.000047
     87       0.000076  -0.000243   0.000047   0.000190   0.000315  -0.000099
     88       0.000309  -0.002097   0.000300   0.000399   0.000297  -0.000106
     89      -0.000421   0.003086  -0.000436  -0.000457  -0.000255   0.000054
     90       0.139453   0.046861   0.053776  -0.000574  -0.000027   0.000237
     91       0.310893   0.103206   0.120687  -0.000886  -0.000052   0.000549
     92      -0.045107  -0.015127  -0.017322   0.000250   0.000059  -0.000096
     93       0.299537   0.062981   0.004965  -0.001056  -0.000044  -0.000209
     94      -0.447127  -0.094116  -0.007660   0.001124   0.000012   0.000343
     95      -0.043412  -0.009151  -0.000666   0.000164   0.000032   0.000009
     96      -0.000014   0.000063  -0.000004  -0.000017  -0.000023   0.000013
     97      -0.000049   0.000244  -0.000057   0.000025  -0.000026   0.000046
     98      -0.000017   0.000028  -0.000008   0.000019   0.000025   0.000006
     99       0.000013  -0.000613  -0.000009   0.000032   0.000261  -0.000067
    100      -0.000017  -0.000298  -0.000007   0.000050   0.000073  -0.000058
    101       0.000006   0.000027   0.000008  -0.000021  -0.000049   0.000013
    102       0.000047  -0.000029   0.000015   0.000033  -0.000053   0.000037
    103       0.000184  -0.000927   0.000272  -0.000161   0.000227  -0.000208
    104      -0.000163   0.000837  -0.000230   0.000251  -0.000380   0.000117
    105       0.000101  -0.000177   0.000061   0.000055   0.000015  -0.000023
    106       0.000381  -0.001405   0.000421  -0.000466   0.000101  -0.000339
    107       0.000373  -0.001269   0.000368  -0.000531   0.000183  -0.000184


-----------
IR SPECTRUM  
-----------

 Mode    freq (cm**-1)   T**2         TX         TY         TZ
-------------------------------------------------------------------
   6:        59.90    0.000000  (  0.000000   0.000000   0.000000)
   7:        67.83    0.000000  (  0.000000   0.000000   0.000000)
   8:        75.51    0.000000  (  0.000000   0.000000   0.000000)
   9:        89.49    0.000000  (  0.000000   0.000000   0.000000)
  10:       107.60    0.000000  (  0.000000   0.000000   0.000000)
  11:       116.14    0.000000  (  0.000000   0.000000   0.000000)
  12:       128.90    0.000000  (  0.000000   0.000000   0.000000)
  13:       156.76    0.000000  (  0.000000   0.000000   0.000000)
  14:       173.61    0.000000  (  0.000000   0.000000   0.000000)
  15:       178.50    0.000000  (  0.000000   0.000000   0.000000)
  16:       190.23    0.000000  (  0.000000   0.000000   0.000000)
  17:       239.52    0.000000  (  0.000000   0.000000   0.000000)
  18:       249.58    0.000000  (  0.000000   0.000000   0.000000)
  19:       254.26    0.000000  (  0.000000   0.000000   0.000000)
  20:       266.93    0.000000  (  0.000000   0.000000   0.000000)
  21:       328.64    0.000000  (  0.000000   0.000000   0.000000)
  22:       353.67    0.000000  (  0.000000   0.000000   0.000000)
  23:       366.18    0.000000  (  0.000000   0.000000   0.000000)
  24:       402.50    0.000000  (  0.000000   0.000000   0.000000)
  25:       412.30    0.000000  (  0.000000   0.000000   0.000000)
  26:       438.39    0.000000  (  0.000000   0.000000   0.000000)
  27:       499.56    0.000000  (  0.000000   0.000000   0.000000)
  28:       512.80    0.000000  (  0.000000   0.000000   0.000000)
  29:       532.67    0.000000  (  0.000000   0.000000   0.000000)
  30:       546.11    0.000000  (  0.000000   0.000000   0.000000)
  31:       589.42    0.000000  (  0.000000   0.000000   0.000000)
  32:       603.35    0.000000  (  0.000000   0.000000   0.000000)
  33:       626.41    0.000000  (  0.000000   0.000000   0.000000)
  34:       638.26    0.000000  (  0.000000   0.000000   0.000000)
  35:       685.64    0.000000  (  0.000000   0.000000   0.000000)
  36:       736.56    0.000000  (  0.000000   0.000000   0.000000)
  37:       782.31    0.000000  (  0.000000   0.000000   0.000000)
  38:       793.72    0.000000  (  0.000000   0.000000   0.000000)
  39:       803.95    0.000000  (  0.000000   0.000000   0.000000)
  40:       822.80    0.000000  (  0.000000   0.000000   0.000000)
  41:       842.34    0.000000  (  0.000000   0.000000   0.000000)
  42:       875.47    0.000000  (  0.000000   0.000000   0.000000)
  43:       906.44    0.000000  (  0.000000   0.000000   0.000000)
  44:       916.53    0.000000  (  0.000000   0.000000   0.000000)
  45:       924.63    0.000000  (  0.000000   0.000000   0.000000)
  46:       933.57    0.000000  (  0.000000   0.000000   0.000000)
  47:       951.02    0.000000  (  0.000000   0.000000   0.000000)
  48:       952.65    0.000000  (  0.000000   0.000000   0.000000)
  49:       956.37    0.000000  (  0.000000   0.000000   0.000000)
  50:       969.10    0.000000  (  0.000000   0.000000   0.000000)
  51:       974.32    0.000000  (  0.000000   0.000000   0.000000)
  52:      1005.79    0.000000  (  0.000000   0.000000   0.000000)
  53:      1031.74    0.000000  (  0.000000   0.000000   0.000000)
  54:      1059.60    0.000000  (  0.000000   0.000000   0.000000)
  55:      1069.71    0.000000  (  0.000000   0.000000   0.000000)
  56:      1091.92    0.000000  (  0.000000   0.000000   0.000000)
  57:      1111.18    0.000000  (  0.000000   0.000000   0.000000)
  58:      1124.06    0.000000  (  0.000000   0.000000   0.000000)
  59:      1155.71    0.000000  (  0.000000   0.000000   0.000000)
  60:      1180.49    0.000000  (  0.000000   0.000000   0.000000)
  61:      1183.29    0.000000  (  0.000000   0.000000   0.000000)
  62:      1200.63    0.000000  (  0.000000   0.000000   0.000000)
  63:      1223.26    0.000000  (  0.000000   0.000000   0.000000)
  64:      1227.37    0.000000  (  0.000000   0.000000   0.000000)
  65:      1245.39    0.000000  (  0.000000   0.000000   0.000000)
  66:      1262.90    0.000000  (  0.000000   0.000000   0.000000)
  67:      1281.41    0.000000  (  0.000000   0.000000   0.000000)
  68:      1284.90    0.000000  (  0.000000   0.000000   0.000000)
  69:      1291.79    0.000000  (  0.000000   0.000000   0.000000)
  70:      1302.81    0.000000  (  0.000000   0.000000   0.000000)
  71:      1343.24    0.000000  (  0.000000   0.000000   0.000000)
  72:      1356.86    0.000000  (  0.000000   0.000000   0.000000)
  73:      1364.52    0.000000  (  0.000000   0.000000   0.000000)
  74:      1379.17    0.000000  (  0.000000   0.000000   0.000000)
  75:      1409.13    0.000000  (  0.000000   0.000000   0.000000)
  76:      1433.57    0.000000  (  0.000000   0.000000   0.000000)
  77:      1447.25    0.000000  (  0.000000   0.000000   0.000000)
  78:      1473.17    0.000000  (  0.000000   0.000000   0.000000)
  79:      1502.77    0.000000  (  0.000000   0.000000   0.000000)
  80:      1507.73    0.000000  (  0.000000   0.000000   0.000000)
  81:      1512.08    0.000000  (  0.000000   0.000000   0.000000)
  82:      1515.54    0.000000  (  0.000000   0.000000   0.000000)
  83:      1534.00    0.000000  (  0.000000   0.000000   0.000000)
  84:      1541.99    0.000000  (  0.000000   0.000000   0.000000)
  85:      1548.64    0.000000  (  0.000000   0.000000   0.000000)
  86:      1561.00    0.000000  (  0.000000   0.000000   0.000000)
  87:      2587.84    0.000000  (  0.000000   0.000000   0.000000)
  88:      2818.82    0.000000  (  0.000000   0.000000   0.000000)
  89:      2830.65    0.000000  (  0.000000   0.000000   0.000000)
  90:      2868.66    0.000000  (  0.000000   0.000000   0.000000)
  91:      2892.87    0.000000  (  0.000000   0.000000   0.000000)
  92:      2900.83    0.000000  (  0.000000   0.000000   0.000000)
  93:      2906.93    0.000000  (  0.000000   0.000000   0.000000)
  94:      2908.01    0.000000  (  0.000000   0.000000   0.000000)
  95:      2912.33    0.000000  (  0.000000   0.000000   0.000000)
  96:      2916.88    0.000000  (  0.000000   0.000000   0.000000)
  97:      2930.43    0.000000  (  0.000000   0.000000   0.000000)
  98:      2935.14    0.000000  (  0.000000   0.000000   0.000000)
  99:      2970.10    0.000000  (  0.000000   0.000000   0.000000)
 100:      2981.79    0.000000  (  0.000000   0.000000   0.000000)
 101:      2987.44    0.000000  (  0.000000   0.000000   0.000000)
 102:      2998.29    0.000000  (  0.000000   0.000000   0.000000)
 103:      3008.01    0.000000  (  0.000000   0.000000   0.000000)
 104:      3021.14    0.000000  (  0.000000   0.000000   0.000000)
 105:      3275.68    0.000000  (  0.000000   0.000000   0.000000)
 106:      3417.67    0.000000  (  0.000000   0.000000   0.000000)
 107:      3426.12    0.000000  (  0.000000   0.000000   0.000000)

The first frequency considered to be a vibration is 6
The total number of vibrations considered is 102


--------------------------
THERMOCHEMISTRY AT 298.15K
--------------------------

Temperature         ... 298.15 K
Pressure            ... 1.00 atm
Total Mass          ... 215.29 AMU

Throughout the following assumptions are being made:
  (1) The electronic state is orbitally nondegenerate
  (2) There are no thermally accessible electronically excited states
  (3) Hindered rotations indicated by low frequency modes are not
      treated as such but are treated as vibrations and this may
      cause some error
  (4) All equations used are the standard statistical mechanics
      equations for an ideal gas
  (5) All vibrations are strictly harmonic

freq.      59.90  E(vib)   ...       0.51 
freq.      67.83  E(vib)   ...       0.50 
freq.      75.51  E(vib)   ...       0.49 
freq.      89.49  E(vib)   ...       0.47 
freq.     107.60  E(vib)   ...       0.45 
freq.     116.14  E(vib)   ...       0.44 
freq.     128.90  E(vib)   ...       0.43 
freq.     156.76  E(vib)   ...       0.40 
freq.     173.61  E(vib)   ...       0.38 
freq.     178.50  E(vib)   ...       0.37 
freq.     190.23  E(vib)   ...       0.36 
freq.     239.52  E(vib)   ...       0.31 
freq.     249.58  E(vib)   ...       0.31 
freq.     254.26  E(vib)   ...       0.30 
freq.     266.93  E(vib)   ...       0.29 
freq.     328.64  E(vib)   ...       0.24 
freq.     353.67  E(vib)   ...       0.22 
freq.     366.18  E(vib)   ...       0.22 
freq.     402.50  E(vib)   ...       0.19 
freq.     412.30  E(vib)   ...       0.19 
freq.     438.39  E(vib)   ...       0.17 
freq.     499.56  E(vib)   ...       0.14 
freq.     512.80  E(vib)   ...       0.13 
freq.     532.67  E(vib)   ...       0.13 
freq.     546.11  E(vib)   ...       0.12 
freq.     589.42  E(vib)   ...       0.10 
freq.     603.35  E(vib)   ...       0.10 
freq.     626.41  E(vib)   ...       0.09 
freq.     638.26  E(vib)   ...       0.09 
freq.     685.64  E(vib)   ...       0.07 
freq.     736.56  E(vib)   ...       0.06 
freq.     782.31  E(vib)   ...       0.05 
freq.     793.72  E(vib)   ...       0.05 
freq.     803.95  E(vib)   ...       0.05 
freq.     822.80  E(vib)   ...       0.05 
freq.     842.34  E(vib)   ...       0.04 
freq.     875.47  E(vib)   ...       0.04 
freq.     906.44  E(vib)   ...       0.03 
freq.     916.53  E(vib)   ...       0.03 
freq.     924.63  E(vib)   ...       0.03 
freq.     933.57  E(vib)   ...       0.03 
freq.     951.02  E(vib)   ...       0.03 
freq.     952.65  E(vib)   ...       0.03 
freq.     956.37  E(vib)   ...       0.03 
freq.     969.10  E(vib)   ...       0.03 
freq.     974.32  E(vib)   ...       0.03 
freq.    1005.79  E(vib)   ...       0.02 
freq.    1031.74  E(vib)   ...       0.02 
freq.    1059.60  E(vib)   ...       0.02 
freq.    1069.71  E(vib)   ...       0.02 
freq.    1091.92  E(vib)   ...       0.02 
freq.    1111.18  E(vib)   ...       0.01 
freq.    1124.06  E(vib)   ...       0.01 
freq.    1155.71  E(vib)   ...       0.01 
freq.    1180.49  E(vib)   ...       0.01 
freq.    1183.29  E(vib)   ...       0.01 
freq.    1200.63  E(vib)   ...       0.01 
freq.    1223.26  E(vib)   ...       0.01 
freq.    1227.37  E(vib)   ...       0.01 
freq.    1245.39  E(vib)   ...       0.01 
freq.    1262.90  E(vib)   ...       0.01 
freq.    1281.41  E(vib)   ...       0.01 
freq.    1284.90  E(vib)   ...       0.01 
freq.    1291.79  E(vib)   ...       0.01 
freq.    1302.81  E(vib)   ...       0.01 
freq.    1343.24  E(vib)   ...       0.01 
freq.    1356.86  E(vib)   ...       0.01 
freq.    1364.52  E(vib)   ...       0.01 
freq.    1379.17  E(vib)   ...       0.01 
freq.    1409.13  E(vib)   ...       0.00 
freq.    1433.57  E(vib)   ...       0.00 
freq.    1447.25  E(vib)   ...       0.00 
freq.    1473.17  E(vib)   ...       0.00 
freq.    1502.77  E(vib)   ...       0.00 
freq.    1507.73  E(vib)   ...       0.00 
freq.    1512.08  E(vib)   ...       0.00 
freq.    1515.54  E(vib)   ...       0.00 
freq.    1534.00  E(vib)   ...       0.00 
freq.    1541.99  E(vib)   ...       0.00 
freq.    1548.64  E(vib)   ...       0.00 
freq.    1561.00  E(vib)   ...       0.00 
freq.    2587.84  E(vib)   ...       0.00 
freq.    2818.82  E(vib)   ...       0.00 
freq.    2830.65  E(vib)   ...       0.00 
freq.    2868.66  E(vib)   ...       0.00 
freq.    2892.87  E(vib)   ...       0.00 
freq.    2900.83  E(vib)   ...       0.00 
freq.    2906.93  E(vib)   ...       0.00 
freq.    2908.01  E(vib)   ...       0.00 
freq.    2912.33  E(vib)   ...       0.00 
freq.    2916.88  E(vib)   ...       0.00 
freq.    2930.43  E(vib)   ...       0.00 
freq.    2935.14  E(vib)   ...       0.00 
freq.    2970.10  E(vib)   ...       0.00 
freq.    2981.79  E(vib)   ...       0.00 
freq.    2987.44  E(vib)   ...       0.00 
freq.    2998.29  E(vib)   ...       0.00 
freq.    3008.01  E(vib)   ...       0.00 
freq.    3021.14  E(vib)   ...       0.00 
freq.    3275.68  E(vib)   ...       0.00 
freq.    3417.67  E(vib)   ...       0.00 
freq.    3426.12  E(vib)   ...       0.00 

------------
INNER ENERGY
------------

The inner energy is: U= E(el) + E(ZPE) + E(vib) + E(rot) + E(trans)
    E(el)   - is the total energy from the electronic structure calculation
              = E(kin-el) + E(nuc-el) + E(el-el) + E(nuc-nuc)
    E(ZPE)  - the the zero temperature vibrational energy from the frequency calculation
    E(vib)  - the the finite temperature correction to E(ZPE) due to population
              of excited vibrational states
    E(rot)  - is the rotational thermal energy
    E(trans)- is the translational thermal energy

Summary of contributions to the inner energy U:
Electronic energy                ...    -49.38299376 Eh
Zero point energy                ...      0.30138496 Eh     189.12 kcal/mol
Thermal vibrational correction   ...      0.01454335 Eh       9.13 kcal/mol
Thermal rotational correction    ...      0.00141627 Eh       0.89 kcal/mol
Thermal translational correction ...      0.00141627 Eh       0.89 kcal/mol
-----------------------------------------------------------------------
Total thermal energy                    -49.06423291 Eh


Summary of corrections to the electronic energy:
(perhaps to be used in another calculation)
Total thermal correction                  0.01737589 Eh      10.90 kcal/mol
Non-thermal (ZPE) correction              0.30138496 Eh     189.12 kcal/mol
-----------------------------------------------------------------------
Total correction                          0.31876085 Eh     200.03 kcal/mol


--------
ENTHALPY
--------

The enthalpy is H = U + kB*T
                kB is Boltzmann's constant
Total free energy                 ...    -49.06423291 Eh 
Thermal Enthalpy correction       ...      0.00094421 Eh       0.59 kcal/mol
-----------------------------------------------------------------------
Total Enthalpy                    ...    -49.06328870 Eh


Note: Only C1 symmetry has been detected, increase convergence thresholds 
      if your molecule has a higher symmetry. Symmetry factor of 1.0 is   
      used for the rotational entropy correction. 
 

Note: Rotational entropy computed according to Herzberg 
Infrared and Raman Spectra, Chapter V,1, Van Nostrand Reinhold, 1945 
Point Group:  C1, Symmetry Number:   1  
Rotational constants in cm-1:     0.033920     0.008909     0.008041 

Vibrational entropy computed according to the QRRHO of S. Grimme
Chem.Eur.J. 2012 18 9955


-------
ENTROPY
-------

The entropy contributions are T*S = T*(S(el)+S(vib)+S(rot)+S(trans))
     S(el)   - electronic entropy
     S(vib)  - vibrational entropy
     S(rot)  - rotational entropy
     S(trans)- translational entropy
The entropies will be listed as mutliplied by the temperature to get
units of energy

Electronic entropy                ...      0.00000000 Eh      0.00 kcal/mol
Vibrational entropy               ...      0.02526429 Eh     15.85 kcal/mol
Rotational entropy                ...      0.01561383 Eh      9.80 kcal/mol
Translational entropy             ...      0.01995728 Eh     12.52 kcal/mol
-----------------------------------------------------------------------
Final entropy term                ...      0.06083541 Eh     38.17 kcal/mol

In case the symmetry of your molecule has not been determined correctly
or in case you have a reason to use a different symmetry number we print 
out the resulting rotational entropy values for sn=1,12 :
 --------------------------------------------------------
|  sn= 1 | S(rot)=       0.01561383 Eh      9.80 kcal/mol|
|  sn= 2 | S(rot)=       0.01495938 Eh      9.39 kcal/mol|
|  sn= 3 | S(rot)=       0.01457655 Eh      9.15 kcal/mol|
|  sn= 4 | S(rot)=       0.01430492 Eh      8.98 kcal/mol|
|  sn= 5 | S(rot)=       0.01409423 Eh      8.84 kcal/mol|
|  sn= 6 | S(rot)=       0.01392209 Eh      8.74 kcal/mol|
|  sn= 7 | S(rot)=       0.01377654 Eh      8.64 kcal/mol|
|  sn= 8 | S(rot)=       0.01365047 Eh      8.57 kcal/mol|
|  sn= 9 | S(rot)=       0.01353926 Eh      8.50 kcal/mol|
|  sn=10 | S(rot)=       0.01343978 Eh      8.43 kcal/mol|
|  sn=11 | S(rot)=       0.01334979 Eh      8.38 kcal/mol|
|  sn=12 | S(rot)=       0.01326763 Eh      8.33 kcal/mol|
 --------------------------------------------------------


-------------------
GIBBS FREE ENERGY
-------------------

The Gibbs free energy is G = H - T*S

Total enthalpy                    ...    -49.06328870 Eh 
Total entropy correction          ...     -0.06083541 Eh    -38.17 kcal/mol
-----------------------------------------------------------------------
Final Gibbs free energy         ...    -49.12412411 Eh

For completeness - the Gibbs free energy minus the electronic energy
G-E(el)                           ...      0.25886965 Eh    162.44 kcal/mol


Total Time for Numerical Frequencies  :        90.845 sec
Time for Reference State(s)           :         0.106 sec
Time for Displacements                :        81.868 sec

Timings for individual modules:

Sum of individual times         ...        0.215 sec (=   0.004 min)
XTB module                      ...        0.215 sec (=   0.004 min) 100.0 %
                             ****ORCA TERMINATED NORMALLY****
TOTAL RUN TIME: 0 days 0 hours 1 minutes 31 seconds 559 msec
(SLURM) EXECUTION TIME: 91.600761839 seconds.
