(SLURM) JOB ID:         815

                                 *****************
                                 * O   R   C   A *
                                 *****************

           --- An Ab Initio, DFT and Semiempirical electronic structure package ---

                  #######################################################
                  #                        -***-                        #
                  #          Department of theory and spectroscopy      #
                  #               Directorship: Frank Neese             #
                  #        Max Planck Institute fuer Kohlenforschung    #
                  #                Kaiser Wilhelm Platz 1               #
                  #                 D-45470 Muelheim/Ruhr               #
                  #                      Germany                        #
                  #                                                     #
                  #                  All rights reserved                #
                  #                        -***-                        #
                  #######################################################


                         Program Version 4.2.1 -  RELEASE  -


 With contributions from (in alphabetic order):
   Daniel Aravena         : Magnetic Suceptibility
   Michael Atanasov       : Ab Initio Ligand Field Theory (pilot matlab implementation)
   Alexander A. Auer      : GIAO ZORA, VPT2
   Ute Becker             : Parallelization
   Giovanni Bistoni       : ED, misc. LED, open-shell LED, HFLD
   Martin Brehm           : Molecular dynamics
   Dmytro Bykov           : SCF Hessian
   Vijay G. Chilkuri      : MRCI spin determinant printing, contributions to CSF-ICE
   Dipayan Datta          : RHF DLPNO-CCSD density
   Achintya Kumar Dutta   : EOM-CC, STEOM-CC
   Dmitry Ganyushin       : Spin-Orbit,Spin-Spin,Magnetic field MRCI
   Miquel Garcia          : C-PCM Hessian, Gaussian charge scheme
   Yang Guo               : DLPNO-NEVPT2, CIM, IAO-localization
   Andreas Hansen         : Spin unrestricted coupled pair/coupled cluster methods
   Benjamin Helmich-Paris : CASSCF linear response (MC-RPA)
   Lee Huntington         : MR-EOM, pCC
   Robert Izsak           : Overlap fitted RIJCOSX, COSX-SCS-MP3, EOM
   Christian Kollmar      : KDIIS, OOCD, Brueckner-CCSD(T), CCSD density
   Simone Kossmann        : Meta GGA functionals, TD-DFT gradient, OOMP2, MP2 Hessian
   Martin Krupicka        : AUTO-CI
   Lucas Lang             : DCDCAS
   Dagmar Lenk            : GEPOL surface, SMD
   Dimitrios Liakos       : Extrapolation schemes; Compound Job, initial MDCI parallelization
   Dimitrios Manganas     : Further ROCIS development; embedding schemes
   Dimitrios Pantazis     : SARC Basis sets
   Taras Petrenko         : DFT Hessian,TD-DFT gradient, ASA, ECA, R-Raman, ABS, FL, XAS/XES, NRVS
   Peter Pinski           : DLPNO-MP2, DLPNO-MP2 Gradient
   Christoph Reimann      : Effective Core Potentials
   Marius Retegan         : Local ZFS, SOC
   Christoph Riplinger    : Optimizer, TS searches, QM/MM, DLPNO-CCSD(T), (RO)-DLPNO pert. Triples
   Tobias Risthaus        : Range-separated hybrids, TD-DFT gradient, RPA, STAB
   Michael Roemelt        : Original ROCIS implementation
   Masaaki Saitow         : Open-shell DLPNO-CCSD energy and density
   Barbara Sandhoefer     : DKH picture change effects
   Avijit Sen             : IP-ROCIS
   Kantharuban Sivalingam : CASSCF convergence, NEVPT2, FIC-MRCI
   Bernardo de Souza      : ESD, SOC TD-DFT
   Georgi Stoychev        : AutoAux, RI-MP2 NMR
   Willem Van den Heuvel  : Paramagnetic NMR
   Boris Wezisla          : Elementary symmetry handling
   Frank Wennmohs         : Technical directorship


 We gratefully acknowledge several colleagues who have allowed us to
 interface, adapt or use parts of their codes:
   Stefan Grimme, W. Hujo, H. Kruse,             : VdW corrections, initial TS optimization,
                  C. Bannwarth                     DFT functionals, gCP, sTDA/sTD-DF
   Ed Valeev, F. Pavosevic, A. Kumar             : LibInt (2-el integral package), F12 methods
   Garnet Chan, S. Sharma, J. Yang, R. Olivares  : DMRG
   Ulf Ekstrom                                   : XCFun DFT Library
   Mihaly Kallay                                 : mrcc  (arbitrary order and MRCC methods)
   Andreas Klamt, Michael Diedenhofen            : otool_cosmo (COSMO solvation model)
   Jiri Pittner, Ondrej Demel                    : Mk-CCSD
   Frank Weinhold                                : gennbo (NPA and NBO analysis)
   Christopher J. Cramer and Donald G. Truhlar   : smd solvation model
   Lars Goerigk                                  : TD-DFT with DH, B97 family of functionals
   V. Asgeirsson, H. Jonsson                     : NEB implementation
   FAccTs GmbH                                   : IRC, NEB, NEB-TS, Multilevel, MM, QM/MM, CI optimization
   S Lehtola, MJT Oliveira, MAL Marques          : LibXC Library


 Your calculation uses the libint2 library for the computation of 2-el integrals
 For citations please refer to: http://libint.valeyev.net

 Your ORCA version has been built with support for libXC version: 4.2.3
 For citations please refer to: https://tddft.org/programs/libxc/

 This ORCA versions uses:
   CBLAS   interface :  Fast vector & matrix operations
   LAPACKE interface :  Fast linear algebra routines
   SCALAPACK package :  Parallel linear algebra routines




***************************************
The coordinates will be read from file: init.xyz
***************************************


Your calculation utilizes the SMD solvation module
Please cite in your paper:
A.V. Marenich, C.J. Cramer, D.G. Truhlar J. Phys. Chem. B, 113, (2009), 6378 

Your calculation utilizes the semiempirical GFN2-xTB method
Please cite in your paper:
C. Bannwarth, Ehlert S., S. Grimme,  J. Chem. Theory Comput., 15, (2019), 1652.
   

----- Orbital basis set information -----
Your calculation utilizes the basis: def2-SVP
   F. Weigend and R. Ahlrichs, Phys. Chem. Chem. Phys. 7, 3297 (2005).

================================================================================
                                        WARNINGS
                       Please study these warnings very carefully!
================================================================================

WARNING: Gradients needed for Numerical Frequencies
  ===> : Setting RunTyp to EnGrad

WARNING: The environment variable RSH_COMMAND is not set!
  ===> : All Displacements for the Numerical Hessian calculation
         will be started on localhost

WARNING: Found dipole moment calculation with XTB calculation
  ===> : Switching off dipole moment calculation


INFO   : the flag for use of LIBINT has been found!

================================================================================
                                       INPUT FILE
================================================================================
NAME = /tmp/slurm-scratch/freq.815/freq.inp
|  1> ! XTB2 NumFreq
|  2> %maxcore 1150
|  3> 
|  4> * xyzfile 0 1 init.xyz
|  5> 
|  6> %cpcm
|  7>  smd true
|  8>  smdsolvent "ch2cl2"
|  9> end
| 10> %pal nprocs 6 end
| 11> 
| 12>                          ****END OF INPUT****
================================================================================

                     *******************************
                     * Energy+Gradient Calculation *
                     *******************************

      -----------------------------------------------------------      
     |                   =====================                   |     
     |                           x T B                           |     
     |                   =====================                   |     
     |                         S. Grimme                         |     
     |          Mulliken Center for Theoretical Chemistry        |     
     |                    University of Bonn                     |     
      -----------------------------------------------------------      

   * xtb version 6.3.2 (30e43eb) compiled by 'schneider@apollo14' on 2020-08-08

   xtb is free software: you can redistribute it and/or modify it under
   the terms of the GNU Lesser General Public License as published by
   the Free Software Foundation, either version 3 of the License, or
   (at your option) any later version.
   
   xtb is distributed in the hope that it will be useful,
   but WITHOUT ANY WARRANTY; without even the implied warranty of
   MERCHANTABILITY or FITNESS FOR A PARTICULAR PURPOSE.  See the
   GNU Lesser General Public License for more details.
   
   Cite this work as:
   * S. Grimme, C. Bannwarth, P. Shushkov, J. Chem. Theory Comput., 2017,
     13, 1989-2009. DOI: 10.1021/acs.jctc.7b00118
   * C. Bannwarth, S. Ehlert and S. Grimme., J. Chem. Theory Comput., 2019,
     15, 1652-1671. DOI: 10.1021/acs.jctc.8b01176
   * P. Pracht, E. Caldeweyher, S. Ehlert, S. Grimme, ChemRxiv, 2019, preprint.
     DOI: 10.26434/chemrxiv.8326202.v1
   
   for GFN-FF:
   * S. Spicher and S. Grimme, Angew. Chem. Int. Ed., 2020,
     DOI: 10.1002/anie.202004239
   
   for DFT-D4:
   * E. Caldeweyher, C. Bannwarth and S. Grimme, J. Chem. Phys., 2017,
     147, 034112. DOI: 10.1063/1.4993215
   * E. Caldeweyher, S. Ehlert, A. Hansen, H. Neugebauer, S. Spicher,
     C. Bannwarth and S. Grimme, J. Chem. Phys., 2019, 150, 154122.
     DOI: 10.1063/1.5090222
   
   for sTDA-xTB:
   * S. Grimme and C. Bannwarth, J. Chem. Phys., 2016, 145, 054103.
     DOI: 10.1063/1.4959605
   
   in the mass-spec context:
   * V. Asgeirsson, C. Bauer and S. Grimme, Chem. Sci., 2017, 8, 4879.
     DOI: 10.1039/c7sc00601b
   * J. Koopman and S. Grimme, ACS Omega 2019, 4, 12, 15120-15133.
     DOI: 10.1021/acsomega.9b02011
   
   for metadynamics refer to:
   * S. Grimme, J. Chem. Theory Comput., 2019, 155, 2847-2862
     DOI: 10.1021/acs.jctc.9b00143
   
   with help from (in alphabetical order)
   C. Bannwarth, F. Bohle, G. Brandenburg, E. Caldeweyher, M. Checinski,
   S. Dohm, S. Ehlert, S. Ehrlich, F. März, H. Neugebauer, J. Pisarek,
   P. Pracht, P. Shushkov, and S. Spicher.
   
 * started run on 2021/04/08 at 05:48:01.852     

           -------------------------------------------------
          |                Calculation Setup                |
           -------------------------------------------------

          program call               : /opt/orca/otool_xtb /tmp/slurm-scratch/freq.815/freq_XTB.xyz --grad -c 0 -u 0 -P 6 --namespace /tmp/slurm-scratch/freq.815/freq --gbsa CH2Cl2
          hostname                   : apollo14
          calculation namespace      : /tmp/slurm-scratch/freq.815/freq
          coordinate file            : /tmp/slurm-scratch/freq.815/freq_XTB.xyz
          omp threads                :                     6
          number of atoms            :                    30
          number of electrons        :                    72
          charge                     :                     0
          spin                       :                   0.0
          first test random number   :      0.56238489983929

   ID    Z sym.   atoms
    1    6 C      1-6, 11, 16, 19, 22, 27
    2    1 H      7-9, 12-15, 17, 20, 21, 23-26, 28-30
    3    7 N      10
    4    8 O      18

molecular fragmentation (1/2 indicates fragments):
111111111111122112111111111111
# atoms in fragment 1/2:    27     3
 fragment masses (1/2) :      161.24       18.02
CMA distance (Bohr)    :   6.252
constraining FC (au)   :  0.0500
########################################################################
[WARNING] Please study the warnings concerning your input carefully
-1- prog_main_parseArguments: Process number higher than OMP_NUM_THREADS, I hope you know what you are doing.
########################################################################

           -------------------------------------------------
          |                 G F N 2 - x T B                 |
           -------------------------------------------------

        Reference                      10.1021/acs.jctc.8b01176
      * Hamiltonian:
        H0-scaling (s, p, d)           1.850000    2.230000    2.230000
        zeta-weighting                 0.500000
      * Dispersion:
        s8                             2.700000
        a1                             0.520000
        a2                             5.000000
        s9                             5.000000
      * Repulsion:
        kExp                           1.500000    1.000000
        rExp                           1.000000
      * Coulomb:
        alpha                          2.000000
        third order                    shell-resolved
        anisotropic                    true
        a3                             3.000000
        a5                             4.000000
        cn-shift                       1.200000
        cn-exp                         4.000000
        max-rad                        5.000000

      * Solvation model:               GBSA
        Solvent                        CH2Cl2
        Parameter file                 internal GFN2-xTB/GBSA
        Dielectric constant                8.9300E+00
        Reference state                gsolv [1 M gas/solution]
        Free energy shift                  4.4408E-03 Eh       2.7867E+00 kcal/mol
        Temperature                        2.9815E+02 K
        Density                            1.3300E+00 kg/L
        Solvent mass                       8.4930E+01 g/mol
        Interaction kernel             Still
        Born radius scaling (c1)           1.4917E+00
        Born radii integrator          GBOBC
        Born offset                        0.0000E+00 a0       0.0000E+00 AA
        H-bond correction              false
        Ion screening                  false
        Surface tension                    1.0000E-05 Eh       1.5569E+01 dyn/cm
        Grid points                               230 per atom

          ...................................................
          :                      SETUP                      :
          :.................................................:
          :  # basis functions                  69          :
          :  # atomic orbitals                  69          :
          :  # shells                           43          :
          :  # electrons                        72          :
          :  max. iterations                   250          :
          :  Hamiltonian                  GFN2-xTB          :
          :  restarted?                      false          :
          :  GBSA solvation                   true          :
          :  PC potential                    false          :
          :  electronic temp.          300.0000000     K    :
          :  accuracy                    1.0000000          :
          :  -> integral cutoff          0.2500000E+02      :
          :  -> integral neglect         0.1000000E-07      :
          :  -> SCF convergence          0.1000000E-05 Eh   :
          :  -> wf. convergence          0.1000000E-03 e    :
          :  Broyden damping             0.4000000          :
          ...................................................

 iter      E             dE          RMSdq      gap      omega  full diag
   1    -39.7115016 -0.397115E+02  0.409E+00    3.27       0.0  T
   2    -39.7474908 -0.359892E-01  0.248E+00    3.26       1.0  T
   3    -39.7410117  0.647910E-02  0.846E-01    2.86       1.0  T
   4    -39.7501689 -0.915722E-02  0.371E-01    3.04       1.0  T
   5    -39.7523426 -0.217373E-02  0.702E-02    2.98       1.0  T
   6    -39.7523569 -0.143217E-04  0.366E-02    2.99       1.0  T
   7    -39.7523657 -0.873148E-05  0.166E-02    2.99       1.1  T
   8    -39.7523674 -0.175462E-05  0.417E-03    2.99       4.4  T
   9    -39.7523676 -0.167150E-06  0.178E-03    2.99      10.2  T
  10    -39.7523676 -0.753141E-08  0.104E-03    2.99      17.5  T
  11    -39.7523676 -0.829371E-08  0.274E-04    2.99      66.7  T
  12    -39.7523676 -0.168065E-09  0.147E-04    2.99     124.4  T

   *** convergence criteria satisfied after 12 iterations ***

         #    Occupation            Energy/Eh            Energy/eV
      -------------------------------------------------------------
         1        2.0000           -0.6622437             -18.0206
       ...           ...                  ...                  ...
        30        2.0000           -0.4321360             -11.7590
        31        2.0000           -0.4317561             -11.7487
        32        2.0000           -0.4250987             -11.5675
        33        2.0000           -0.4239430             -11.5361
        34        2.0000           -0.4112532             -11.1908
        35        2.0000           -0.4030395             -10.9673
        36        2.0000           -0.3903946             -10.6232 (HOMO)
        37                         -0.2806087              -7.6358 (LUMO)
        38                         -0.2341185              -6.3707
        39                         -0.1982119              -5.3936
        40                         -0.0983013              -2.6749
        41                          0.0116338               0.3166
       ...                                ...                  ...
        69                          0.6210262              16.8990
      -------------------------------------------------------------
                  HL-Gap            0.1097858 Eh            2.9874 eV
             Fermi-level           -0.3355016 Eh           -9.1295 eV

 SCC (total)                   0 d,  0 h,  0 min,  0.104 sec
 SCC setup                      ...        0 min,  0.004 sec (  3.448%)
 Dispersion                     ...        0 min,  0.003 sec (  3.273%)
 classical contributions        ...        0 min,  0.003 sec (  2.847%)
 integral evaluation            ...        0 min,  0.014 sec ( 13.086%)
 iterations                     ...        0 min,  0.030 sec ( 28.613%)
 molecular gradient             ...        0 min,  0.051 sec ( 48.533%)
 printout                       ...        0 min,  0.000 sec (  0.183%)

         :::::::::::::::::::::::::::::::::::::::::::::::::::::
         ::                     SUMMARY                     ::
         :::::::::::::::::::::::::::::::::::::::::::::::::::::
         :: total energy             -39.193016084372 Eh    ::
         :: total w/o Gsasa/hb       -39.176218638949 Eh    ::
         :: gradient norm              0.047163796989 Eh/a0 ::
         :: HOMO-LUMO gap              2.987424591056 eV    ::
         ::.................................................::
         :: SCC energy               -39.752367601788 Eh    ::
         :: -> isotropic ES            0.049354611198 Eh    ::
         :: -> anisotropic ES          0.001240473340 Eh    ::
         :: -> anisotropic XC          0.028642579775 Eh    ::
         :: -> dispersion             -0.022460396727 Eh    ::
         :: -> Gsolv                  -0.021729231113 Eh    ::
         ::    -> Gborn               -0.004931785690 Eh    ::
         ::    -> Gsasa               -0.021238274596 Eh    ::
         ::    -> Ghb                  0.000000000000 Eh    ::
         ::    -> Gshift               0.004440829173 Eh    ::
         :: repulsion energy           0.559416682800 Eh    ::
         :: add. restraining           0.000000000000 Eh    ::
         :: total charge              -0.000000000000 e     ::
         :::::::::::::::::::::::::::::::::::::::::::::::::::::

           -------------------------------------------------
          |                Property Printout                |
           -------------------------------------------------

    * Orbital Energies and Occupations

         #    Occupation            Energy/Eh            Energy/eV
      -------------------------------------------------------------
         1        2.0000           -0.6622437             -18.0206
       ...           ...                  ...                  ...
        24        2.0000           -0.4770165             -12.9803
        25        2.0000           -0.4732353             -12.8774
        26        2.0000           -0.4622372             -12.5781
        27        2.0000           -0.4471470             -12.1675
        28        2.0000           -0.4413723             -12.0104
        29        2.0000           -0.4381726             -11.9233
        30        2.0000           -0.4321360             -11.7590
        31        2.0000           -0.4317561             -11.7487
        32        2.0000           -0.4250987             -11.5675
        33        2.0000           -0.4239430             -11.5361
        34        2.0000           -0.4112532             -11.1908
        35        2.0000           -0.4030395             -10.9673
        36        2.0000           -0.3903946             -10.6232 (HOMO)
        37                         -0.2806087              -7.6358 (LUMO)
        38                         -0.2341185              -6.3707
        39                         -0.1982119              -5.3936
        40                         -0.0983013              -2.6749
        41                          0.0116338               0.3166
        42                          0.0674841               1.8363
        43                          0.0833925               2.2692
        44                          0.0864036               2.3512
        45                          0.1079280               2.9369
        46                          0.1111503               3.0246
        47                          0.1213710               3.3027
       ...                                ...                  ...
        69                          0.6210262              16.8990
      -------------------------------------------------------------
                  HL-Gap            0.1097858 Eh            2.9874 eV
             Fermi-level           -0.3355016 Eh           -9.1295 eV

     #   Z          covCN         q      C6AA      α(0)
     1   6 C        2.907    -0.028    28.693     8.783
     2   6 C        2.915    -0.029    28.716     8.787
     3   6 C        2.962     0.004    27.923     8.667
     4   6 C        2.910    -0.028    28.689     8.783
     5   6 C        2.908    -0.026    28.662     8.779
     6   6 C        2.909    -0.023    28.582     8.766
     7   1 H        0.925     0.038     2.473     2.459
     8   1 H        0.925     0.061     2.189     2.314
     9   1 H        0.925     0.044     2.394     2.420
    10   7 N        1.822    -0.264    27.706     7.799
    11   6 C        3.755     0.019    20.311     6.426
    12   1 H        0.923     0.013     2.847     2.639
    13   1 H        0.923     0.045     2.390     2.417
    14   1 H        0.799     0.308     0.697     1.312
    15   1 H        0.804     0.275     0.800     1.405
    16   6 C        2.847     0.078    26.259     8.398
    17   1 H        0.923     0.008     2.916     2.670
    18   8 O        1.603    -0.626    25.812     6.857
    19   6 C        3.797    -0.058    21.617     6.620
    20   1 H        0.923     0.033     2.546     2.495
    21   1 H        0.923     0.049     2.339     2.392
    22   6 C        3.795    -0.052    21.507     6.604
    23   1 H        0.923     0.033     2.547     2.496
    24   1 H        0.923     0.031     2.579     2.512
    25   1 H        0.925     0.042     2.420     2.432
    26   1 H        0.925     0.045     2.388     2.416
    27   6 C        3.745    -0.100    22.490     6.765
    28   1 H        0.923     0.037     2.489     2.467
    29   1 H        0.923     0.036     2.501     2.473
    30   1 H        0.923     0.034     2.524     2.485

 Mol. C6AA /au·bohr⁶  :       8343.333230
 Mol. C8AA /au·bohr⁸  :     189130.746799
 Mol. α(0) /au        :        141.839809


Wiberg/Mayer (AO) data.
largest (>0.10) Wiberg bond orders for each atom

 ---------------------------------------------------------------------------
     #   Z sym  total        # sym  WBO       # sym  WBO       # sym  WBO
 ---------------------------------------------------------------------------
     1   6 C    3.990 --     2 C    1.453     6 C    1.435    25 H    0.970
                             4 C    0.105
     2   6 C    3.986 --     1 C    1.453     3 C    1.374     7 H    0.968
                             5 C    0.104
     3   6 C    3.987 --     2 C    1.374     4 C    1.363    16 C    1.092
     4   6 C    3.988 --     5 C    1.466     3 C    1.363     8 H    0.962
                             1 C    0.105
     5   6 C    3.990 --     4 C    1.466     6 C    1.422    26 H    0.970
                             2 C    0.104
     6   6 C    3.986 --     1 C    1.435     5 C    1.422     9 H    0.971
     7   1 H    0.999 --     2 C    0.968
     8   1 H    0.996 --     4 C    0.962
     9   1 H    0.998 --     6 C    0.971
    10   7 N    3.112 --    16 C    1.824    11 C    1.018
    11   6 C    3.982 --    10 N    1.018    19 C    0.986    12 H    0.967
                            13 H    0.960
    12   1 H    1.000 --    11 C    0.967
    13   1 H    0.995 --    11 C    0.960
    14   1 H    0.905 --    18 O    0.844
    15   1 H    0.924 --    18 O    0.923
    16   6 C    3.966 --    10 N    1.824     3 C    1.092    17 H    0.941
    17   1 H    0.999 --    16 C    0.941
    18   8 O    1.804 --    15 H    0.923    14 H    0.844
    19   6 C    3.989 --    22 C    1.005    11 C    0.986    20 H    0.978
                            21 H    0.976
    20   1 H    0.999 --    19 C    0.978
    21   1 H    0.998 --    19 C    0.976
    22   6 C    3.995 --    27 C    1.018    19 C    1.005    24 H    0.978
                            23 H    0.978
    23   1 H    0.999 --    22 C    0.978
    24   1 H    0.999 --    22 C    0.978
    25   1 H    0.998 --     1 C    0.970
    26   1 H    0.998 --     5 C    0.970
    27   6 C    3.995 --    22 C    1.018    30 H    0.988    29 H    0.988
                            28 H    0.987
    28   1 H    0.998 --    27 C    0.987
    29   1 H    0.999 --    27 C    0.988
    30   1 H    0.999 --    27 C    0.988
 ---------------------------------------------------------------------------

Topologies differ in total number of bonds
Writing topology from bond orders to xtbtopo.mol

molecular dipole:
                 x           y           z       tot (Debye)
 q only:        0.677       0.838      -0.082
   full:        0.730       1.402      -0.193       4.047
molecular quadrupole (traceless):
                xx          xy          yy          xz          yz          zz
 q only:        5.987      -6.862      -7.094      -0.938       0.578       1.107
  q+dip:        6.314     -10.947      -4.817       0.903       2.005      -1.497
   full:        5.078     -10.997      -7.245      -0.071       1.411       2.167


           -------------------------------------------------
          | TOTAL ENERGY              -39.193016084372 Eh   |
          | GRADIENT NORM               0.047163796989 Eh/α |
          | HOMO-LUMO GAP               2.987424591056 eV   |
           -------------------------------------------------

------------------------------------------------------------------------
 * finished run on 2021/04/08 at 05:48:02.008     
------------------------------------------------------------------------
 total:
 * wall-time:     0 d,  0 h,  0 min,  0.156 sec
 *  cpu-time:     0 d,  0 h,  0 min,  1.824 sec
 * ratio c/w:    11.709 speedup
 SCF:
 * wall-time:     0 d,  0 h,  0 min,  0.108 sec
 *  cpu-time:     0 d,  0 h,  0 min,  1.285 sec
 * ratio c/w:    11.877 speedup


-------------------------   --------------------
FINAL SINGLE POINT ENERGY       -39.193016084370
-------------------------   --------------------


----------------------------------------------------------------------------
                           ORCA NUMERICAL FREQUENCIES
                              (6-process run)
----------------------------------------------------------------------------

Number of atoms                ... 30
Central differences            ... used
Number of displacements        ... 180
Numerical increment            ... 5.000e-03 bohr
IR-spectrum generation         ... on
Raman-spectrum generation      ... off
Surface Crossing Hessian       ... off
List of participating nodes    ...  /tmp/slurm-scratch/freq.815/freq.hostnames

The output will be reduced. Please look at the following files:
SCF program output             ... >/tmp/slurm-scratch/freq.815/freq.lastscf
Integral program output        ... >/tmp/slurm-scratch/freq.815/freq.lastint
Gradient program output        ... >/tmp/slurm-scratch/freq.815/freq.lastgrad
Dipole moment program output   ... >/tmp/slurm-scratch/freq.815/freq.lastmom
AutoCI program output          ... >/tmp/slurm-scratch/freq.815/freq.lastautoci


         <<< Energy and Gradient at the input geometry >>>

        <<< Energy and Gradient at displaced geometries >>>
             <<<Displacing   1/coordinate 2 (+)>>>
             <<<Displacing   1/coordinate 3 (+)>>>
             <<<Displacing   1/coordinate 1 (+)>>>
             <<<Displacing   2/coordinate 1 (+)>>>
             <<<Displacing   2/coordinate 2 (+)>>>
             <<<Displacing   2/coordinate 3 (+)>>>
             <<<Displacing   1/coordinate 2 (-)>>>
             <<<Displacing   1/coordinate 3 (-)>>>
             <<<Displacing   1/coordinate 1 (-)>>>
             <<<Displacing   2/coordinate 1 (-)>>>
             <<<Displacing   2/coordinate 2 (-)>>>
             <<<Displacing   2/coordinate 3 (-)>>>
             <<<Displacing   3/coordinate 1 (+)>>>
             <<<Displacing   3/coordinate 2 (+)>>>
             <<<Displacing   3/coordinate 3 (+)>>>
             <<<Displacing   3/coordinate 1 (-)>>>
             <<<Displacing   4/coordinate 2 (+)>>>
             <<<Displacing   3/coordinate 2 (-)>>>
             <<<Displacing   4/coordinate 3 (+)>>>
             <<<Displacing   4/coordinate 1 (+)>>>
             <<<Displacing   4/coordinate 2 (-)>>>
             <<<Displacing   3/coordinate 3 (-)>>>
             <<<Displacing   4/coordinate 3 (-)>>>
             <<<Displacing   4/coordinate 1 (-)>>>
             <<<Displacing   5/coordinate 1 (+)>>>
             <<<Displacing   5/coordinate 2 (+)>>>
             <<<Displacing   5/coordinate 3 (+)>>>
             <<<Displacing   5/coordinate 1 (-)>>>
             <<<Displacing   5/coordinate 2 (-)>>>
             <<<Displacing   6/coordinate 2 (+)>>>
             <<<Displacing   6/coordinate 1 (+)>>>
             <<<Displacing   5/coordinate 3 (-)>>>
             <<<Displacing   6/coordinate 2 (-)>>>
             <<<Displacing   6/coordinate 1 (-)>>>
             <<<Displacing   6/coordinate 3 (+)>>>
             <<<Displacing   6/coordinate 3 (-)>>>
             <<<Displacing   7/coordinate 1 (+)>>>
             <<<Displacing   7/coordinate 2 (+)>>>
             <<<Displacing   8/coordinate 1 (+)>>>
             <<<Displacing   7/coordinate 1 (-)>>>
             <<<Displacing   7/coordinate 3 (+)>>>
             <<<Displacing   8/coordinate 2 (+)>>>
             <<<Displacing   7/coordinate 2 (-)>>>
             <<<Displacing   8/coordinate 2 (-)>>>
             <<<Displacing   7/coordinate 3 (-)>>>
             <<<Displacing   8/coordinate 1 (-)>>>
             <<<Displacing   8/coordinate 3 (+)>>>
             <<<Displacing   8/coordinate 3 (-)>>>
             <<<Displacing   9/coordinate 1 (+)>>>
             <<<Displacing   9/coordinate 3 (+)>>>
             <<<Displacing   9/coordinate 2 (+)>>>
             <<<Displacing  10/coordinate 1 (+)>>>
             <<<Displacing  10/coordinate 2 (+)>>>
             <<<Displacing   9/coordinate 3 (-)>>>
             <<<Displacing   9/coordinate 2 (-)>>>
             <<<Displacing   9/coordinate 1 (-)>>>
             <<<Displacing  10/coordinate 2 (-)>>>
             <<<Displacing  10/coordinate 1 (-)>>>
             <<<Displacing  10/coordinate 3 (+)>>>
             <<<Displacing  10/coordinate 3 (-)>>>
             <<<Displacing  11/coordinate 1 (+)>>>
             <<<Displacing  11/coordinate 2 (+)>>>
             <<<Displacing  11/coordinate 3 (+)>>>
             <<<Displacing  11/coordinate 1 (-)>>>
             <<<Displacing  11/coordinate 2 (-)>>>
             <<<Displacing  11/coordinate 3 (-)>>>
             <<<Displacing  12/coordinate 1 (+)>>>
             <<<Displacing  12/coordinate 2 (+)>>>
             <<<Displacing  12/coordinate 1 (-)>>>
             <<<Displacing  12/coordinate 2 (-)>>>
             <<<Displacing  12/coordinate 3 (+)>>>
             <<<Displacing  12/coordinate 3 (-)>>>
             <<<Displacing  13/coordinate 1 (+)>>>
             <<<Displacing  13/coordinate 2 (+)>>>
             <<<Displacing  13/coordinate 3 (+)>>>
             <<<Displacing  13/coordinate 1 (-)>>>
             <<<Displacing  13/coordinate 3 (-)>>>
             <<<Displacing  13/coordinate 2 (-)>>>
             <<<Displacing  14/coordinate 1 (+)>>>
             <<<Displacing  14/coordinate 1 (-)>>>
             <<<Displacing  14/coordinate 2 (+)>>>
             <<<Displacing  14/coordinate 2 (-)>>>
             <<<Displacing  14/coordinate 3 (+)>>>
             <<<Displacing  14/coordinate 3 (-)>>>
             <<<Displacing  15/coordinate 1 (+)>>>
             <<<Displacing  15/coordinate 2 (+)>>>
             <<<Displacing  15/coordinate 2 (-)>>>
             <<<Displacing  15/coordinate 3 (+)>>>
             <<<Displacing  15/coordinate 1 (-)>>>
             <<<Displacing  16/coordinate 1 (+)>>>
             <<<Displacing  15/coordinate 3 (-)>>>
             <<<Displacing  16/coordinate 1 (-)>>>
             <<<Displacing  16/coordinate 2 (+)>>>
             <<<Displacing  16/coordinate 3 (+)>>>
             <<<Displacing  16/coordinate 2 (-)>>>
             <<<Displacing  16/coordinate 3 (-)>>>
             <<<Displacing  17/coordinate 1 (+)>>>
             <<<Displacing  17/coordinate 1 (-)>>>
             <<<Displacing  17/coordinate 2 (+)>>>
             <<<Displacing  17/coordinate 3 (+)>>>
             <<<Displacing  17/coordinate 2 (-)>>>
             <<<Displacing  17/coordinate 3 (-)>>>
             <<<Displacing  18/coordinate 1 (+)>>>
             <<<Displacing  18/coordinate 1 (-)>>>
             <<<Displacing  18/coordinate 2 (+)>>>
             <<<Displacing  18/coordinate 3 (+)>>>
             <<<Displacing  18/coordinate 2 (-)>>>
             <<<Displacing  18/coordinate 3 (-)>>>
             <<<Displacing  19/coordinate 1 (+)>>>
             <<<Displacing  19/coordinate 2 (+)>>>
             <<<Displacing  19/coordinate 2 (-)>>>
             <<<Displacing  19/coordinate 1 (-)>>>
             <<<Displacing  19/coordinate 3 (+)>>>
             <<<Displacing  19/coordinate 3 (-)>>>
             <<<Displacing  20/coordinate 1 (+)>>>
             <<<Displacing  20/coordinate 1 (-)>>>
             <<<Displacing  20/coordinate 2 (+)>>>
             <<<Displacing  20/coordinate 3 (+)>>>
             <<<Displacing  20/coordinate 3 (-)>>>
             <<<Displacing  20/coordinate 2 (-)>>>
             <<<Displacing  21/coordinate 1 (+)>>>
             <<<Displacing  21/coordinate 2 (+)>>>
             <<<Displacing  21/coordinate 1 (-)>>>
             <<<Displacing  21/coordinate 2 (-)>>>
             <<<Displacing  21/coordinate 3 (+)>>>
             <<<Displacing  22/coordinate 1 (+)>>>
             <<<Displacing  21/coordinate 3 (-)>>>
             <<<Displacing  22/coordinate 1 (-)>>>
             <<<Displacing  22/coordinate 2 (+)>>>
             <<<Displacing  22/coordinate 3 (+)>>>
             <<<Displacing  22/coordinate 3 (-)>>>
             <<<Displacing  22/coordinate 2 (-)>>>
             <<<Displacing  23/coordinate 1 (+)>>>
             <<<Displacing  23/coordinate 1 (-)>>>
             <<<Displacing  23/coordinate 3 (+)>>>
             <<<Displacing  23/coordinate 2 (+)>>>
             <<<Displacing  23/coordinate 3 (-)>>>
             <<<Displacing  23/coordinate 2 (-)>>>
             <<<Displacing  24/coordinate 1 (+)>>>
             <<<Displacing  24/coordinate 1 (-)>>>
             <<<Displacing  24/coordinate 2 (+)>>>
             <<<Displacing  24/coordinate 3 (+)>>>
             <<<Displacing  24/coordinate 2 (-)>>>
             <<<Displacing  24/coordinate 3 (-)>>>
             <<<Displacing  25/coordinate 3 (+)>>>
             <<<Displacing  25/coordinate 1 (+)>>>
             <<<Displacing  25/coordinate 2 (+)>>>
             <<<Displacing  25/coordinate 3 (-)>>>
             <<<Displacing  25/coordinate 1 (-)>>>
             <<<Displacing  25/coordinate 2 (-)>>>
             <<<Displacing  26/coordinate 1 (+)>>>
             <<<Displacing  26/coordinate 1 (-)>>>
             <<<Displacing  26/coordinate 3 (+)>>>
             <<<Displacing  26/coordinate 2 (+)>>>
             <<<Displacing  26/coordinate 3 (-)>>>
             <<<Displacing  26/coordinate 2 (-)>>>
             <<<Displacing  27/coordinate 2 (+)>>>
             <<<Displacing  27/coordinate 3 (+)>>>
             <<<Displacing  27/coordinate 2 (-)>>>
             <<<Displacing  27/coordinate 3 (-)>>>
             <<<Displacing  27/coordinate 1 (+)>>>
             <<<Displacing  27/coordinate 1 (-)>>>
             <<<Displacing  28/coordinate 1 (+)>>>
             <<<Displacing  28/coordinate 1 (-)>>>
             <<<Displacing  28/coordinate 2 (+)>>>
             <<<Displacing  28/coordinate 3 (+)>>>
             <<<Displacing  28/coordinate 2 (-)>>>
             <<<Displacing  28/coordinate 3 (-)>>>
             <<<Displacing  29/coordinate 2 (+)>>>
             <<<Displacing  29/coordinate 3 (+)>>>
             <<<Displacing  29/coordinate 1 (+)>>>
             <<<Displacing  29/coordinate 2 (-)>>>
             <<<Displacing  29/coordinate 3 (-)>>>
             <<<Displacing  29/coordinate 1 (-)>>>
             <<<Displacing  30/coordinate 1 (+)>>>
             <<<Displacing  30/coordinate 1 (-)>>>
             <<<Displacing  30/coordinate 2 (+)>>>
             <<<Displacing  30/coordinate 2 (-)>>>
             <<<Displacing  30/coordinate 3 (+)>>>
             <<<Displacing  30/coordinate 3 (-)>>>

-----------------------
VIBRATIONAL FREQUENCIES
-----------------------

Scaling factor for frequencies =  1.000000000 (already applied!)

   0:         0.00 cm**-1
   1:         0.00 cm**-1
   2:         0.00 cm**-1
   3:         0.00 cm**-1
   4:         0.00 cm**-1
   5:         0.00 cm**-1
   6:        59.06 cm**-1
   7:        77.96 cm**-1
   8:        94.03 cm**-1
   9:       104.67 cm**-1
  10:       143.18 cm**-1
  11:       151.09 cm**-1
  12:       166.65 cm**-1
  13:       178.60 cm**-1
  14:       192.37 cm**-1
  15:       250.06 cm**-1
  16:       288.76 cm**-1
  17:       299.91 cm**-1
  18:       353.88 cm**-1
  19:       398.74 cm**-1
  20:       405.18 cm**-1
  21:       428.26 cm**-1
  22:       443.47 cm**-1
  23:       474.15 cm**-1
  24:       519.83 cm**-1
  25:       564.50 cm**-1
  26:       589.13 cm**-1
  27:       625.45 cm**-1
  28:       678.56 cm**-1
  29:       747.34 cm**-1
  30:       784.66 cm**-1
  31:       799.06 cm**-1
  32:       836.56 cm**-1
  33:       865.01 cm**-1
  34:       899.57 cm**-1
  35:       923.52 cm**-1
  36:       934.85 cm**-1
  37:       944.59 cm**-1
  38:       952.32 cm**-1
  39:       957.85 cm**-1
  40:       964.28 cm**-1
  41:       973.46 cm**-1
  42:      1004.36 cm**-1
  43:      1039.90 cm**-1
  44:      1055.30 cm**-1
  45:      1075.62 cm**-1
  46:      1110.13 cm**-1
  47:      1118.96 cm**-1
  48:      1145.92 cm**-1
  49:      1182.55 cm**-1
  50:      1186.38 cm**-1
  51:      1206.16 cm**-1
  52:      1215.13 cm**-1
  53:      1244.58 cm**-1
  54:      1259.33 cm**-1
  55:      1272.46 cm**-1
  56:      1280.19 cm**-1
  57:      1282.63 cm**-1
  58:      1329.84 cm**-1
  59:      1358.47 cm**-1
  60:      1369.76 cm**-1
  61:      1407.52 cm**-1
  62:      1432.83 cm**-1
  63:      1437.70 cm**-1
  64:      1473.26 cm**-1
  65:      1503.75 cm**-1
  66:      1508.16 cm**-1
  67:      1511.27 cm**-1
  68:      1515.89 cm**-1
  69:      1522.52 cm**-1
  70:      1531.66 cm**-1
  71:      1579.40 cm**-1
  72:      1599.87 cm**-1
  73:      2799.93 cm**-1
  74:      2820.56 cm**-1
  75:      2871.73 cm**-1
  76:      2878.28 cm**-1
  77:      2889.76 cm**-1
  78:      2896.51 cm**-1
  79:      2912.09 cm**-1
  80:      2913.35 cm**-1
  81:      2919.79 cm**-1
  82:      2930.03 cm**-1
  83:      2931.04 cm**-1
  84:      2981.06 cm**-1
  85:      2987.46 cm**-1
  86:      2993.26 cm**-1
  87:      3002.59 cm**-1
  88:      3019.86 cm**-1
  89:      3424.79 cm**-1


------------
NORMAL MODES
------------

These modes are the cartesian displacements weighted by the diagonal matrix
M(i,i)=1/sqrt(m[i]) where m[i] is the mass of the displaced atom
Thus, these vectors are normalized but *not* orthogonal

                  0          1          2          3          4          5    
      0       0.000000   0.000000   0.000000   0.000000   0.000000   0.000000
      1       0.000000   0.000000   0.000000   0.000000   0.000000   0.000000
      2       0.000000   0.000000   0.000000   0.000000   0.000000   0.000000
      3       0.000000   0.000000   0.000000   0.000000   0.000000   0.000000
      4       0.000000   0.000000   0.000000   0.000000   0.000000   0.000000
      5       0.000000   0.000000   0.000000   0.000000   0.000000   0.000000
      6       0.000000   0.000000   0.000000   0.000000   0.000000   0.000000
      7       0.000000   0.000000   0.000000   0.000000   0.000000   0.000000
      8       0.000000   0.000000   0.000000   0.000000   0.000000   0.000000
      9       0.000000   0.000000   0.000000   0.000000   0.000000   0.000000
     10       0.000000   0.000000   0.000000   0.000000   0.000000   0.000000
     11       0.000000   0.000000   0.000000   0.000000   0.000000   0.000000
     12       0.000000   0.000000   0.000000   0.000000   0.000000   0.000000
     13       0.000000   0.000000   0.000000   0.000000   0.000000   0.000000
     14       0.000000   0.000000   0.000000   0.000000   0.000000   0.000000
     15       0.000000   0.000000   0.000000   0.000000   0.000000   0.000000
     16       0.000000   0.000000   0.000000   0.000000   0.000000   0.000000
     17       0.000000   0.000000   0.000000   0.000000   0.000000   0.000000
     18       0.000000   0.000000   0.000000   0.000000   0.000000   0.000000
     19       0.000000   0.000000   0.000000   0.000000   0.000000   0.000000
     20       0.000000   0.000000   0.000000   0.000000   0.000000   0.000000
     21       0.000000   0.000000   0.000000   0.000000   0.000000   0.000000
     22       0.000000   0.000000   0.000000   0.000000   0.000000   0.000000
     23       0.000000   0.000000   0.000000   0.000000   0.000000   0.000000
     24       0.000000   0.000000   0.000000   0.000000   0.000000   0.000000
     25       0.000000   0.000000   0.000000   0.000000   0.000000   0.000000
     26       0.000000   0.000000   0.000000   0.000000   0.000000   0.000000
     27       0.000000   0.000000   0.000000   0.000000   0.000000   0.000000
     28       0.000000   0.000000   0.000000   0.000000   0.000000   0.000000
     29       0.000000   0.000000   0.000000   0.000000   0.000000   0.000000
     30       0.000000   0.000000   0.000000   0.000000   0.000000   0.000000
     31       0.000000   0.000000   0.000000   0.000000   0.000000   0.000000
     32       0.000000   0.000000   0.000000   0.000000   0.000000   0.000000
     33       0.000000   0.000000   0.000000   0.000000   0.000000   0.000000
     34       0.000000   0.000000   0.000000   0.000000   0.000000   0.000000
     35       0.000000   0.000000   0.000000   0.000000   0.000000   0.000000
     36       0.000000   0.000000   0.000000   0.000000   0.000000   0.000000
     37       0.000000   0.000000   0.000000   0.000000   0.000000   0.000000
     38       0.000000   0.000000   0.000000   0.000000   0.000000   0.000000
     39       0.000000   0.000000   0.000000   0.000000   0.000000   0.000000
     40       0.000000   0.000000   0.000000   0.000000   0.000000   0.000000
     41       0.000000   0.000000   0.000000   0.000000   0.000000   0.000000
     42       0.000000   0.000000   0.000000   0.000000   0.000000   0.000000
     43       0.000000   0.000000   0.000000   0.000000   0.000000   0.000000
     44       0.000000   0.000000   0.000000   0.000000   0.000000   0.000000
     45       0.000000   0.000000   0.000000   0.000000   0.000000   0.000000
     46       0.000000   0.000000   0.000000   0.000000   0.000000   0.000000
     47       0.000000   0.000000   0.000000   0.000000   0.000000   0.000000
     48       0.000000   0.000000   0.000000   0.000000   0.000000   0.000000
     49       0.000000   0.000000   0.000000   0.000000   0.000000   0.000000
     50       0.000000   0.000000   0.000000   0.000000   0.000000   0.000000
     51       0.000000   0.000000   0.000000   0.000000   0.000000   0.000000
     52       0.000000   0.000000   0.000000   0.000000   0.000000   0.000000
     53       0.000000   0.000000   0.000000   0.000000   0.000000   0.000000
     54       0.000000   0.000000   0.000000   0.000000   0.000000   0.000000
     55       0.000000   0.000000   0.000000   0.000000   0.000000   0.000000
     56       0.000000   0.000000   0.000000   0.000000   0.000000   0.000000
     57       0.000000   0.000000   0.000000   0.000000   0.000000   0.000000
     58       0.000000   0.000000   0.000000   0.000000   0.000000   0.000000
     59       0.000000   0.000000   0.000000   0.000000   0.000000   0.000000
     60       0.000000   0.000000   0.000000   0.000000   0.000000   0.000000
     61       0.000000   0.000000   0.000000   0.000000   0.000000   0.000000
     62       0.000000   0.000000   0.000000   0.000000   0.000000   0.000000
     63       0.000000   0.000000   0.000000   0.000000   0.000000   0.000000
     64       0.000000   0.000000   0.000000   0.000000   0.000000   0.000000
     65       0.000000   0.000000   0.000000   0.000000   0.000000   0.000000
     66       0.000000   0.000000   0.000000   0.000000   0.000000   0.000000
     67       0.000000   0.000000   0.000000   0.000000   0.000000   0.000000
     68       0.000000   0.000000   0.000000   0.000000   0.000000   0.000000
     69       0.000000   0.000000   0.000000   0.000000   0.000000   0.000000
     70       0.000000   0.000000   0.000000   0.000000   0.000000   0.000000
     71       0.000000   0.000000   0.000000   0.000000   0.000000   0.000000
     72       0.000000   0.000000   0.000000   0.000000   0.000000   0.000000
     73       0.000000   0.000000   0.000000   0.000000   0.000000   0.000000
     74       0.000000   0.000000   0.000000   0.000000   0.000000   0.000000
     75       0.000000   0.000000   0.000000   0.000000   0.000000   0.000000
     76       0.000000   0.000000   0.000000   0.000000   0.000000   0.000000
     77       0.000000   0.000000   0.000000   0.000000   0.000000   0.000000
     78       0.000000   0.000000   0.000000   0.000000   0.000000   0.000000
     79       0.000000   0.000000   0.000000   0.000000   0.000000   0.000000
     80       0.000000   0.000000   0.000000   0.000000   0.000000   0.000000
     81       0.000000   0.000000   0.000000   0.000000   0.000000   0.000000
     82       0.000000   0.000000   0.000000   0.000000   0.000000   0.000000
     83       0.000000   0.000000   0.000000   0.000000   0.000000   0.000000
     84       0.000000   0.000000   0.000000   0.000000   0.000000   0.000000
     85       0.000000   0.000000   0.000000   0.000000   0.000000   0.000000
     86       0.000000   0.000000   0.000000   0.000000   0.000000   0.000000
     87       0.000000   0.000000   0.000000   0.000000   0.000000   0.000000
     88       0.000000   0.000000   0.000000   0.000000   0.000000   0.000000
     89       0.000000   0.000000   0.000000   0.000000   0.000000   0.000000
                  6          7          8          9         10         11    
      0      -0.070741  -0.031791   0.019141  -0.053373  -0.004829  -0.017605
      1       0.015844   0.053513   0.097860   0.011704   0.003389   0.018471
      2       0.006402   0.114467  -0.046413   0.199463  -0.038029   0.094882
      3      -0.073396  -0.027956   0.001159  -0.058113  -0.012925  -0.011924
      4      -0.012906   0.036214   0.027133  -0.013836  -0.009309  -0.043122
      5      -0.019445   0.030677   0.026083   0.205692   0.037280  -0.097413
      6      -0.051362  -0.001995   0.048397  -0.019828  -0.008887   0.039170
      7      -0.034725   0.022845  -0.019118  -0.018727  -0.017748  -0.077209
      8       0.004471  -0.030862   0.061374  -0.009439   0.077398  -0.193156
      9      -0.027920   0.011659   0.116705   0.024702   0.001301   0.103228
     10      -0.025966   0.028733   0.009080   0.000905  -0.014394  -0.055276
     11       0.062495   0.005755   0.007068  -0.222009   0.058859  -0.153232
     12      -0.025291   0.006572   0.134722   0.029004   0.009517   0.100461
     13       0.003322   0.045897   0.079384   0.025680  -0.000854   0.005817
     14       0.086073   0.096586  -0.064866  -0.229765  -0.013617   0.037229
     15      -0.046632  -0.015762   0.085597  -0.008686   0.006723   0.039556
     16       0.024058   0.058949   0.123302   0.031965   0.008104   0.038991
     17       0.057284   0.146949  -0.088962  -0.025060  -0.068147   0.180551
     18      -0.091732  -0.043567  -0.048861  -0.089612  -0.021295  -0.051822
     19      -0.019192   0.030613   0.007775  -0.028364  -0.012897  -0.057450
     20      -0.057668   0.009081   0.056871   0.364607   0.053737  -0.141793
     21      -0.010888   0.019006   0.147296   0.057717   0.005117   0.158497
     22      -0.042372   0.027110  -0.018606  -0.008393  -0.021629  -0.090644
     23       0.088725  -0.043375   0.016881  -0.367657   0.091838  -0.248040
     24      -0.044279  -0.018561   0.098487  -0.004586   0.013332   0.033223
     25       0.045944   0.071806   0.174333   0.051233   0.018082   0.079343
     26       0.074489   0.207680  -0.139720  -0.035465  -0.127796   0.338943
     27      -0.037650   0.030754   0.042304  -0.014107   0.014624  -0.023357
     28      -0.080128  -0.035179  -0.116029  -0.036773  -0.034357  -0.076830
     29      -0.040768  -0.143625   0.157337  -0.061862  -0.004724   0.027207
     30      -0.040160   0.021475   0.043395  -0.013150   0.001660  -0.023026
     31      -0.085132  -0.067697  -0.104532  -0.031121  -0.096494  -0.054024
     32      -0.044241  -0.133885   0.108203  -0.064530  -0.058567   0.090129
     33      -0.034668  -0.002996   0.063757  -0.004793  -0.047287   0.005024
     34      -0.083208  -0.068314  -0.102071  -0.030341  -0.100698  -0.052577
     35      -0.134890  -0.193422   0.074934  -0.092055   0.016801   0.074019
     36      -0.068859  -0.014559   0.082260  -0.022478   0.073497  -0.061518
     37      -0.165305  -0.134350  -0.116218  -0.053510  -0.047837  -0.054890
     38      -0.000914  -0.092187   0.094476  -0.051580  -0.107987   0.106463
     39       0.210056  -0.207090  -0.083696   0.038900  -0.001915  -0.013384
     40      -0.077307  -0.095507  -0.176350  -0.085008   0.235017   0.236596
     41      -0.248576  -0.088223  -0.066835   0.125675   0.061809   0.066779
     42       0.318954  -0.325573  -0.161125   0.063719  -0.022097  -0.027922
     43      -0.022185  -0.129078  -0.137572  -0.115347   0.243091   0.286615
     44      -0.267005  -0.092028  -0.131092   0.166062   0.037873  -0.002850
     45      -0.054536  -0.000043   0.028267  -0.022714  -0.011344   0.032537
     46      -0.064880  -0.010156  -0.089742  -0.037513  -0.028386  -0.085763
     47      -0.026041  -0.109514   0.118483  -0.014168   0.083871  -0.195265
     48      -0.074723  -0.032459  -0.002741  -0.036123  -0.034013   0.065457
     49      -0.068786  -0.017151  -0.094538  -0.044422  -0.039370  -0.066861
     50      -0.032593  -0.117352   0.099627   0.029590   0.137423  -0.324742
     51       0.300331  -0.327292  -0.177805   0.088309  -0.016218  -0.013357
     52      -0.072019  -0.087486  -0.151084  -0.099142   0.228717   0.236666
     53      -0.272516  -0.096176  -0.138499   0.177723   0.041267   0.007734
     54      -0.011337   0.104814  -0.059151  -0.006583  -0.031218  -0.035818
     55       0.028623  -0.019721  -0.037509   0.011387  -0.210328  -0.014563
     56       0.034636  -0.050269   0.068678  -0.038405  -0.140937   0.107530
     57       0.054441   0.185533  -0.102977   0.034444   0.004884  -0.057883
     58       0.062833   0.003664  -0.041882   0.000476  -0.359283   0.019140
     59      -0.007501  -0.094922   0.089743  -0.052648  -0.101285   0.103971
     60      -0.067687   0.089168  -0.126034  -0.052596  -0.107360  -0.037258
     61       0.022689  -0.021577  -0.043669   0.007056  -0.214246  -0.014875
     62       0.093789  -0.024842   0.097969  -0.031958  -0.278746   0.145217
     63       0.005747   0.105932  -0.029955   0.008103   0.002318  -0.037310
     64       0.105250  -0.003162   0.062568   0.075005  -0.070477  -0.010330
     65       0.085979   0.060652  -0.052253   0.002828  -0.061831   0.045375
     66      -0.052540   0.028977   0.015735  -0.030654  -0.115561   0.004918
     67       0.092311  -0.014529   0.061548   0.097615  -0.130962  -0.019107
     68       0.116006   0.098245  -0.071690   0.011318   0.012315   0.030047
     69       0.062844   0.118592   0.044059   0.051982   0.116497  -0.029425
     70       0.109841  -0.002127   0.068711   0.078464  -0.060597  -0.009582
     71       0.049283   0.049089  -0.093098   0.011977  -0.174081   0.025777
     72      -0.086755  -0.047195  -0.018246  -0.082439  -0.006952  -0.068017
     73       0.031186   0.061339   0.131087   0.016401   0.009421   0.048694
     74      -0.011862   0.152734  -0.068912   0.353974  -0.073737   0.182160
     75      -0.007550   0.021443   0.186571   0.060711   0.018099   0.142918
     76       0.009500   0.051157   0.099100   0.039300   0.002577   0.021129
     77       0.125153   0.122752  -0.100811  -0.385915  -0.030437   0.079801
     78       0.023628   0.192810  -0.160575   0.016212   0.047914  -0.115481
     79       0.191433   0.024353   0.158459   0.099414   0.158573   0.017714
     80       0.141900   0.135500  -0.097303   0.020702   0.084571   0.005950
     81       0.030455   0.186272  -0.137043   0.020690   0.061572  -0.104518
     82       0.220725   0.018861   0.217846   0.119968   0.216884   0.039529
     83       0.159513   0.199981  -0.186786   0.037045   0.119104  -0.056934
     84      -0.012126   0.195736  -0.225513  -0.005831  -0.026826  -0.138971
     85       0.190076   0.024567   0.155823   0.098446   0.156019   0.016812
     86       0.190206   0.157136  -0.055996   0.024469   0.231986   0.019430
     87       0.063986   0.256981  -0.210856   0.039640   0.141771  -0.161981
     88       0.222979   0.048037   0.168260   0.095703   0.265278   0.019041
     89       0.114427   0.101695  -0.081353   0.012932   0.008341   0.023462
                 12         13         14         15         16         17    
      0      -0.058127  -0.007375  -0.008619   0.084675  -0.119573   0.035226
      1       0.031498   0.020841   0.026862  -0.025788   0.031102  -0.007052
      2      -0.051091  -0.026304  -0.004483   0.024131  -0.008266  -0.053898
      3      -0.077855  -0.010661  -0.022173   0.085101  -0.106600   0.043237
      4      -0.052460  -0.007139  -0.060972   0.018827   0.001080   0.022470
      5       0.048270  -0.038527  -0.002458   0.025835  -0.076511  -0.138415
      6      -0.026109   0.004021   0.019864   0.036773  -0.037948   0.010543
      7      -0.102604  -0.024022  -0.102091   0.053394  -0.045509   0.030578
      8       0.097181  -0.013219   0.005650   0.013291  -0.027137  -0.016141
      9       0.041451   0.027055   0.100813   0.025462  -0.062230   0.015842
     10      -0.077275  -0.015775  -0.073410   0.046764  -0.048253   0.035024
     11       0.088665   0.021152   0.014831   0.014030  -0.077649  -0.157651
     12       0.064902   0.031515   0.120141   0.021994  -0.068247  -0.001498
     13       0.007155   0.011574   0.010851   0.000179  -0.009043   0.001678
     14      -0.004806   0.037838   0.023211  -0.014738  -0.031147  -0.013085
     15       0.014434   0.014281   0.067318   0.061860  -0.123797   0.001361
     16       0.059545   0.028458   0.055956  -0.034047   0.028593  -0.023578
     17      -0.089622   0.015669   0.012386  -0.013402   0.058503   0.166493
     18      -0.133947  -0.026025  -0.070914   0.126739  -0.157712   0.070152
     19      -0.074143  -0.012439  -0.078887   0.035044  -0.019213   0.034091
     20       0.065694  -0.065417  -0.009513   0.039242  -0.115515  -0.211109
     21       0.082882   0.042577   0.154721   0.008907  -0.059777   0.013915
     22      -0.117495  -0.030723  -0.119675   0.060141  -0.043466   0.045956
     23       0.133639   0.036619   0.016709   0.011284  -0.113197  -0.238804
     24       0.031430   0.016283   0.076336   0.058819  -0.126924  -0.021005
     25       0.118199   0.046795   0.111338  -0.062491   0.048630  -0.048724
     26      -0.174381   0.029021   0.015766  -0.038787   0.146512   0.383850
     27      -0.026121  -0.016996  -0.074758   0.012660   0.012731   0.018661
     28      -0.080558  -0.000493   0.046054  -0.019050  -0.078703  -0.005616
     29      -0.064955  -0.027691  -0.044654   0.163430   0.296666  -0.053571
     30      -0.010475  -0.008187  -0.039439  -0.025120   0.105212  -0.011294
     31      -0.042661   0.041580   0.210446  -0.101708   0.047541  -0.058626
     32      -0.110816   0.005763   0.008876  -0.112932   0.092627  -0.047371
     33       0.024989   0.021231   0.070927  -0.085263   0.190363  -0.037888
     34      -0.039268   0.041318   0.213099  -0.102444   0.054130  -0.059970
     35      -0.300922   0.157648   0.188275  -0.348677   0.132532  -0.123822
     36      -0.055979   0.000531  -0.059148   0.141831   0.196896   0.018106
     37      -0.206516   0.186796   0.404838  -0.316966   0.132883  -0.139381
     38      -0.027321  -0.052273  -0.054484  -0.106977   0.017248  -0.028692
     39      -0.016265  -0.000865  -0.019948   0.017547   0.000306   0.002244
     40       0.149703  -0.024115  -0.052848  -0.015928  -0.014482   0.011861
     41       0.035758   0.017584  -0.039756   0.054693   0.084212  -0.029421
     42      -0.031308   0.005878  -0.004760   0.012890   0.008220  -0.023161
     43       0.150210  -0.036721  -0.068627   0.048660   0.084585  -0.027781
     44       0.023782   0.033975  -0.015181  -0.014516  -0.015618   0.002159
     45      -0.024349   0.001385   0.015052   0.016434   0.009997  -0.032245
     46      -0.116175  -0.024434  -0.062734   0.037793  -0.039148  -0.018906
     47       0.073093  -0.005564   0.022911  -0.065110   0.037672   0.269996
     48      -0.025291   0.013469   0.094114   0.026425   0.017103  -0.093639
     49      -0.122146  -0.024032  -0.049297   0.066038  -0.017621  -0.069335
     50       0.135352   0.030702   0.110160  -0.365409  -0.213692   0.684440
     51      -0.024524   0.007103  -0.001381  -0.005136   0.005696   0.001312
     52       0.141309  -0.028227  -0.057398   0.003986   0.009003   0.000820
     53       0.027315   0.033996  -0.014094  -0.020338  -0.011055   0.012724
     54       0.045457  -0.042134  -0.084438  -0.151157   0.003990  -0.035636
     55       0.181693  -0.097773   0.076470   0.067522   0.031361   0.031437
     56       0.039023  -0.089106  -0.088572  -0.102903  -0.054058  -0.015973
     57       0.073757   0.061254  -0.149226  -0.124474  -0.063718  -0.030901
     58       0.367405  -0.368554   0.042799   0.106940  -0.040149   0.089310
     59      -0.042474  -0.035089  -0.045796  -0.127286   0.003818  -0.038362
     60       0.078075  -0.205086   0.014308  -0.196836  -0.028048  -0.047365
     61       0.180514  -0.108586   0.085496   0.060685   0.028600   0.028415
     62       0.234203  -0.329361  -0.158175  -0.019304  -0.105444   0.059164
     63       0.027636   0.012448  -0.129861  -0.168518   0.053536  -0.043232
     64       0.096165   0.148798  -0.083318   0.061360   0.069179   0.021271
     65       0.026128   0.092636  -0.059130   0.014012  -0.136348  -0.004957
     66       0.082431  -0.085403  -0.169783  -0.259487   0.035047  -0.057753
     67       0.157432   0.454811  -0.262886   0.104855   0.055590   0.017960
     68      -0.020531   0.022065   0.025367   0.038400  -0.121548   0.003096
     69      -0.053032   0.166482  -0.241839  -0.209806   0.037296  -0.062733
     70       0.088595   0.160613  -0.092174   0.056510   0.066282   0.019079
     71       0.132459   0.382955  -0.205581   0.102859  -0.124175   0.005520
     72      -0.098633  -0.022509  -0.060212   0.102404  -0.124047   0.048858
     73       0.070554   0.035467   0.070180  -0.041438   0.032535  -0.014577
     74      -0.101849  -0.045121  -0.015187   0.036590   0.004509  -0.081335
     75       0.122581   0.047708   0.173713  -0.015881  -0.020708  -0.023905
     76       0.028825   0.017245   0.030468  -0.013791   0.009220  -0.006825
     77      -0.019772   0.066279   0.034499  -0.038821  -0.038983  -0.000016
     78       0.046302  -0.010902   0.044389   0.020080   0.252193   0.008868
     79      -0.103820  -0.048234  -0.000079  -0.077859  -0.009031  -0.013122
     80      -0.061978  -0.021821   0.111800   0.091595  -0.062507   0.018014
     81       0.029513   0.000686   0.014644  -0.008317   0.210892   0.000978
     82      -0.157898   0.009535  -0.083442  -0.131884  -0.107981  -0.027879
     83      -0.039553   0.035400   0.197133   0.265819   0.117677   0.068315
     84       0.114709  -0.052365   0.119282   0.083175   0.358554   0.025807
     85      -0.101504  -0.051064   0.003782  -0.075532  -0.004947  -0.012558
     86      -0.196124  -0.229571   0.236989   0.000704  -0.100390  -0.005882
     87       0.010746   0.003212   0.128968   0.136579   0.372673   0.043338
     88      -0.198669  -0.245104   0.140945  -0.130286  -0.003464  -0.026919
     89      -0.012891   0.045781   0.026525   0.065652  -0.111056   0.009804
                 18         19         20         21         22         23    
      0       0.002829  -0.051242   0.000976   0.049649   0.003033  -0.080852
      1      -0.002719   0.001401   0.009571  -0.050580  -0.001159   0.049345
      2       0.000980   0.028172  -0.200341   0.016288   0.009227   0.071325
      3       0.003217  -0.046139  -0.035439   0.030277   0.003563  -0.061901
      4       0.001680  -0.086984  -0.037602  -0.071014  -0.002535  -0.042270
      5       0.001512  -0.109041   0.196362   0.004088  -0.008120  -0.001781
      6       0.001096  -0.032813  -0.009115  -0.058956  -0.002477   0.058830
      7       0.003126  -0.102464  -0.029404  -0.003947  -0.000266  -0.089683
      8       0.001131   0.056826   0.003129  -0.026814   0.003062  -0.152419
      9      -0.001605   0.026641   0.024468   0.055513  -0.000848  -0.024710
     10       0.002478  -0.093512  -0.018514   0.025641  -0.001009  -0.135239
     11      -0.002600   0.019966  -0.201146   0.017821   0.015500   0.015377
     12      -0.002586   0.063305  -0.004080   0.077282   0.002672  -0.016018
     13      -0.001756   0.000652  -0.011356   0.029793   0.003296  -0.035831
     14      -0.003344  -0.097825   0.198883   0.016735  -0.003756   0.058285
     15      -0.000369   0.009462   0.001561   0.130591   0.005652  -0.087355
     16      -0.004052   0.029912   0.008566  -0.015175   0.000134   0.054387
     17      -0.000392   0.066272  -0.000032  -0.006467   0.001403  -0.101815
     18       0.005672  -0.081009  -0.070375   0.086029   0.007169  -0.176856
     19       0.002573  -0.097534  -0.054549  -0.047168  -0.000635  -0.088866
     20       0.002746  -0.233999   0.433912   0.021140  -0.022730   0.070474
     21      -0.004132   0.086653   0.068772   0.117274   0.006486  -0.030243
     22       0.004752  -0.145763  -0.025671  -0.031370  -0.007137  -0.141135
     23      -0.004160   0.044916  -0.448629   0.039929   0.009541   0.138846
     24      -0.000844   0.009725   0.004925   0.131331   0.005816  -0.073301
     25      -0.006588   0.070950   0.022927  -0.008204  -0.000825   0.090238
     26       0.000126   0.146043  -0.010758  -0.025192  -0.002785  -0.173426
     27       0.002490  -0.039349  -0.009140  -0.151431  -0.004373   0.181809
     28      -0.005991   0.185321   0.056274   0.110645   0.005972   0.157165
     29       0.001054   0.156218   0.060124  -0.015988  -0.005936  -0.085661
     30       0.002261  -0.050526  -0.012996  -0.198043  -0.008989   0.081628
     31      -0.003623   0.016031  -0.000103  -0.080081  -0.005287  -0.116985
     32      -0.003350  -0.135224  -0.033063   0.086813   0.004393   0.064536
     33       0.006048  -0.255384  -0.078379  -0.376786  -0.017965  -0.080154
     34      -0.003559   0.007089  -0.002762  -0.087094  -0.005708  -0.121794
     35       0.004476  -0.338516  -0.099636   0.022339   0.003446  -0.043865
     36       0.006648   0.106579   0.039313  -0.232971  -0.013679   0.141395
     37       0.005302  -0.248930  -0.083543  -0.212495  -0.007677  -0.258835
     38      -0.008634  -0.104791  -0.025223   0.150542   0.007119   0.086948
     39      -0.000709   0.029165   0.005540  -0.025588   0.107802   0.101759
     40       0.003062  -0.048296  -0.021397  -0.008308  -0.025959   0.021340
     41      -0.001799   0.036344   0.034050  -0.028905   0.076973  -0.130654
     42      -0.000656   0.019529  -0.089096   0.146067  -0.860045  -0.008868
     43       0.004071  -0.005346   0.034772  -0.044903   0.146448  -0.177207
     44      -0.003129  -0.003568  -0.057263   0.075979  -0.461558   0.015235
     45      -0.000030   0.004591   0.005698  -0.114502  -0.003827   0.132531
     46      -0.002966   0.137876   0.047820   0.074640   0.005376   0.158682
     47       0.002246   0.050810  -0.006591  -0.009461  -0.002917   0.039213
     48      -0.004499   0.158727   0.053075  -0.053929  -0.001963   0.188213
     49      -0.004097   0.192374   0.064757   0.085792   0.005847   0.139902
     50       0.002776  -0.172038  -0.078296   0.046859  -0.001079   0.362225
     51      -0.001899  -0.005095   0.007767  -0.009383   0.049759  -0.007169
     52       0.003252  -0.025753  -0.009996  -0.010460  -0.012647  -0.001160
     53      -0.003726  -0.014264  -0.003071  -0.007506   0.024519   0.002651
     54      -0.006078   0.095713   0.022538  -0.059343  -0.005225  -0.088198
     55      -0.009850  -0.026471  -0.008783  -0.085756  -0.004352  -0.018321
     56      -0.012003  -0.049572  -0.012814   0.125340   0.005753   0.040956
     57       0.020545   0.198064   0.047857  -0.103117  -0.009273  -0.168204
     58      -0.063004  -0.005269  -0.003440  -0.054980  -0.001513   0.006236
     59      -0.004473  -0.102850  -0.026063   0.130462   0.006235   0.067811
     60      -0.046057   0.162596   0.037498  -0.126686  -0.009380  -0.182148
     61      -0.013062  -0.019313  -0.007115  -0.089243  -0.004665  -0.027484
     62      -0.055258  -0.070569  -0.016316   0.169910   0.012334   0.125078
     63       0.002940   0.087490   0.022807   0.044225  -0.000392  -0.098250
     64       0.033089  -0.059261  -0.013065   0.068734   0.004386   0.051729
     65       0.022292   0.074771   0.016046  -0.111442  -0.008707  -0.037218
     66      -0.001309   0.083423   0.021024   0.088002   0.001119  -0.117094
     67       0.065520  -0.019880  -0.000926   0.076514   0.004868   0.057507
     68       0.011765   0.059458   0.011709  -0.131035  -0.009472  -0.028616
     69       0.009073   0.122679   0.033709   0.107825   0.003060  -0.099582
     70       0.032746  -0.053827  -0.011568   0.071582   0.004485   0.049119
     71       0.057787   0.083147   0.020130  -0.113277  -0.008905  -0.011676
     72       0.005263  -0.109751   0.006108  -0.003788   0.000212  -0.104015
     73      -0.004809   0.045267   0.033482  -0.007444   0.000546   0.050123
     74       0.001903   0.057389  -0.429220   0.032554   0.014905   0.198968
     75      -0.005216   0.129481  -0.007897   0.033482   0.001177   0.081752
     76      -0.002692   0.025902  -0.015337   0.011856   0.002862  -0.000462
     77      -0.005612  -0.211005   0.412023   0.025132  -0.016773   0.187070
     78      -0.000522  -0.076039  -0.015109   0.188228   0.008140   0.012485
     79      -0.008872   0.015372   0.003881   0.023983   0.001949  -0.014366
     80      -0.000308   0.005288  -0.001095  -0.100872  -0.007277   0.017916
     81      -0.109830  -0.041447  -0.007574   0.143318   0.005289  -0.018527
     82      -0.491004   0.094186   0.020180  -0.096643  -0.005937  -0.096567
     83      -0.316541  -0.165318  -0.041612   0.052058   0.001508   0.131006
     84       0.475118  -0.161890  -0.032987   0.316920   0.016414   0.099697
     85       0.012995   0.012231   0.003241   0.028524   0.002233  -0.010941
     86       0.300787   0.051506   0.010432  -0.129326  -0.007402  -0.006843
     87      -0.373298  -0.192239  -0.043391   0.278951   0.013232   0.080797
     88       0.411541   0.024948   0.007351   0.040193   0.004135  -0.005760
     89      -0.011687   0.046623   0.008544  -0.141191  -0.010043  -0.011622
                 24         25         26         27         28         29    
      0       0.000060  -0.001717  -0.297939   0.091531   0.018769   0.010329
      1      -0.032910  -0.007634  -0.188290   0.182656   0.010296   0.011728
      2       0.148731  -0.002378  -0.036516   0.023791  -0.197932   0.001722
      3       0.010747  -0.002916  -0.204818   0.108006  -0.014852   0.008490
      4       0.001883  -0.000218   0.260071   0.206117  -0.009228   0.004767
      5      -0.034970   0.006528  -0.005992   0.015634   0.177085  -0.004028
      6      -0.002453  -0.007588   0.035289   0.248719   0.025591   0.003233
      7       0.039333   0.004813   0.122111  -0.012447   0.014005  -0.000905
      8      -0.292457   0.003392   0.009372   0.018274  -0.273561   0.009243
      9       0.011353   0.004205   0.275011   0.000925  -0.016026   0.000388
     10       0.045766   0.010027   0.158907  -0.117448  -0.006088  -0.001954
     11      -0.015828  -0.004950   0.036939  -0.011874   0.175749  -0.011441
     12      -0.003579   0.003795   0.216545  -0.037872   0.017197  -0.007572
     13       0.009743   0.001740  -0.297550  -0.154184   0.010169  -0.004834
     14       0.141260  -0.004219   0.004358  -0.004366  -0.196223   0.001094
     15       0.057471   0.007965  -0.041628  -0.237274  -0.013452  -0.017449
     16      -0.007288  -0.004238  -0.139035   0.031679  -0.007345   0.001618
     17      -0.183341   0.004932  -0.009327  -0.027336   0.164645  -0.005668
     18       0.031661   0.005344  -0.069386  -0.041031  -0.043681  -0.002609
     19       0.007207   0.002827   0.297263   0.146975  -0.025286   0.000320
     20       0.163968   0.013318   0.004618   0.010596   0.497912   0.008283
     21      -0.000967   0.002382   0.131626  -0.188531  -0.050141   0.029139
     22       0.028558   0.010169   0.262476   0.040853  -0.016406  -0.026199
     23       0.206170   0.005386   0.021141  -0.016788   0.502951   0.033230
     24       0.064759   0.007748   0.023308  -0.234103  -0.040502  -0.021229
     25      -0.005845  -0.001119   0.245887  -0.014561  -0.022560  -0.012894
     26      -0.281728   0.010963   0.013545  -0.029280   0.459565   0.016185
     27      -0.080424  -0.011459   0.014500  -0.134982  -0.011948  -0.008492
     28      -0.039214  -0.011350   0.042995   0.061047   0.000786  -0.001796
     29       0.121745   0.027276  -0.005238   0.032078   0.023997  -0.013179
     30      -0.026910  -0.000640  -0.002173  -0.209646  -0.005451  -0.010702
     31       0.047598   0.004932  -0.003198   0.036686   0.003167   0.008790
     32      -0.070344  -0.000421   0.003902  -0.043492  -0.004476   0.002789
     33      -0.004912   0.010958  -0.044739  -0.363014  -0.016424  -0.000916
     34       0.047872   0.006295  -0.004990   0.023320   0.002586   0.008686
     35      -0.123635  -0.002733  -0.022249  -0.181861  -0.037671  -0.017623
     36       0.063873   0.005612   0.014062  -0.165845   0.033133  -0.017292
     37       0.004234   0.006567  -0.043556  -0.172337  -0.030339  -0.020737
     38      -0.092694  -0.003573   0.011625   0.018287  -0.009617   0.019006
     39      -0.008881   0.308240   0.058484  -0.151474   0.036196   0.872346
     40      -0.012829   0.173996  -0.024337   0.035806  -0.013040  -0.122166
     41       0.045955  -0.572916   0.069362  -0.128789   0.041282   0.446262
     42      -0.026969  -0.152618  -0.011068  -0.024699  -0.007054   0.076721
     43       0.055184  -0.717796   0.041537  -0.058481   0.030263  -0.034451
     44      -0.020206   0.001908  -0.010787  -0.010338  -0.006155   0.043132
     45      -0.067868  -0.010741   0.014774   0.139150  -0.002728  -0.005908
     46      -0.056475  -0.007760   0.029450  -0.180510  -0.009181  -0.007992
     47       0.126521  -0.004237  -0.000833   0.016088   0.014126  -0.000183
     48      -0.096129  -0.012625   0.014675   0.276130  -0.006222   0.001347
     49      -0.078468  -0.004613   0.030324  -0.129108  -0.021176  -0.006116
     50       0.315159  -0.036509   0.005820  -0.025925   0.147852  -0.003034
     51       0.001541  -0.002231  -0.003519   0.010431  -0.002237  -0.039296
     52      -0.002216   0.045930  -0.004058  -0.005172  -0.002080   0.006716
     53      -0.000878   0.018657  -0.003194   0.003821  -0.001040  -0.020850
     54       0.059354   0.003756  -0.005226  -0.016163   0.004579  -0.000084
     55       0.026310   0.001970  -0.005569  -0.042519   0.006077   0.004386
     56      -0.065250  -0.005980   0.006564   0.038958  -0.013218   0.005308
     57       0.127380   0.008723  -0.011838   0.025389   0.013499   0.003941
     58       0.031962  -0.002079  -0.007095  -0.032012   0.006679  -0.038040
     59      -0.095716  -0.006716   0.009866   0.014069  -0.016636   0.018589
     60       0.128717   0.022460  -0.011172   0.020908   0.015658  -0.007918
     61       0.031713   0.004452  -0.005777  -0.036530   0.006680   0.004432
     62      -0.094342  -0.019237   0.007005   0.010780  -0.017986  -0.050547
     63       0.060167   0.004537  -0.005146   0.034591   0.008090   0.000544
     64      -0.035076  -0.003407   0.003120  -0.009543  -0.004443   0.000640
     65       0.032696   0.003188  -0.003045  -0.001967   0.003200   0.000749
     66       0.054781   0.002723  -0.004940   0.054363   0.005171   0.013543
     67      -0.026811   0.001021   0.005136   0.011619  -0.001349  -0.023483
     68       0.030003   0.002133  -0.003600  -0.018878   0.003019   0.003756
     69       0.057224   0.004880  -0.001941   0.080937   0.007336  -0.015060
     70      -0.033219  -0.002980   0.003208  -0.004967  -0.004077  -0.000703
     71       0.029913   0.006995  -0.000901  -0.001472   0.005111  -0.020296
     72      -0.032997  -0.003695  -0.161704   0.292165   0.003420   0.020921
     73      -0.039490  -0.005348  -0.285344   0.009269   0.002391   0.000105
     74       0.430383  -0.004406  -0.032364   0.045473  -0.032025   0.016695
     75      -0.070027  -0.004895   0.081961   0.135623   0.001407  -0.002411
     76      -0.018434  -0.001524  -0.335016  -0.084355   0.002414  -0.002608
     77       0.413884  -0.005834  -0.014671   0.024014  -0.038805   0.024245
     78      -0.017956  -0.000854   0.001319   0.035633   0.000384   0.000925
     79       0.004823  -0.003062   0.000448   0.013961   0.000545   0.000388
     80      -0.001305  -0.000694  -0.000305  -0.033892  -0.000973  -0.001041
     81       0.004681   0.000710  -0.000906   0.033908   0.003618   0.000192
     82       0.062425   0.001735  -0.005318   0.009768   0.008875  -0.001615
     83      -0.093762  -0.005878   0.008516  -0.028661  -0.014654   0.000148
     84      -0.079905  -0.004843   0.007554   0.040906  -0.008822   0.003365
     85       0.002508  -0.003160   0.000690   0.013790   0.000220   0.000360
     86       0.019971  -0.001946  -0.001596  -0.029689   0.002902  -0.007982
     87      -0.077049  -0.004074   0.007111   0.040572  -0.008397  -0.000168
     88       0.002726  -0.005914   0.001269   0.017553   0.001212  -0.004683
     89       0.022252   0.001573  -0.002812  -0.036599   0.002180   0.001356
                 30         31         32         33         34         35    
      0      -0.003515  -0.008301  -0.079329   0.052908   0.004902   0.001725
      1      -0.002829  -0.010688  -0.092595   0.058017   0.002720  -0.000272
      2       0.035185  -0.002451  -0.012473   0.006363  -0.053952  -0.040267
      3      -0.005800  -0.005276  -0.043184   0.025532   0.008561  -0.003225
      4      -0.003886  -0.002908  -0.008859  -0.002427   0.003716  -0.001360
      5       0.062227  -0.002962  -0.007188   0.001234  -0.087886   0.032894
      6       0.008488  -0.000606   0.034558  -0.039943   0.000543   0.000292
      7       0.004526  -0.000113  -0.010112   0.010274   0.000040  -0.002631
      8      -0.089604   0.003900   0.014709   0.001528  -0.011967   0.034641
      9      -0.006110  -0.004283  -0.038718   0.024180  -0.006211  -0.004961
     10       0.000288   0.009757   0.076449  -0.035099  -0.001447  -0.001072
     11       0.058252  -0.001238  -0.003195   0.000858   0.075692   0.050374
     12      -0.005330  -0.005983  -0.063558   0.039090  -0.006654  -0.002892
     13       0.001546   0.014512   0.132665  -0.081418  -0.001565   0.003125
     14       0.029330  -0.000709  -0.000692  -0.000974   0.061785   0.011318
     15      -0.006218   0.010771   0.078397  -0.045521  -0.003762   0.005496
     16      -0.003568  -0.002334  -0.021386   0.012732  -0.001444   0.002126
     17       0.063542  -0.001314   0.002144  -0.005437   0.015133  -0.065166
     18       0.034844  -0.001554  -0.014697   0.012413  -0.052275   0.017631
     19       0.018858  -0.002166  -0.003834  -0.003215  -0.030299   0.010667
     20      -0.382716   0.010863   0.002986   0.006387   0.575679  -0.228467
     21       0.034095  -0.006585  -0.041580   0.029673   0.053488   0.036570
     22       0.012565   0.010844   0.084178  -0.044876   0.016074   0.011142
     23      -0.327640   0.007409   0.010315   0.000074  -0.494888  -0.344990
     24       0.045991   0.007936   0.063650  -0.039879   0.006479  -0.036159
     25       0.021314  -0.004406  -0.041032   0.020382   0.002161  -0.021173
     26      -0.518560   0.017207   0.031276   0.012015  -0.101681   0.388252
     27      -0.007170   0.002383   0.000478  -0.010167   0.002352  -0.008161
     28       0.001499  -0.000582   0.042686  -0.036402   0.000741  -0.001308
     29       0.016038  -0.007445  -0.011563  -0.015359  -0.010870   0.041130
     30      -0.001251   0.008296  -0.009151   0.056908   0.002180  -0.013319
     31       0.002515   0.018644   0.063310   0.031277   0.001154  -0.011624
     32       0.003635   0.011714   0.020448   0.047267  -0.004060   0.036250
     33      -0.013563  -0.009503  -0.142062   0.088433   0.006227  -0.037994
     34       0.001845   0.016524   0.050065   0.033046   0.001375  -0.012424
     35      -0.039925  -0.244975  -0.353316  -0.319830   0.001321  -0.017585
     36       0.029559  -0.039771   0.007256  -0.051466  -0.013204   0.078771
     37      -0.040870  -0.218964  -0.340868  -0.273997   0.006960  -0.061826
     38       0.004936   0.116805   0.156000   0.197247   0.001249   0.009141
     39       0.053816  -0.068344   0.022406  -0.058828   0.017656   0.011238
     40      -0.006769   0.009693  -0.004633   0.007157  -0.001291  -0.001809
     41       0.025777  -0.034763   0.017285  -0.027321   0.007613   0.007956
     42       0.011716  -0.009296   0.002217  -0.005943   0.008260   0.005938
     43      -0.009799   0.002924   0.002109   0.010939  -0.015781  -0.000973
     44       0.006815  -0.004927   0.000005  -0.003263   0.006366   0.002954
[...]
     31       0.000108  -0.000064   0.000029  -0.000173   0.000018   0.000021
     32      -0.000101   0.000074  -0.000011   0.000164   0.000032  -0.000012
     33       0.000494  -0.000239   0.000033  -0.000387  -0.000565   0.000078
     34      -0.002465   0.001419  -0.000308   0.003297   0.001064  -0.000013
     35      -0.000115   0.000047  -0.000042   0.000126  -0.000006   0.000194
     36       0.000583  -0.000455   0.000117  -0.001000  -0.000124   0.000052
     37       0.000568  -0.000347   0.000090  -0.000774  -0.000146  -0.000312
     38       0.001327  -0.000958   0.000207  -0.002117  -0.000303  -0.000337
     39      -0.000314  -0.000255  -0.000494   0.000054  -0.003071   0.014629
     40      -0.016142   0.013764   0.002140   0.022398   0.044258  -0.023548
     41      -0.004327   0.003549   0.000414   0.005875   0.010676  -0.034022
     42       0.000005  -0.000494  -0.000518  -0.000428  -0.002688  -0.454660
     43       0.000547  -0.000453  -0.000023  -0.000624  -0.001495   0.098453
     44      -0.000106   0.000429   0.000391   0.000550   0.002524   0.882040
     45      -0.000461   0.000125  -0.000045   0.000361  -0.000258   0.000079
     46       0.000410  -0.000191   0.000136  -0.000472  -0.000524  -0.000058
     47       0.000012  -0.000012   0.000005  -0.000012  -0.000078  -0.000015
     48       0.005158  -0.001915   0.000756  -0.002419  -0.000454  -0.000327
     49      -0.010553   0.004240  -0.000663   0.006759   0.003459  -0.000011
     50      -0.000649   0.000274  -0.000000   0.000499   0.000338  -0.000207
     51       0.000024   0.000022   0.000030  -0.000014   0.000099   0.027803
     52       0.001004  -0.000857  -0.000142  -0.001396  -0.002770  -0.004796
     53       0.000283  -0.000267  -0.000067  -0.000421  -0.000959  -0.053498
     54       0.000034  -0.000016   0.000014  -0.000053   0.000035  -0.000036
     55      -0.000040  -0.000002  -0.000037   0.000019  -0.000039   0.000147
     56       0.000050  -0.000019   0.000024  -0.000051   0.000083  -0.000065
     57      -0.000239   0.000114  -0.000089   0.000359  -0.000371   0.000334
     58      -0.000177   0.000052  -0.000088   0.000152  -0.000597   0.000140
     59      -0.000653   0.000207  -0.000305   0.000531  -0.001169   0.000868
     60      -0.000114  -0.000005  -0.000091   0.000116  -0.000135  -0.000439
     61       0.000637   0.000057   0.000537  -0.000139   0.001147  -0.001342
     62      -0.000006   0.000013   0.000018  -0.000003   0.000241   0.000182
     63      -0.000028   0.000012  -0.000008   0.000007  -0.000017  -0.000017
     64       0.000019  -0.000018   0.000001  -0.000031   0.000052   0.000006
     65      -0.000046   0.000026  -0.000012   0.000041  -0.000010   0.000012
     66       0.000248  -0.000116   0.000064  -0.000115   0.000015   0.000036
     67       0.000253  -0.000109   0.000080  -0.000155   0.000085  -0.000060
     68       0.000586  -0.000284   0.000156  -0.000400   0.000118  -0.000115
     69       0.000051  -0.000006   0.000031   0.000028   0.000096   0.000276
     70      -0.000506   0.000264  -0.000127   0.000435  -0.000756  -0.000358
     71      -0.000035   0.000003  -0.000021  -0.000006  -0.000020   0.000024
     72       0.246830   0.156839  -0.392664   0.392711  -0.013527  -0.000001
     73       0.302078   0.194018  -0.479675   0.482275  -0.016968   0.000049
     74       0.037217   0.023732  -0.059156   0.059311  -0.002069   0.000004
     75       0.011703   0.220905   0.228653   0.127339  -0.063198  -0.000166
     76      -0.033673  -0.592936  -0.608949  -0.343187   0.171093   0.000190
     77      -0.000474  -0.006771  -0.006844  -0.003996   0.002026   0.000028
     78      -0.000031   0.000014  -0.000012   0.000013  -0.000004  -0.000020
     79      -0.000033   0.000001  -0.000016  -0.000003   0.000013   0.000039
     80       0.000025  -0.000009   0.000008   0.000002   0.000018  -0.000000
     81       0.000612  -0.000299   0.000212  -0.000378   0.000134   0.000215
     82      -0.000180   0.000081  -0.000057   0.000115  -0.000037  -0.000074
     83       0.000059  -0.000025   0.000021  -0.000049   0.000014  -0.000012
     84      -0.000050   0.000016  -0.000022   0.000056  -0.000013  -0.000053
     85       0.000710  -0.000176   0.000282  -0.000079   0.000083  -0.000359
     86       0.000003  -0.000004  -0.000002  -0.000011   0.000037   0.000025
     87      -0.000167   0.000074  -0.000046   0.000079  -0.000095   0.000055
     88      -0.000148   0.000060  -0.000028   0.000020  -0.000110   0.000070
     89      -0.000384   0.000151  -0.000108   0.000042  -0.000268   0.000163


-----------
IR SPECTRUM  
-----------

 Mode    freq (cm**-1)   T**2         TX         TY         TZ
-------------------------------------------------------------------
   6:        59.06    0.000000  (  0.000000   0.000000   0.000000)
   7:        77.96    0.000000  (  0.000000   0.000000   0.000000)
   8:        94.03    0.000000  (  0.000000   0.000000   0.000000)
   9:       104.67    0.000000  (  0.000000   0.000000   0.000000)
  10:       143.18    0.000000  (  0.000000   0.000000   0.000000)
  11:       151.09    0.000000  (  0.000000   0.000000   0.000000)
  12:       166.65    0.000000  (  0.000000   0.000000   0.000000)
  13:       178.60    0.000000  (  0.000000   0.000000   0.000000)
  14:       192.37    0.000000  (  0.000000   0.000000   0.000000)
  15:       250.06    0.000000  (  0.000000   0.000000   0.000000)
  16:       288.76    0.000000  (  0.000000   0.000000   0.000000)
  17:       299.91    0.000000  (  0.000000   0.000000   0.000000)
  18:       353.88    0.000000  (  0.000000   0.000000   0.000000)
  19:       398.74    0.000000  (  0.000000   0.000000   0.000000)
  20:       405.18    0.000000  (  0.000000   0.000000   0.000000)
  21:       428.26    0.000000  (  0.000000   0.000000   0.000000)
  22:       443.47    0.000000  (  0.000000   0.000000   0.000000)
  23:       474.15    0.000000  (  0.000000   0.000000   0.000000)
  24:       519.83    0.000000  (  0.000000   0.000000   0.000000)
  25:       564.50    0.000000  (  0.000000   0.000000   0.000000)
  26:       589.13    0.000000  (  0.000000   0.000000   0.000000)
  27:       625.45    0.000000  (  0.000000   0.000000   0.000000)
  28:       678.56    0.000000  (  0.000000   0.000000   0.000000)
  29:       747.34    0.000000  (  0.000000   0.000000   0.000000)
  30:       784.66    0.000000  (  0.000000   0.000000   0.000000)
  31:       799.06    0.000000  (  0.000000   0.000000   0.000000)
  32:       836.56    0.000000  (  0.000000   0.000000   0.000000)
  33:       865.01    0.000000  (  0.000000   0.000000   0.000000)
  34:       899.57    0.000000  (  0.000000   0.000000   0.000000)
  35:       923.52    0.000000  (  0.000000   0.000000   0.000000)
  36:       934.85    0.000000  (  0.000000   0.000000   0.000000)
  37:       944.59    0.000000  (  0.000000   0.000000   0.000000)
  38:       952.32    0.000000  (  0.000000   0.000000   0.000000)
  39:       957.85    0.000000  (  0.000000   0.000000   0.000000)
  40:       964.28    0.000000  (  0.000000   0.000000   0.000000)
  41:       973.46    0.000000  (  0.000000   0.000000   0.000000)
  42:      1004.36    0.000000  (  0.000000   0.000000   0.000000)
  43:      1039.90    0.000000  (  0.000000   0.000000   0.000000)
  44:      1055.30    0.000000  (  0.000000   0.000000   0.000000)
  45:      1075.62    0.000000  (  0.000000   0.000000   0.000000)
  46:      1110.13    0.000000  (  0.000000   0.000000   0.000000)
  47:      1118.96    0.000000  (  0.000000   0.000000   0.000000)
  48:      1145.92    0.000000  (  0.000000   0.000000   0.000000)
  49:      1182.55    0.000000  (  0.000000   0.000000   0.000000)
  50:      1186.38    0.000000  (  0.000000   0.000000   0.000000)
  51:      1206.16    0.000000  (  0.000000   0.000000   0.000000)
  52:      1215.13    0.000000  (  0.000000   0.000000   0.000000)
  53:      1244.58    0.000000  (  0.000000   0.000000   0.000000)
  54:      1259.33    0.000000  (  0.000000   0.000000   0.000000)
  55:      1272.46    0.000000  (  0.000000   0.000000   0.000000)
  56:      1280.19    0.000000  (  0.000000   0.000000   0.000000)
  57:      1282.63    0.000000  (  0.000000   0.000000   0.000000)
  58:      1329.84    0.000000  (  0.000000   0.000000   0.000000)
  59:      1358.47    0.000000  (  0.000000   0.000000   0.000000)
  60:      1369.76    0.000000  (  0.000000   0.000000   0.000000)
  61:      1407.52    0.000000  (  0.000000   0.000000   0.000000)
  62:      1432.83    0.000000  (  0.000000   0.000000   0.000000)
  63:      1437.70    0.000000  (  0.000000   0.000000   0.000000)
  64:      1473.26    0.000000  (  0.000000   0.000000   0.000000)
  65:      1503.75    0.000000  (  0.000000   0.000000   0.000000)
  66:      1508.16    0.000000  (  0.000000   0.000000   0.000000)
  67:      1511.27    0.000000  (  0.000000   0.000000   0.000000)
  68:      1515.89    0.000000  (  0.000000   0.000000   0.000000)
  69:      1522.52    0.000000  (  0.000000   0.000000   0.000000)
  70:      1531.66    0.000000  (  0.000000   0.000000   0.000000)
  71:      1579.40    0.000000  (  0.000000   0.000000   0.000000)
  72:      1599.87    0.000000  (  0.000000   0.000000   0.000000)
  73:      2799.93    0.000000  (  0.000000   0.000000   0.000000)
  74:      2820.56    0.000000  (  0.000000   0.000000   0.000000)
  75:      2871.73    0.000000  (  0.000000   0.000000   0.000000)
  76:      2878.28    0.000000  (  0.000000   0.000000   0.000000)
  77:      2889.76    0.000000  (  0.000000   0.000000   0.000000)
  78:      2896.51    0.000000  (  0.000000   0.000000   0.000000)
  79:      2912.09    0.000000  (  0.000000   0.000000   0.000000)
  80:      2913.35    0.000000  (  0.000000   0.000000   0.000000)
  81:      2919.79    0.000000  (  0.000000   0.000000   0.000000)
  82:      2930.03    0.000000  (  0.000000   0.000000   0.000000)
  83:      2931.04    0.000000  (  0.000000   0.000000   0.000000)
  84:      2981.06    0.000000  (  0.000000   0.000000   0.000000)
  85:      2987.46    0.000000  (  0.000000   0.000000   0.000000)
  86:      2993.26    0.000000  (  0.000000   0.000000   0.000000)
  87:      3002.59    0.000000  (  0.000000   0.000000   0.000000)
  88:      3019.86    0.000000  (  0.000000   0.000000   0.000000)
  89:      3424.79    0.000000  (  0.000000   0.000000   0.000000)

The first frequency considered to be a vibration is 6
The total number of vibrations considered is 84


--------------------------
THERMOCHEMISTRY AT 298.15K
--------------------------

Temperature         ... 298.15 K
Pressure            ... 1.00 atm
Total Mass          ... 179.26 AMU

Throughout the following assumptions are being made:
  (1) The electronic state is orbitally nondegenerate
  (2) There are no thermally accessible electronically excited states
  (3) Hindered rotations indicated by low frequency modes are not
      treated as such but are treated as vibrations and this may
      cause some error
  (4) All equations used are the standard statistical mechanics
      equations for an ideal gas
  (5) All vibrations are strictly harmonic

freq.      59.06  E(vib)   ...       0.51 
freq.      77.96  E(vib)   ...       0.49 
freq.      94.03  E(vib)   ...       0.47 
freq.     104.67  E(vib)   ...       0.46 
freq.     143.18  E(vib)   ...       0.41 
freq.     151.09  E(vib)   ...       0.40 
freq.     166.65  E(vib)   ...       0.39 
freq.     178.60  E(vib)   ...       0.37 
freq.     192.37  E(vib)   ...       0.36 
freq.     250.06  E(vib)   ...       0.31 
freq.     288.76  E(vib)   ...       0.27 
freq.     299.91  E(vib)   ...       0.26 
freq.     353.88  E(vib)   ...       0.22 
freq.     398.74  E(vib)   ...       0.19 
freq.     405.18  E(vib)   ...       0.19 
freq.     428.26  E(vib)   ...       0.18 
freq.     443.47  E(vib)   ...       0.17 
freq.     474.15  E(vib)   ...       0.15 
freq.     519.83  E(vib)   ...       0.13 
freq.     564.50  E(vib)   ...       0.11 
freq.     589.13  E(vib)   ...       0.10 
freq.     625.45  E(vib)   ...       0.09 
freq.     678.56  E(vib)   ...       0.08 
freq.     747.34  E(vib)   ...       0.06 
freq.     784.66  E(vib)   ...       0.05 
freq.     799.06  E(vib)   ...       0.05 
freq.     836.56  E(vib)   ...       0.04 
freq.     865.01  E(vib)   ...       0.04 
freq.     899.57  E(vib)   ...       0.03 
freq.     923.52  E(vib)   ...       0.03 
freq.     934.85  E(vib)   ...       0.03 
freq.     944.59  E(vib)   ...       0.03 
freq.     952.32  E(vib)   ...       0.03 
freq.     957.85  E(vib)   ...       0.03 
freq.     964.28  E(vib)   ...       0.03 
freq.     973.46  E(vib)   ...       0.03 
freq.    1004.36  E(vib)   ...       0.02 
freq.    1039.90  E(vib)   ...       0.02 
freq.    1055.30  E(vib)   ...       0.02 
freq.    1075.62  E(vib)   ...       0.02 
freq.    1110.13  E(vib)   ...       0.02 
freq.    1118.96  E(vib)   ...       0.01 
freq.    1145.92  E(vib)   ...       0.01 
freq.    1182.55  E(vib)   ...       0.01 
freq.    1186.38  E(vib)   ...       0.01 
freq.    1206.16  E(vib)   ...       0.01 
freq.    1215.13  E(vib)   ...       0.01 
freq.    1244.58  E(vib)   ...       0.01 
freq.    1259.33  E(vib)   ...       0.01 
freq.    1272.46  E(vib)   ...       0.01 
freq.    1280.19  E(vib)   ...       0.01 
freq.    1282.63  E(vib)   ...       0.01 
freq.    1329.84  E(vib)   ...       0.01 
freq.    1358.47  E(vib)   ...       0.01 
freq.    1369.76  E(vib)   ...       0.01 
freq.    1407.52  E(vib)   ...       0.00 
freq.    1432.83  E(vib)   ...       0.00 
freq.    1437.70  E(vib)   ...       0.00 
freq.    1473.26  E(vib)   ...       0.00 
freq.    1503.75  E(vib)   ...       0.00 
freq.    1508.16  E(vib)   ...       0.00 
freq.    1511.27  E(vib)   ...       0.00 
freq.    1515.89  E(vib)   ...       0.00 
freq.    1522.52  E(vib)   ...       0.00 
freq.    1531.66  E(vib)   ...       0.00 
freq.    1579.40  E(vib)   ...       0.00 
freq.    1599.87  E(vib)   ...       0.00 
freq.    2799.93  E(vib)   ...       0.00 
freq.    2820.56  E(vib)   ...       0.00 
freq.    2871.73  E(vib)   ...       0.00 
freq.    2878.28  E(vib)   ...       0.00 
freq.    2889.76  E(vib)   ...       0.00 
freq.    2896.51  E(vib)   ...       0.00 
freq.    2912.09  E(vib)   ...       0.00 
freq.    2913.35  E(vib)   ...       0.00 
freq.    2919.79  E(vib)   ...       0.00 
freq.    2930.03  E(vib)   ...       0.00 
freq.    2931.04  E(vib)   ...       0.00 
freq.    2981.06  E(vib)   ...       0.00 
freq.    2987.46  E(vib)   ...       0.00 
freq.    2993.26  E(vib)   ...       0.00 
freq.    3002.59  E(vib)   ...       0.00 
freq.    3019.86  E(vib)   ...       0.00 
freq.    3424.79  E(vib)   ...       0.00 

------------
INNER ENERGY
------------

The inner energy is: U= E(el) + E(ZPE) + E(vib) + E(rot) + E(trans)
    E(el)   - is the total energy from the electronic structure calculation
              = E(kin-el) + E(nuc-el) + E(el-el) + E(nuc-nuc)
    E(ZPE)  - the the zero temperature vibrational energy from the frequency calculation
    E(vib)  - the the finite temperature correction to E(ZPE) due to population
              of excited vibrational states
    E(rot)  - is the rotational thermal energy
    E(trans)- is the translational thermal energy

Summary of contributions to the inner energy U:
Electronic energy                ...    -39.19301608 Eh
Zero point energy                ...      0.25060778 Eh     157.26 kcal/mol
Thermal vibrational correction   ...      0.01124480 Eh       7.06 kcal/mol
Thermal rotational correction    ...      0.00141627 Eh       0.89 kcal/mol
Thermal translational correction ...      0.00141627 Eh       0.89 kcal/mol
-----------------------------------------------------------------------
Total thermal energy                    -38.92833097 Eh


Summary of corrections to the electronic energy:
(perhaps to be used in another calculation)
Total thermal correction                  0.01407734 Eh       8.83 kcal/mol
Non-thermal (ZPE) correction              0.25060778 Eh     157.26 kcal/mol
-----------------------------------------------------------------------
Total correction                          0.26468512 Eh     166.09 kcal/mol


--------
ENTHALPY
--------

The enthalpy is H = U + kB*T
                kB is Boltzmann's constant
Total free energy                 ...    -38.92833097 Eh 
Thermal Enthalpy correction       ...      0.00094421 Eh       0.59 kcal/mol
-----------------------------------------------------------------------
Total Enthalpy                    ...    -38.92738676 Eh


Note: Only C1 symmetry has been detected, increase convergence thresholds 
      if your molecule has a higher symmetry. Symmetry factor of 1.0 is   
      used for the rotational entropy correction. 
 

Note: Rotational entropy computed according to Herzberg 
Infrared and Raman Spectra, Chapter V,1, Van Nostrand Reinhold, 1945 
Point Group:  C1, Symmetry Number:   1  
Rotational constants in cm-1:     0.051746     0.009441     0.008481 

Vibrational entropy computed according to the QRRHO of S. Grimme
Chem.Eur.J. 2012 18 9955


-------
ENTROPY
-------

The entropy contributions are T*S = T*(S(el)+S(vib)+S(rot)+S(trans))
     S(el)   - electronic entropy
     S(vib)  - vibrational entropy
     S(rot)  - rotational entropy
     S(trans)- translational entropy
The entropies will be listed as mutliplied by the temperature to get
units of energy

Electronic entropy                ...      0.00000000 Eh      0.00 kcal/mol
Vibrational entropy               ...      0.01944401 Eh     12.20 kcal/mol
Rotational entropy                ...      0.01536190 Eh      9.64 kcal/mol
Translational entropy             ...      0.01969790 Eh     12.36 kcal/mol
-----------------------------------------------------------------------
Final entropy term                ...      0.05450380 Eh     34.20 kcal/mol

In case the symmetry of your molecule has not been determined correctly
or in case you have a reason to use a different symmetry number we print 
out the resulting rotational entropy values for sn=1,12 :
 --------------------------------------------------------
|  sn= 1 | S(rot)=       0.01536190 Eh      9.64 kcal/mol|
|  sn= 2 | S(rot)=       0.01470744 Eh      9.23 kcal/mol|
|  sn= 3 | S(rot)=       0.01432461 Eh      8.99 kcal/mol|
|  sn= 4 | S(rot)=       0.01405298 Eh      8.82 kcal/mol|
|  sn= 5 | S(rot)=       0.01384230 Eh      8.69 kcal/mol|
|  sn= 6 | S(rot)=       0.01367015 Eh      8.58 kcal/mol|
|  sn= 7 | S(rot)=       0.01352461 Eh      8.49 kcal/mol|
|  sn= 8 | S(rot)=       0.01339853 Eh      8.41 kcal/mol|
|  sn= 9 | S(rot)=       0.01328732 Eh      8.34 kcal/mol|
|  sn=10 | S(rot)=       0.01318784 Eh      8.28 kcal/mol|
|  sn=11 | S(rot)=       0.01309785 Eh      8.22 kcal/mol|
|  sn=12 | S(rot)=       0.01301570 Eh      8.17 kcal/mol|
 --------------------------------------------------------


-------------------
GIBBS FREE ENERGY
-------------------

The Gibbs free energy is G = H - T*S

Total enthalpy                    ...    -38.92738676 Eh 
Total entropy correction          ...     -0.05450380 Eh    -34.20 kcal/mol
-----------------------------------------------------------------------
Final Gibbs free energy         ...    -38.98189056 Eh

For completeness - the Gibbs free energy minus the electronic energy
G-E(el)                           ...      0.21112553 Eh    132.48 kcal/mol


Total Time for Numerical Frequencies  :        78.144 sec
Time for Reference State(s)           :         0.106 sec
Time for Displacements                :        72.680 sec

Timings for individual modules:

Sum of individual times         ...        0.274 sec (=   0.005 min)
XTB module                      ...        0.274 sec (=   0.005 min) 100.0 %
                             ****ORCA TERMINATED NORMALLY****
TOTAL RUN TIME: 0 days 0 hours 1 minutes 19 seconds 217 msec
(SLURM) EXECUTION TIME: 79.239703097 seconds.
