
                                 *****************
                                 * O   R   C   A *
                                 *****************

           --- An Ab Initio, DFT and Semiempirical electronic structure package ---

                  #######################################################
                  #                        -***-                        #
                  #          Department of theory and spectroscopy      #
                  #               Directorship: Frank Neese             #
                  #        Max Planck Institute fuer Kohlenforschung    #
                  #                Kaiser Wilhelm Platz 1               #
                  #                 D-45470 Muelheim/Ruhr               #
                  #                      Germany                        #
                  #                                                     #
                  #                  All rights reserved                #
                  #                        -***-                        #
                  #######################################################


                         Program Version 4.2.1 -  RELEASE  -


 With contributions from (in alphabetic order):
   Daniel Aravena         : Magnetic Suceptibility
   Michael Atanasov       : Ab Initio Ligand Field Theory (pilot matlab implementation)
   Alexander A. Auer      : GIAO ZORA, VPT2
   Ute Becker             : Parallelization
   Giovanni Bistoni       : ED, misc. LED, open-shell LED, HFLD
   Martin Brehm           : Molecular dynamics
   Dmytro Bykov           : SCF Hessian
   Vijay G. Chilkuri      : MRCI spin determinant printing, contributions to CSF-ICE
   Dipayan Datta          : RHF DLPNO-CCSD density
   Achintya Kumar Dutta   : EOM-CC, STEOM-CC
   Dmitry Ganyushin       : Spin-Orbit,Spin-Spin,Magnetic field MRCI
   Miquel Garcia          : C-PCM Hessian, Gaussian charge scheme
   Yang Guo               : DLPNO-NEVPT2, CIM, IAO-localization
   Andreas Hansen         : Spin unrestricted coupled pair/coupled cluster methods
   Benjamin Helmich-Paris : CASSCF linear response (MC-RPA)
   Lee Huntington         : MR-EOM, pCC
   Robert Izsak           : Overlap fitted RIJCOSX, COSX-SCS-MP3, EOM
   Christian Kollmar      : KDIIS, OOCD, Brueckner-CCSD(T), CCSD density
   Simone Kossmann        : Meta GGA functionals, TD-DFT gradient, OOMP2, MP2 Hessian
   Martin Krupicka        : AUTO-CI
   Lucas Lang             : DCDCAS
   Dagmar Lenk            : GEPOL surface, SMD
   Dimitrios Liakos       : Extrapolation schemes; Compound Job, initial MDCI parallelization
   Dimitrios Manganas     : Further ROCIS development; embedding schemes
   Dimitrios Pantazis     : SARC Basis sets
   Taras Petrenko         : DFT Hessian,TD-DFT gradient, ASA, ECA, R-Raman, ABS, FL, XAS/XES, NRVS
   Peter Pinski           : DLPNO-MP2, DLPNO-MP2 Gradient
   Christoph Reimann      : Effective Core Potentials
   Marius Retegan         : Local ZFS, SOC
   Christoph Riplinger    : Optimizer, TS searches, QM/MM, DLPNO-CCSD(T), (RO)-DLPNO pert. Triples
   Tobias Risthaus        : Range-separated hybrids, TD-DFT gradient, RPA, STAB
   Michael Roemelt        : Original ROCIS implementation
   Masaaki Saitow         : Open-shell DLPNO-CCSD energy and density
   Barbara Sandhoefer     : DKH picture change effects
   Avijit Sen             : IP-ROCIS
   Kantharuban Sivalingam : CASSCF convergence, NEVPT2, FIC-MRCI
   Bernardo de Souza      : ESD, SOC TD-DFT
   Georgi Stoychev        : AutoAux, RI-MP2 NMR
   Willem Van den Heuvel  : Paramagnetic NMR
   Boris Wezisla          : Elementary symmetry handling
   Frank Wennmohs         : Technical directorship


 We gratefully acknowledge several colleagues who have allowed us to
 interface, adapt or use parts of their codes:
   Stefan Grimme, W. Hujo, H. Kruse,             : VdW corrections, initial TS optimization,
                  C. Bannwarth                     DFT functionals, gCP, sTDA/sTD-DF
   Ed Valeev, F. Pavosevic, A. Kumar             : LibInt (2-el integral package), F12 methods
   Garnet Chan, S. Sharma, J. Yang, R. Olivares  : DMRG
   Ulf Ekstrom                                   : XCFun DFT Library
   Mihaly Kallay                                 : mrcc  (arbitrary order and MRCC methods)
   Andreas Klamt, Michael Diedenhofen            : otool_cosmo (COSMO solvation model)
   Jiri Pittner, Ondrej Demel                    : Mk-CCSD
   Frank Weinhold                                : gennbo (NPA and NBO analysis)
   Christopher J. Cramer and Donald G. Truhlar   : smd solvation model
   Lars Goerigk                                  : TD-DFT with DH, B97 family of functionals
   V. Asgeirsson, H. Jonsson                     : NEB implementation
   FAccTs GmbH                                   : IRC, NEB, NEB-TS, Multilevel, MM, QM/MM, CI optimization
   S Lehtola, MJT Oliveira, MAL Marques          : LibXC Library


 Your calculation uses the libint2 library for the computation of 2-el integrals
 For citations please refer to: http://libint.valeyev.net

 Your ORCA version has been built with support for libXC version: 4.2.3
 For citations please refer to: https://tddft.org/programs/libxc/

 This ORCA versions uses:
   CBLAS   interface :  Fast vector & matrix operations
   LAPACKE interface :  Fast linear algebra routines
   SCALAPACK package :  Parallel linear algebra routines




***************************************
The coordinates will be read from file: init.xyz
***************************************


Your calculation utilizes the atom-pairwise dispersion correction
based on tight binding partial charges (D4)
Cite in your paper:
E.Caldeweyher, C.Bannwarth, S.Grimme, J.Chem.Phys., (2017), 147, 034112.
E.Caldeweyher, S.Ehlert, A.Hansen, H.Neugebauer, S.Grimme, J.Chem.Phys., (2018), in progress.
   

----- Orbital basis set information -----
Your calculation utilizes the basis: def2-TZVP
   F. Weigend and R. Ahlrichs, Phys. Chem. Chem. Phys. 7, 3297 (2005).

----- AuxJ basis set information -----
Your calculation utilizes the auxiliary basis: def2/J
   F. Weigend, Phys. Chem. Chem. Phys. 8, 1057 (2006).

================================================================================
                                        WARNINGS
                       Please study these warnings very carefully!
================================================================================


INFO   : the flag for use of LIBINT has been found!

================================================================================
                                       INPUT FILE
================================================================================
NAME = helium.inp
|  1> ! BLYP D4 def2-TZVP RI def2/J TightSCF Grid4 FinalGrid5 PrintBasis PrintMOs
|  2> %maxcore 1150
|  3> 
|  4> * xyzfile 0 1 init.xyz
|  5> 
|  6>                          ****END OF INPUT****
================================================================================

                       ****************************
                       * Single Point Calculation *
                       ****************************

---------------------------------
CARTESIAN COORDINATES (ANGSTROEM)
---------------------------------
  He     0.000000    0.000000    0.000000

----------------------------
CARTESIAN COORDINATES (A.U.)
----------------------------
  NO LB      ZA    FRAG     MASS         X           Y           Z
   0 He    2.0000    0     4.003    0.000000    0.000000    0.000000

--------------------------------
INTERNAL COORDINATES (ANGSTROEM)
--------------------------------
 He     0   0   0     0.000000000000     0.00000000     0.00000000

---------------------------
INTERNAL COORDINATES (A.U.)
---------------------------
 He     0   0   0     0.000000000000     0.00000000     0.00000000

---------------------
BASIS SET INFORMATION
---------------------
There are 1 groups of distinct atoms

 Group   1 Type He  : 5s1p contracted to 3s1p pattern {311/1}

Atom   0He   basis set group =>   1

-------------------------
BASIS SET IN INPUT FORMAT
-------------------------

 # Basis set for element : He
 NewGTO He
 S 3 
   1      98.0783216160      0.0287621048
   2      14.7644042470      0.2081131919
   3       3.3185831473      0.8375725884
 S 1 
   1       0.8741386955      1.0000000000
 S 1 
   1       0.2445989721      1.0000000000
 P 1 
   1       1.0000000000      1.0000000000
  end;

---------------------------------
AUXILIARY/J BASIS SET INFORMATION
---------------------------------
There are 1 groups of distinct atoms

 Group   1 Type He  : 5s2p1d contracted to 3s1p1d pattern {311/2/1}

Atom   0He   basis set group =>   1

-------------------------------------
AUXILIARY/J BASIS SET IN INPUT FORMAT
-------------------------------------

 # Auxiliary/J basis set for element : He
 NewAuxJGTO He
 S 3 
   1      50.6720580000      0.1092841454
   2      12.6182260000      0.3530449306
   3       3.8995171000      0.6364660334
 S 1 
   1       1.4088465000      1.0000000000
 S 1 
   1       0.5393970000      1.0000000000
 P 2 
   1       4.0000000000      0.5638958155
   2       1.0000000000      0.5638958155
 D 1 
   1       4.0000000000      1.0000000000
  end;

------------------------------------------------------------------------------
                           ORCA GTO INTEGRAL CALCULATION
                           -- RI-GTO INTEGRALS CHOSEN --
------------------------------------------------------------------------------

                         BASIS SET STATISTICS AND STARTUP INFO

Gaussian basis set:
 # of primitive gaussian shells          ...    6
 # of primitive gaussian functions       ...    8
 # of contracted shells                  ...    4
 # of contracted basis functions         ...    6
 Highest angular momentum                ...    1
 Maximum contraction depth               ...    3
Auxiliary gaussian basis set:
 # of primitive gaussian shells          ...    8
 # of primitive gaussian functions       ...   16
 # of contracted shells                  ...    5
 # of contracted aux-basis functions     ...   11
 Highest angular momentum                ...    2
 Maximum contraction depth               ...    3
Ratio of auxiliary to basis functions    ...  1.83
Integral package used                  ... LIBINT
 One Electron integrals                  ... done
 Ordering auxiliary basis shells         ... done
 Integral threshhold             Thresh  ...  2.500e-11
 Primitive cut-off               TCut    ...  2.500e-12
 Pre-screening matrix                    ... done
 Shell pair data                         ... 
 Ordering of the shell pairs             ... done (   0.000 sec) 10 of 10 pairs
 Determination of significant pairs      ... done (   0.000 sec)
 Creation of shell pair data             ... done (   0.000 sec)
 Storage of shell pair data              ... done (   0.000 sec)
 Shell pair data done in (   0.000 sec)
 Computing two index integrals           ... done
 Cholesky decomposition of the V-matrix  ... done


Timings:
 Total evaluation time                   ...   0.113 sec (  0.002 min)
 One electron matrix time                ...   0.012 sec (  0.000 min) = 10.9%
 Schwartz matrix evaluation time         ...   0.087 sec (  0.001 min) = 76.3%
 Two index repulsion integral time       ...   0.000 sec (  0.000 min) =  0.1%
 Cholesky decomposition of V             ...   0.003 sec (  0.000 min) =  2.4%
 Three index repulsion integral time     ...   0.000 sec (  0.000 min) =  0.0%

-------------------------------------------------------------------------------
                                 ORCA SCF
-------------------------------------------------------------------------------

------------
SCF SETTINGS
------------
Hamiltonian:
 Density Functional     Method          .... DFT(GTOs)
 Exchange Functional    Exchange        .... B88
   X-Alpha parameter    XAlpha          ....  0.666667
   Becke's b parameter  XBeta           ....  0.004200
 Correlation Functional Correlation     .... LYP
 Gradients option       PostSCFGGA      .... off
   Density functional embedding theory  .... OFF
   NL short-range parameter             ....  4.000000
 RI-approximation to the Coulomb term is turned on
   Number of auxiliary basis functions  .... 11


General Settings:
 Integral files         IntName         .... helium
 Hartree-Fock type      HFTyp           .... RHF
 Total Charge           Charge          ....    0
 Multiplicity           Mult            ....    1
 Number of Electrons    NEL             ....    2
 Basis Dimension        Dim             ....    6
 Nuclear Repulsion      ENuc            ....      0.0000000000 Eh

Convergence Acceleration:
 DIIS                   CNVDIIS         .... on
   Start iteration      DIISMaxIt       ....    12
   Startup error        DIISStart       ....  0.200000
   # of expansion vecs  DIISMaxEq       ....     5
   Bias factor          DIISBfac        ....   1.050
   Max. coefficient     DIISMaxC        ....  10.000
 Newton-Raphson         CNVNR           .... off
 SOSCF                  CNVSOSCF        .... on
   Start iteration      SOSCFMaxIt      ....   150
   Startup grad/error   SOSCFStart      ....  0.003300
 Level Shifting         CNVShift        .... on
   Level shift para.    LevelShift      ....    0.2500
   Turn off err/grad.   ShiftErr        ....    0.0010
 Zerner damping         CNVZerner       .... off
 Static damping         CNVDamp         .... on
   Fraction old density DampFac         ....    0.7000
   Max. Damping (<1)    DampMax         ....    0.9800
   Min. Damping (>=0)   DampMin         ....    0.0000
   Turn off err/grad.   DampErr         ....    0.1000
 Fernandez-Rico         CNVRico         .... off

SCF Procedure:
 Maximum # iterations   MaxIter         ....   125
 SCF integral mode      SCFMode         .... Direct
   Integral package                     .... LIBINT
 Reset frequency        DirectResetFreq ....    20
 Integral Threshold     Thresh          ....  2.500e-11 Eh
 Primitive CutOff       TCut            ....  2.500e-12 Eh

Convergence Tolerance:
 Convergence Check Mode ConvCheckMode   .... Total+1el-Energy
 Convergence forced     ConvForced      .... 0
 Energy Change          TolE            ....  1.000e-08 Eh
 1-El. energy change                    ....  1.000e-05 Eh
 Orbital Gradient       TolG            ....  1.000e-05
 Orbital Rotation angle TolX            ....  1.000e-05
 DIIS Error             TolErr          ....  5.000e-07


Diagonalization of the overlap matrix:
Smallest eigenvalue                        ... 1.357e-01
Time for diagonalization                   ...    0.010 sec
Threshold for overlap eigenvalues          ... 1.000e-08
Number of eigenvalues below threshold      ... 0
Time for construction of square roots      ...    0.001 sec
Total time needed                          ...    0.011 sec

-------------------
DFT GRID GENERATION
-------------------

General Integration Accuracy     IntAcc      ...  4.670
Radial Grid Type                 RadialGrid  ... Gauss-Chebyshev
Angular Grid (max. acc.)         AngularGrid ... Lebedev-302
Angular grid pruning method      GridPruning ... 3 (G Style)
Weight generation scheme         WeightScheme... Becke
Basis function cutoff            BFCut       ...    1.0000e-11
Integration weight cutoff        WCut        ...    1.0000e-14
Grids for H and He will be reduced by one unit

# of grid points (after initial pruning)     ...   3562 (   0.0 sec)
# of grid points (after weights+screening)   ...   3562 (   0.0 sec)
Grid point division into batches done        ...    0.0 sec
Reduced shell lists constructed in    0.0 sec

Total number of grid points                  ...     3562
Total number of batches                      ...       56
Average number of points per batch           ...       63
Average number of grid points per atom       ...     3562
Average number of shells per batch           ...     3.44 (85.96%)
Average number of basis functions per batch  ...     5.16 (85.96%)
Average number of large shells per batch     ...     3.28 (95.41%)
Average number of large basis fcns per batch ...     4.89 (94.90%)
Maximum spatial batch extension              ...  17.36, 17.36, 17.36 au
Average spatial batch extension              ...   4.81,  4.85,  4.90 au

Time for grid setup =    0.017 sec

------------------------------
INITIAL GUESS: MODEL POTENTIAL
------------------------------
Loading Hartree-Fock densities                     ... done
Calculating cut-offs                               ... done
Setting up the integral package                    ... done
Initializing the effective Hamiltonian             ... done
Starting the Coulomb interaction                   ... done (   0.0 sec)
Reading the grid                                   ... done
Mapping shells                                     ... done
Starting the XC term evaluation                    ... done (   0.0 sec)
  promolecular density results
     # of electrons  =      1.999920376
     EX              =     -1.025629342
     EC              =     -0.043716559
     EX+EC           =     -1.069345900
Transforming the Hamiltonian                       ... done (   0.0 sec)
Diagonalizing the Hamiltonian                      ... done (   0.0 sec)
Back transforming the eigenvectors                 ... done (   0.0 sec)
Now organizing SCF variables                       ... done
                      ------------------
                      INITIAL GUESS DONE (   0.1 sec)
                      ------------------
--------------
SCF ITERATIONS
--------------
ITER       Energy         Delta-E        Max-DP      RMS-DP      [F,P]     Damp
               ***  Starting incremental Fock matrix formation  ***
                      *** Initiating the SOSCF procedure ***
                      *** Re-Reading the Fockian *** 
                      *** Removing any level shift *** 
ITER      Energy       Delta-E        Grad      Rot      Max-DP    RMS-DP
  0     -2.90460130  -2.9046012994  0.002491  0.002491  0.003717  0.000755
               *** Restarting incremental Fock matrix formation ***
  1     -2.90460941  -0.0000081156  0.000659  0.000402  0.000823  0.000166
  2     -2.90460972  -0.0000003070  0.000220  0.000130  0.000284  0.000058
                  ***Gradient check signals convergence***
              ***Rediagonalizing the Fockian in SOSCF/NRSCF***

               *****************************************************
               *                     SUCCESS                       *
               *           SCF CONVERGED AFTER   3 CYCLES          *
               *****************************************************

Setting up the final grid:

General Integration Accuracy     IntAcc      ...  5.010
Radial Grid Type                 RadialGrid  ... Gauss-Chebyshev
Angular Grid (max. acc.)         AngularGrid ... Lebedev-434
Angular grid pruning method      GridPruning ... 3 (G Style)
Weight generation scheme         WeightScheme... Becke
Basis function cutoff            BFCut       ...    1.0000e-11
Integration weight cutoff        WCut        ...    1.0000e-14
Grids for H and He will be reduced by one unit

# of grid points (after initial pruning)     ...   6764 (   0.0 sec)
# of grid points (after weights+screening)   ...   6764 (   0.0 sec)
Grid point division into batches done        ...    0.0 sec
Reduced shell lists constructed in    0.1 sec

Total number of grid points                  ...     6764
Total number of batches                      ...      106
Average number of points per batch           ...       63
Average number of grid points per atom       ...     6764
Average number of shells per batch           ...     3.23 (80.84%)
Average number of basis functions per batch  ...     4.88 (81.31%)
Average number of large shells per batch     ...     3.17 (97.98%)
Average number of large basis fcns per batch ...     4.81 (98.66%)
Maximum spatial batch extension              ...  21.92, 16.88, 15.22 au
Average spatial batch extension              ...   4.02,  3.90,  3.72 au

Final grid set up in    0.1 sec
Final integration                            ... done (   0.0 sec)
Change in XC energy                          ...    -0.000000099
Integrated number of electrons               ...     2.000000001
Previous integrated no of electrons          ...     2.000000015

----------------
TOTAL SCF ENERGY
----------------

Total Energy       :           -2.90460989 Eh             -79.03845 eV

Components:
Nuclear Repulsion  :            0.00000000 Eh               0.00000 eV
Electronic Energy  :           -2.90460989 Eh             -79.03845 eV
One Electron Energy:           -3.87725371 Eh            -105.50544 eV
Two Electron Energy:            0.97264382 Eh              26.46698 eV

Virial components:
Potential Energy   :           -5.78433728 Eh            -157.39982 eV
Kinetic Energy     :            2.87972740 Eh              78.36137 eV
Virial Ratio       :            2.00864057


DFT components:
N(Alpha)           :        1.000000000601 electrons
N(Beta)            :        1.000000000601 electrons
N(Total)           :        2.000000001202 electrons
E(X)               :       -1.021355546805 Eh       
E(C)               :       -0.043770940085 Eh       
E(XC)              :       -1.065126486890 Eh       
DFET-embed. en.    :        0.000000000000 Eh       

---------------
SCF CONVERGENCE
---------------

  Last Energy change         ...   -6.4588e-08  Tolerance :   1.0000e-08
  Last MAX-Density change    ...    1.0126e-06  Tolerance :   1.0000e-07
  Last RMS-Density change    ...    2.0826e-07  Tolerance :   5.0000e-09
  Last Orbital Gradient      ...    1.0574e-06  Tolerance :   1.0000e-05
  Last Orbital Rotation      ...    2.1968e-07  Tolerance :   1.0000e-05

             **** THE GBW FILE WAS UPDATED (helium.gbw) ****
             **** DENSITY FILE WAS UPDATED (helium.scfp) ****
             **** ENERGY FILE WAS UPDATED (helium.en.tmp) ****
             **** THE GBW FILE WAS UPDATED (helium.gbw) ****
             **** DENSITY FILE WAS UPDATED (helium.scfp) ****
----------------
ORBITAL ENERGIES
----------------

  NO   OCC          E(Eh)            E(eV) 
   0   2.0000      -0.579869       -15.7790 
   1   0.0000       0.599073        16.3016 
   2   0.0000       1.624659        44.2092 
   3   0.0000       1.624659        44.2092 
   4   0.0000       1.624659        44.2092 
   5   0.0000       5.605620       152.5367 
------------------
MOLECULAR ORBITALS
------------------
                      0         1         2         3         4         5   
                  -0.57987   0.59907   1.62466   1.62466   1.62466   5.60562
                   2.00000   0.00000   0.00000   0.00000   0.00000   0.00000
                  --------  --------  --------  --------  --------  --------
  0He  1s         0.275144  0.174172 -0.000000  0.000000 -0.000000 -1.437873
  0He  2s         0.457624  1.120565 -0.000000  0.000000 -0.000000  1.729357
  0He  3s         0.421309 -1.406745  0.000000 -0.000000  0.000000 -0.724943
  0He  1pz       -0.000000  0.000000 -0.083603  0.812199  0.577359 -0.000000
  0He  1px       -0.000000  0.000000 -0.661462 -0.478568  0.577443 -0.000000
  0He  1py       -0.000000  0.000000  0.745304 -0.333625  0.577249 -0.000000



                    ********************************
                    * MULLIKEN POPULATION ANALYSIS *
                    ********************************

-----------------------
MULLIKEN ATOMIC CHARGES
-----------------------
   0 He:    0.000000
Sum of atomic charges:    0.0000000

--------------------------------
MULLIKEN REDUCED ORBITAL CHARGES
--------------------------------
  0 Hes       :     2.000000  s :     2.000000
      pz      :     0.000000  p :     0.000000
      px      :     0.000000
      py      :     0.000000


                     *******************************
                     * LOEWDIN POPULATION ANALYSIS *
                     *******************************

----------------------
LOEWDIN ATOMIC CHARGES
----------------------
   0 He:    0.000000

-------------------------------
LOEWDIN REDUCED ORBITAL CHARGES
-------------------------------
  0 Hes       :     2.000000  s :     2.000000
      pz      :     0.000000  p :     0.000000
      px      :     0.000000
      py      :     0.000000


                      *****************************
                      * MAYER POPULATION ANALYSIS *
                      *****************************

  NA   - Mulliken gross atomic population
  ZA   - Total nuclear charge
  QA   - Mulliken gross atomic charge
  VA   - Mayer's total valence
  BVA  - Mayer's bonded valence
  FA   - Mayer's free valence

  ATOM       NA         ZA         QA         VA         BVA        FA
  0 He     2.0000     2.0000     0.0000     0.0000     0.0000     0.0000

  Mayer bond orders larger than 0.100000


--------------------------
ATOM BASIS FOR ELEMENT He
--------------------------
 NewGTO He
 S 5
    1         98.078321616000         0.007913727397
    2         14.764404247000         0.057261145561
    3          3.318583147300         0.230453271388
    4          0.874138695500         0.457624344015
    5          0.244598972100         0.421309302333
 S 5
    1         98.078321616000         0.005009554813
    2         14.764404247000         0.036247501713
    3          3.318583147300         0.145881736515
    4          0.874138695500         1.120564848597
    5          0.244598972100        -1.406744581139
 S 5
    1         98.078321616000         0.041356265974
    2         14.764404247000         0.299240427051
    3          3.318583147300         1.204323362198
    4          0.874138695500        -1.729357066663
    5          0.244598972100         0.724943112136
 P 1
    1          1.000000000000         1.000000000000
 end
  // -----------------------------------------------
  // The basis set
  // -----------------------------------------------
  BAS[ATNO] = new BFNGauss[NSH];
  // Basis function   1 L = s
  InitBFNGauss(BAS[ATNO][  0]);
  BAS[ATNO][  0].l  = 0;
  BAS[ATNO][  0].ng = 5;
  BAS[ATNO][  0].a[  0] =        98.078321616000;     BAS[ATNO][  0].d[  0] =         0.007913727397;
  BAS[ATNO][  0].a[  1] =        14.764404247000;     BAS[ATNO][  0].d[  1] =         0.057261145561;
  BAS[ATNO][  0].a[  2] =         3.318583147300;     BAS[ATNO][  0].d[  2] =         0.230453271388;
  BAS[ATNO][  0].a[  3] =         0.874138695500;     BAS[ATNO][  0].d[  3] =         0.457624344015;
  BAS[ATNO][  0].a[  4] =         0.244598972100;     BAS[ATNO][  0].d[  4] =         0.421309302333;

  // Basis function   2 L = s
  InitBFNGauss(BAS[ATNO][  1]);
  BAS[ATNO][  1].l  = 0;
  BAS[ATNO][  1].ng = 5;
  BAS[ATNO][  1].a[  0] =        98.078321616000;     BAS[ATNO][  1].d[  0] =        -0.005009554813;
  BAS[ATNO][  1].a[  1] =        14.764404247000;     BAS[ATNO][  1].d[  1] =        -0.036247501713;
  BAS[ATNO][  1].a[  2] =         3.318583147300;     BAS[ATNO][  1].d[  2] =        -0.145881736515;
  BAS[ATNO][  1].a[  3] =         0.874138695500;     BAS[ATNO][  1].d[  3] =        -1.120564848597;
  BAS[ATNO][  1].a[  4] =         0.244598972100;     BAS[ATNO][  1].d[  4] =         1.406744581139;

  // Basis function   3 L = s
  InitBFNGauss(BAS[ATNO][  2]);
  BAS[ATNO][  2].l  = 0;
  BAS[ATNO][  2].ng = 5;
  BAS[ATNO][  2].a[  0] =        98.078321616000;     BAS[ATNO][  2].d[  0] =        -0.041356265974;
  BAS[ATNO][  2].a[  1] =        14.764404247000;     BAS[ATNO][  2].d[  1] =        -0.299240427051;
  BAS[ATNO][  2].a[  2] =         3.318583147300;     BAS[ATNO][  2].d[  2] =        -1.204323362198;
  BAS[ATNO][  2].a[  3] =         0.874138695500;     BAS[ATNO][  2].d[  3] =         1.729357066663;
  BAS[ATNO][  2].a[  4] =         0.244598972100;     BAS[ATNO][  2].d[  4] =        -0.724943112136;

  // Basis function   4 L = p
  InitBFNGauss(BAS[ATNO][  3]);
  BAS[ATNO][  3].l  = 1;
  BAS[ATNO][  3].ng = 1;
  BAS[ATNO][  3].a[  0] =         1.000000000000;     BAS[ATNO][  3].d[  0] =         1.000000000000;

-------
TIMINGS
-------

Total SCF time: 0 days 0 hours 0 min 0 sec 

Total time                  ....       0.557 sec
Sum of individual times     ....       0.471 sec  ( 84.5%)

Fock matrix formation       ....       0.313 sec  ( 56.1%)
  Split-RI-J                ....       0.279 sec  ( 89.1% of F)
  XC integration            ....       0.031 sec  ( 10.0% of F)
    Basis function eval.    ....       0.006 sec  ( 18.5% of XC)
    Density eval.           ....       0.008 sec  ( 26.4% of XC)
    XC-Functional eval.     ....       0.012 sec  ( 37.0% of XC)
    XC-Potential eval.      ....       0.002 sec  (  5.1% of XC)
Diagonalization             ....       0.000 sec  (  0.0%)
Density matrix formation    ....       0.000 sec  (  0.0%)
Population analysis         ....       0.002 sec  (  0.4%)
Initial guess               ....       0.085 sec  ( 15.3%)
Orbital Transformation      ....       0.000 sec  (  0.0%)
Orbital Orthonormalization  ....       0.000 sec  (  0.0%)
DIIS solution               ....       0.000 sec  (  0.0%)
SOSCF solution              ....       0.001 sec  (  0.2%)
Grid generation             ....       0.070 sec  ( 12.5%)


-------------------------------------------------------------------------------
                          DFT DISPERSION CORRECTION                            
                                                                               
                                 DFTD4 V2.0                                    
-------------------------------------------------------------------------------
The BLYP functional is recognized
Active option DFTDOPT                   ...         5   

-------------------------   ----------------
Dispersion correction            0.000000000
-------------------------   ----------------


-------------------------   --------------------
FINAL SINGLE POINT ENERGY        -2.904609885571
-------------------------   --------------------


                            ***************************************
                            *     ORCA property calculations      *
                            ***************************************

                                    ---------------------
                                    Active property flags
                                    ---------------------
   (+) Dipole Moment


------------------------------------------------------------------------------
                       ORCA ELECTRIC PROPERTIES CALCULATION
------------------------------------------------------------------------------

Dipole Moment Calculation                       ... on
Quadrupole Moment Calculation                   ... off
Polarizability Calculation                      ... off
GBWName                                         ... helium.gbw
Electron density file                           ... helium.scfp
The origin for moment calculation is the CENTER OF MASS  = ( 0.000000,  0.000000  0.000000)

-------------
DIPOLE MOMENT
-------------
                                X             Y             Z
Electronic contribution:      0.00000       0.00000       0.00000
Nuclear contribution   :      0.00000       0.00000       0.00000
                        -----------------------------------------
Total Dipole Moment    :      0.00000       0.00000       0.00000
                        -----------------------------------------
Magnitude (a.u.)       :      0.00000
Magnitude (Debye)      :      0.00000



--------------------
Rotational spectrum 
--------------------
 
Rotational constants in cm-1:     0.000000     0.000000     0.000000 
Rotational constants in MHz :     0.000000     0.000000     0.000000 

 Dipole components along the rotational axes: 
x,y,z [a.u.] :     0.000000     0.000000     0.000000 
x,y,z [Debye]:     0.000000     0.000000     0.000000 

 

Timings for individual modules:

Sum of individual times         ...        0.773 sec (=   0.013 min)
GTO integral calculation        ...        0.170 sec (=   0.003 min)  22.0 %
SCF iterations                  ...        0.603 sec (=   0.010 min)  78.0 %
                             ****ORCA TERMINATED NORMALLY****
TOTAL RUN TIME: 0 days 0 hours 0 minutes 1 seconds 6 msec
