(SLURM) JOB ID:         343

                                 *****************
                                 * O   R   C   A *
                                 *****************

           --- An Ab Initio, DFT and Semiempirical electronic structure package ---

                  #######################################################
                  #                        -***-                        #
                  #          Department of theory and spectroscopy      #
                  #               Directorship: Frank Neese             #
                  #        Max Planck Institute fuer Kohlenforschung    #
                  #                Kaiser Wilhelm Platz 1               #
                  #                 D-45470 Muelheim/Ruhr               #
                  #                      Germany                        #
                  #                                                     #
                  #                  All rights reserved                #
                  #                        -***-                        #
                  #######################################################


                         Program Version 4.2.1 -  RELEASE  -


 With contributions from (in alphabetic order):
   Daniel Aravena         : Magnetic Suceptibility
   Michael Atanasov       : Ab Initio Ligand Field Theory (pilot matlab implementation)
   Alexander A. Auer      : GIAO ZORA, VPT2
   Ute Becker             : Parallelization
   Giovanni Bistoni       : ED, misc. LED, open-shell LED, HFLD
   Martin Brehm           : Molecular dynamics
   Dmytro Bykov           : SCF Hessian
   Vijay G. Chilkuri      : MRCI spin determinant printing, contributions to CSF-ICE
   Dipayan Datta          : RHF DLPNO-CCSD density
   Achintya Kumar Dutta   : EOM-CC, STEOM-CC
   Dmitry Ganyushin       : Spin-Orbit,Spin-Spin,Magnetic field MRCI
   Miquel Garcia          : C-PCM Hessian, Gaussian charge scheme
   Yang Guo               : DLPNO-NEVPT2, CIM, IAO-localization
   Andreas Hansen         : Spin unrestricted coupled pair/coupled cluster methods
   Benjamin Helmich-Paris : CASSCF linear response (MC-RPA)
   Lee Huntington         : MR-EOM, pCC
   Robert Izsak           : Overlap fitted RIJCOSX, COSX-SCS-MP3, EOM
   Christian Kollmar      : KDIIS, OOCD, Brueckner-CCSD(T), CCSD density
   Simone Kossmann        : Meta GGA functionals, TD-DFT gradient, OOMP2, MP2 Hessian
   Martin Krupicka        : AUTO-CI
   Lucas Lang             : DCDCAS
   Dagmar Lenk            : GEPOL surface, SMD
   Dimitrios Liakos       : Extrapolation schemes; Compound Job, initial MDCI parallelization
   Dimitrios Manganas     : Further ROCIS development; embedding schemes
   Dimitrios Pantazis     : SARC Basis sets
   Taras Petrenko         : DFT Hessian,TD-DFT gradient, ASA, ECA, R-Raman, ABS, FL, XAS/XES, NRVS
   Peter Pinski           : DLPNO-MP2, DLPNO-MP2 Gradient
   Christoph Reimann      : Effective Core Potentials
   Marius Retegan         : Local ZFS, SOC
   Christoph Riplinger    : Optimizer, TS searches, QM/MM, DLPNO-CCSD(T), (RO)-DLPNO pert. Triples
   Tobias Risthaus        : Range-separated hybrids, TD-DFT gradient, RPA, STAB
   Michael Roemelt        : Original ROCIS implementation
   Masaaki Saitow         : Open-shell DLPNO-CCSD energy and density
   Barbara Sandhoefer     : DKH picture change effects
   Avijit Sen             : IP-ROCIS
   Kantharuban Sivalingam : CASSCF convergence, NEVPT2, FIC-MRCI
   Bernardo de Souza      : ESD, SOC TD-DFT
   Georgi Stoychev        : AutoAux, RI-MP2 NMR
   Willem Van den Heuvel  : Paramagnetic NMR
   Boris Wezisla          : Elementary symmetry handling
   Frank Wennmohs         : Technical directorship


 We gratefully acknowledge several colleagues who have allowed us to
 interface, adapt or use parts of their codes:
   Stefan Grimme, W. Hujo, H. Kruse,             : VdW corrections, initial TS optimization,
                  C. Bannwarth                     DFT functionals, gCP, sTDA/sTD-DF
   Ed Valeev, F. Pavosevic, A. Kumar             : LibInt (2-el integral package), F12 methods
   Garnet Chan, S. Sharma, J. Yang, R. Olivares  : DMRG
   Ulf Ekstrom                                   : XCFun DFT Library
   Mihaly Kallay                                 : mrcc  (arbitrary order and MRCC methods)
   Andreas Klamt, Michael Diedenhofen            : otool_cosmo (COSMO solvation model)
   Jiri Pittner, Ondrej Demel                    : Mk-CCSD
   Frank Weinhold                                : gennbo (NPA and NBO analysis)
   Christopher J. Cramer and Donald G. Truhlar   : smd solvation model
   Lars Goerigk                                  : TD-DFT with DH, B97 family of functionals
   V. Asgeirsson, H. Jonsson                     : NEB implementation
   FAccTs GmbH                                   : IRC, NEB, NEB-TS, Multilevel, MM, QM/MM, CI optimization
   S Lehtola, MJT Oliveira, MAL Marques          : LibXC Library


 Your calculation uses the libint2 library for the computation of 2-el integrals
 For citations please refer to: http://libint.valeyev.net

 Your ORCA version has been built with support for libXC version: 4.2.3
 For citations please refer to: https://tddft.org/programs/libxc/

 This ORCA versions uses:
   CBLAS   interface :  Fast vector & matrix operations
   LAPACKE interface :  Fast linear algebra routines
   SCALAPACK package :  Parallel linear algebra routines




***************************************
The coordinates will be read from file: init.xyz
***************************************


Your calculation utilizes the SMD solvation module
Please cite in your paper:
A.V. Marenich, C.J. Cramer, D.G. Truhlar J. Phys. Chem. B, 113, (2009), 6378 

Your calculation utilizes the semiempirical GFN2-xTB method
Please cite in your paper:
C. Bannwarth, Ehlert S., S. Grimme,  J. Chem. Theory Comput., 15, (2019), 1652.
   

----- Orbital basis set information -----
Your calculation utilizes the basis: def2-SVP
   F. Weigend and R. Ahlrichs, Phys. Chem. Chem. Phys. 7, 3297 (2005).

================================================================================
                                        WARNINGS
                       Please study these warnings very carefully!
================================================================================

WARNING: Gradients needed for Numerical Frequencies
  ===> : Setting RunTyp to EnGrad

WARNING: The environment variable RSH_COMMAND is not set!
  ===> : All Displacements for the Numerical Hessian calculation
         will be started on localhost

WARNING: Found dipole moment calculation with XTB calculation
  ===> : Switching off dipole moment calculation


INFO   : the flag for use of LIBINT has been found!

================================================================================
                                       INPUT FILE
================================================================================
NAME = /tmp/slurm-scratch/freq.343/freq.inp
|  1> ! XTB2 NumFreq
|  2> %maxcore 1450
|  3> 
|  4> * xyzfile 0 1 init.xyz
|  5> 
|  6> %cpcm
|  7>  smd true
|  8>  smdsolvent "ch2cl2"
|  9> end
| 10> %pal nprocs 8 end
| 11> 
| 12>                          ****END OF INPUT****
================================================================================

                     *******************************
                     * Energy+Gradient Calculation *
                     *******************************

      -----------------------------------------------------------      
     |                   =====================                   |     
     |                           x T B                           |     
     |                   =====================                   |     
     |                         S. Grimme                         |     
     |          Mulliken Center for Theoretical Chemistry        |     
     |                    University of Bonn                     |     
      -----------------------------------------------------------      

   * xtb version 6.3.0 (preview) compiled by 'ehlert@majestix' on 2020-01-15

   This program is distributed in the hope that it will be useful,
   but WITHOUT ANY WARRANTY; without even the implied warranty of
   MERCHANTABILITY or FITNESS FOR A PARTICULAR PURPOSE.
   
   FOR NON-COMMERCIAL, ACADEMIA USE ONLY.
   
   Cite this work as:
   * S. Grimme, C. Bannwarth, P. Shushkov, J. Chem. Theory Comput., 2017,
     13, 1989-2009. DOI: 10.1021/acs.jctc.7b00118
   * C. Bannwarth, S. Ehlert and S. Grimme., J. Chem. Theory Comput., 2019,
     15, 1652-1671. DOI: 10.1021/acs.jctc.8b01176
   * P. Pracht, E. Caldeweyher, S. Ehlert, S. Grimme, ChemRxiv, 2019, preprint.
     DOI: 10.26434/chemrxiv.8326202.v1
   * S. Grimme, S. Spicher unpublished
   
   for DFT-D4:
   * E. Caldeweyher, C. Bannwarth and S. Grimme, J. Chem. Phys., 2017,
     147, 034112. DOI: 10.1063/1.4993215
   * E. Caldeweyher, S. Ehlert, A. Hansen, H. Neugebauer, S. Spicher,
     C. Bannwarth and S. Grimme, J. Chem. Phys., 2019, 150, 154122.
     DOI: 10.1063/1.5090222
   
   for sTDA-xTB:
   * S. Grimme and C. Bannwarth, J. Chem. Phys., 2016, 145, 054103.
     DOI: 10.1063/1.4959605
   
   in the mass-spec context:
   * V. Asgeirsson, C. Bauer and S. Grimme, Chem. Sci., 2017, 8, 4879.
     DOI: 10.1039/c7sc00601b
   
   for metadynamics refer to:
   * S. Grimme, J. Chem. Theory Comput., 2019, 155, 2847-2862
     DOI: 10.1021/acs.jctc.9b00143
   
   with help from (in alphabetical order)
   C. Bannwarth, F. Bohle, G. Brandenburg, E. Caldeweyher, M. Checinski,
   S. Dohm, S. Ehlert, S. Ehrlich, F. März, H. Neugebauer, J. Pisarek,
   P. Pracht, P. Shushkov, and S. Spicher.
   
 * started run on 2020/12/21 at 09:22:19.326     

           -------------------------------------------------
          |                Calculation Setup                |
           -------------------------------------------------

          program call               : /opt/orca/otool_xtb /tmp/slurm-scratch/freq.343/freq_XTB.xyz --grad -c 0 -u 0 -P 8 --namespace /tmp/slurm-scratch/freq.343/freq --gbsa CH2Cl2
          hostname                   : headnode-pbs
          calculation namespace      : /tmp/slurm-scratch/freq.343/freq
          coordinate file            : /tmp/slurm-scratch/freq.343/freq_XTB.xyz
          omp threads                :                     8
          number of atoms            :                    46
          number of electrons        :                   104
          charge                     :                     0
          spin                       :                   0.0
          first test random number   :      0.50983704688779


molecular fragmentation (1/2 indicates fragments):
1111111111211112222221112221111122211122221111
# atoms in fragment 1/2:    29    17
 fragment masses (1/2) :      178.25       74.14
CMA distance (Bohr)    :   9.169
constraining FC (au)   :  0.0500

########################################################################
# WARNING! Please study the warnings concerning your input carefully
#  - Process number higher than OMP_NUM_THREADS, I hope you know what you are doing.
########################################################################

           ------------------------------------------------- 
          |                 G F N 2 - x T B                 |
          | Geometry, Frequencies, Noncovalent interactions |
          |            JCTC 2019 parametrisation            |
           ------------------------------------------------- 
             k(s)              :                1.8500
             k(p)              :                2.2300
             k(d)              :                2.2300
             k(f)              :                2.0000
             kEN (H0ij)        :               -2.0000
             D4 a1             :                0.5200
             D4 a2             :                5.0000
             D4 s6             :                1.0000
             D4 s8             :                2.7000
             D4 s9             :                5.0000
             alphaj            :                2.0000

  Z AO/shell   Hii/eV     exponent
  1     Wed Apr 25 08:07:45 CEST 2018   EN: 2.200 GM2: 0.406  GM3: 0.0800  RAES: 1.40
     1s    -10.707211    1.230000
  6     Wed Apr 25 08:07:45 CEST 2018   EN: 2.550 GM2: 0.538  GM3: 0.1500  RAES: 3.00
     2s    -13.970922    2.096432
     2p    -10.063292    1.800000
  7     Wed Apr 25 08:07:45 CEST 2018   EN: 3.040 GM2: 0.461  GM3:-0.0640  RAES: 1.90
     2s    -16.686243    2.339881
     2p    -12.523956    2.014332
  8     Wed Apr 25 08:07:45 CEST 2018   EN: 3.440 GM2: 0.452  GM3:-0.0517  RAES: 1.80
     2s    -20.229985    2.439742
     2p    -15.503117    2.137023

 Solvent             : CH2Cl2
 Using internal parameter file: .param_gbsa2_CH2Cl2
 Gsolv ref. state (COSMO-RS): gsolv [1 M gas/solution]
 temperature (mdtemp)       :    298.150000000000     
 dielectric constant        :    8.93000000000000     
 rho                        :    1.33000000000000     
 mass                       :    84.9300000000000     
 surface tension            :    15.5689454083859     
 probe radius               :   0.719875900000000     
 Gshift (Eh)                :   4.440829173451759E-003
 c1                         :    1.49173776000000     
 soset                      :   0.000000000000000E+000
 HB correction              :  F
           ------------------------------------------------- 
          |        Self-Consistent Charge Iterations        |
           ------------------------------------------------- 

          ...................................................
          :                      SETUP                      :
          :.................................................:
          :  # basis functions                 100          :
          :  # atomic orbitals                 100          :
          :  # shells                           64          :
          :  # electrons                       104          :
          :  max. iterations                   250          :
          :  Hamiltonian                  GFN2-xTB          :
          :  GBSA solvation                   true          :
          :  PC potential                    false          :
          :  electronic temp.          300.0000000     K    :
          :  accuracy                    1.0000000          :
          :  -> integral cutoff          0.2500000E+02      :
          :  -> integral neglect         0.1000000E-07      :
          :  -> SCF convergence          0.1000000E-05 Eh   :
          :  -> wf. convergence          0.1000000E-03 e    :
          :  Broyden damping             0.4000000          :
          ...................................................
  Checking positiv definite overlap ...  done.
 

 iter      E             dE          RMSdq      gap      omega  full diag
   1    -56.9015907 -0.569016E+02  0.348E+00    3.72       0.0  T
   2    -57.0332901 -0.131699E+00  0.190E+00    3.42       1.0  T
   3    -57.0380597 -0.476957E-02  0.855E-01    2.69       1.0  T
   4    -57.0378409  0.218753E-03  0.351E-01    2.57       1.0  T
   5    -57.0421117 -0.427076E-02  0.833E-02    2.71       1.0  T
   6    -57.0421710 -0.592697E-04  0.395E-02    2.75       1.0  T
   7    -57.0421839 -0.129609E-04  0.163E-02    2.76       1.0  T
   8    -57.0421863 -0.239994E-05  0.631E-03    2.76       2.3  T
   9    -57.0421869 -0.602929E-06  0.287E-03    2.76       5.1  T
  10    -57.0421870 -0.483221E-07  0.122E-03    2.76      12.1  T
  11    -57.0421870 -0.816722E-08  0.608E-04    2.76      24.3  T
  12    -57.0421870 -0.502528E-08  0.161E-04    2.76      91.5  T

   *** convergence criteria satisfied after 12 iterations ***

         #    Occupation            Energy/Eh            Energy/eV
      -------------------------------------------------------------
         1        2.0000           -0.6719764             -18.2854
       ...           ...                  ...                  ...
        46        2.0000           -0.4263993             -11.6029
        47        2.0000           -0.4202969             -11.4369
        48        2.0000           -0.4052699             -11.0280
        49        2.0000           -0.4026613             -10.9570
        50        2.0000           -0.3947980             -10.7430
        51        2.0000           -0.3427182              -9.3258
        52        2.0000           -0.3283216              -8.9341 (HOMO)
        53                         -0.2269779              -6.1764 (LUMO)
        54                         -0.2246063              -6.1118
        55                         -0.1028474              -2.7986
        56                         -0.0511625              -1.3922
        57                         -0.0240995              -0.6558
       ...                                ...                  ...
       100                          0.6429507              17.4956
      -------------------------------------------------------------
                  HL-Gap            0.1013437 Eh            2.7577 eV
             Fermi-level           -0.2776497 Eh           -7.5552 eV

 SCC (total)                   0 d,  0 h,  0 min,  0.045 sec
 SCC setup                      ...        0 min,  0.001 sec (  3.120%)
 Dispersion                     ...        0 min,  0.007 sec ( 14.666%)
 integral evaluation            ...        0 min,  0.007 sec ( 16.109%)
 zeroth order Hamiltonian       ...        0 min,  0.000 sec (  0.022%)
 iterations                     ...        0 min,  0.019 sec ( 43.001%)
 molecular gradient             ...        0 min,  0.010 sec ( 22.200%)
 printout                       ...        0 min,  0.000 sec (  0.799%)

         :::::::::::::::::::::::::::::::::::::::::::::::::::::
         ::                     SUMMARY                     ::
         :::::::::::::::::::::::::::::::::::::::::::::::::::::
         :: total energy             -56.277506776338 Eh    ::
         :: total w/o Gsasa/hb       -56.254932424179 Eh    ::
         :: gradient norm              0.035053689236 Eh/a0 ::
         :: HOMO-LUMO gap              2.757703432865 eV    ::
         ::.................................................::
         :: SCC energy               -57.064761350860 Eh    ::
         :: -> isotropic ES            0.117312466974 Eh    ::
         :: -> anisotropic ES          0.002521934038 Eh    ::
         :: -> anisotropic XC          0.029699124974 Eh    ::
         :: -> dispersion             -0.038247240079 Eh    ::
         :: -> Gsolv                  -0.041170933753 Eh    ::
         ::    -> Gborn               -0.018596581594 Eh    ::
         ::    -> Gsasa               -0.027015181332 Eh    ::
         ::    -> Ghb                  0.000000000000 Eh    ::
         ::    -> Gshift               0.004440829173 Eh    ::
         :: repulsion energy           0.786694342169 Eh    ::
         :: add. restraining           0.000000000000 Eh    ::
         :::::::::::::::::::::::::::::::::::::::::::::::::::::

           -------------------------------------------------
          |                Property Printout                |
           -------------------------------------------------

    * Orbital Energies and Occupations

         #    Occupation            Energy/Eh            Energy/eV
      -------------------------------------------------------------
         1        2.0000           -0.6719764             -18.2854
       ...           ...                  ...                  ...
        40        2.0000           -0.4504616             -12.2577
        41        2.0000           -0.4467358             -12.1563
        42        2.0000           -0.4430083             -12.0549
        43        2.0000           -0.4423943             -12.0382
        44        2.0000           -0.4304922             -11.7143
        45        2.0000           -0.4293715             -11.6838
        46        2.0000           -0.4263993             -11.6029
        47        2.0000           -0.4202969             -11.4369
        48        2.0000           -0.4052699             -11.0280
        49        2.0000           -0.4026613             -10.9570
        50        2.0000           -0.3947980             -10.7430
        51        2.0000           -0.3427182              -9.3258
        52        2.0000           -0.3283216              -8.9341 (HOMO)
        53                         -0.2269779              -6.1764 (LUMO)
        54                         -0.2246063              -6.1118
        55                         -0.1028474              -2.7986
        56                         -0.0511625              -1.3922
        57                         -0.0240995              -0.6558
        58                          0.0311154               0.8467
        59                          0.0493531               1.3430
        60                          0.0745948               2.0298
        61                          0.0872969               2.3755
        62                          0.0933990               2.5415
        63                          0.1016634               2.7664
       ...                                ...                  ...
       100                          0.6429507              17.4956
      -------------------------------------------------------------
                  HL-Gap            0.1013437 Eh            2.7577 eV
             Fermi-level           -0.2776497 Eh           -7.5552 eV

     #   Z        covCN         q      C6AA      α(0)
     1   6 C      2.914    -0.035    28.863     8.810
     2   6 C      2.919    -0.046    29.139     8.852
     3   6 C      2.962    -0.031    28.766     8.797
     4   6 C      2.920    -0.034    28.844     8.807
     5   6 C      2.914    -0.035    28.877     8.812
     6   6 C      2.915    -0.036    28.884     8.813
     7   1 H      0.925     0.016     2.788     2.611
     8   1 H      0.925     0.036     2.500     2.473
     9   1 H      0.925     0.036     2.507     2.476
    10   7 N      3.120    -0.268    26.932     7.708
    11   1 H      1.196     0.253     0.860     1.448
    12   6 C      3.734     0.004    20.604     6.478
    13   1 H      0.924     0.040     2.445     2.445
    14   1 H      0.924     0.053     2.288     2.365
    15   1 H      0.860     0.161     1.332     1.808
    16   7 N      3.363    -0.250    26.484     7.643
    17   1 H      0.860     0.199     1.111     1.651
    18   1 H      0.858     0.248     0.891     1.479
    19   6 C      3.732    -0.006    20.781     6.507
    20   1 H      0.925     0.063     2.169     2.303
    21   1 H      0.924     0.062     2.180     2.309
    22   6 C      3.648     0.212    17.562     6.021
    23   1 H      0.921    -0.051     4.114     3.172
    24   8 O      0.855    -0.749    30.071     7.352
    25   6 C      3.802    -0.073    21.899     6.662
    26   1 H      0.924     0.053     2.288     2.366
    27   1 H      0.924     0.047     2.359     2.402
    28   6 C      3.801    -0.061    21.673     6.628
    29   1 H      0.924     0.031     2.567     2.505
    30   1 H      0.924     0.035     2.517     2.481
    31   1 H      0.925     0.034     2.525     2.485
    32   1 H      0.925     0.034     2.536     2.490
    33   6 C      3.800    -0.057    21.591     6.616
    34   1 H      0.924     0.038     2.479     2.462
    35   1 H      0.924     0.041     2.434     2.440
    36   6 C      3.800    -0.055    21.561     6.611
    37   1 H      0.924     0.033     2.545     2.495
    38   1 H      0.924     0.037     2.485     2.465
    39   6 C      3.750    -0.106    22.595     6.779
    40   1 H      0.924     0.038     2.473     2.459
    41   1 H      0.924     0.040     2.448     2.447
    42   1 H      0.924     0.040     2.447     2.446
    43   6 C      3.750    -0.103    22.525     6.769
    44   1 H      0.924     0.040     2.450     2.448
    45   1 H      0.924     0.034     2.530     2.487
    46   1 H      0.924     0.038     2.479     2.462

 Mol. C6AA /au·bohr⁶  :      17256.326020
 Mol. C8AA /au·bohr⁸  :     377841.829419
 Mol. α(0) /au        :        200.548517


Wiberg/Mayer (AO) data.
largest (>0.10) Wiberg bond orders for each atom
          total WBO             WBO to atom ...
     1  C   3.991        C    2 1.451    C    6 1.430    H   32 0.971    C    4 0.110
     2  C   3.991        C    1 1.451    C    3 1.406    H    7 0.967    C    5 0.112
     3  C   3.980        C    4 1.423    C    2 1.406    C   22 0.946    C    6 0.110
     4  C   3.991        C    5 1.435    C    3 1.423    H    8 0.965    C    1 0.110
     5  C   3.991        C    6 1.445    C    4 1.435    H   31 0.971    C    2 0.112
     6  C   3.991        C    5 1.445    C    1 1.430    H    9 0.971    C    3 0.110
     7  H   1.000        C    2 0.967
     8  H   0.999        C    4 0.965
     9  H   0.998        C    6 0.971
    10  N   3.421        C   12 0.995    H   15 0.946    C   22 0.816    H   11 0.379    N   16 0.131
    11  H   0.936        N   16 0.532    N   10 0.379
    12  C   3.973        C   28 1.005    N   10 0.995    H   14 0.972    H   13 0.971
    13  H   0.998        C   12 0.971
    14  H   0.997        C   12 0.972
    15  H   0.974        N   10 0.946
    16  N   3.512        C   19 0.983    H   17 0.945    H   18 0.850    H   11 0.532    N   10 0.131
    17  H   0.960        N   16 0.945
    18  H   0.938        N   16 0.850
    19  C   3.953        C   25 1.007    N   16 0.983    H   21 0.971    H   20 0.971
    20  H   0.996        C   19 0.971
    21  H   0.996        C   19 0.971
    22  C   3.958        O   24 1.217    C    3 0.946    H   23 0.926    N   10 0.816
    23  H   0.997        C   22 0.926
    24  O   1.531        C   22 1.217
    25  C   3.992        C   19 1.007    C   33 1.005    H   27 0.975    H   26 0.974
    26  H   0.997        C   25 0.974
    27  H   0.998        C   25 0.975
    28  C   3.996        C   36 1.005    C   12 1.005    H   30 0.975    H   29 0.973
    29  H   0.999        C   28 0.973
    30  H   0.999        C   28 0.975
    31  H   0.998        C    5 0.971
    32  H   0.998        C    1 0.971
    33  C   3.995        C   39 1.020    C   25 1.005    H   34 0.977    H   35 0.977
    34  H   0.999        C   33 0.977
    35  H   0.998        C   33 0.977
    36  C   3.996        C   43 1.020    C   28 1.005    H   37 0.978    H   38 0.977
    37  H   0.999        C   36 0.978
    38  H   0.999        C   36 0.977
    39  C   3.995        C   33 1.020    H   40 0.987    H   42 0.987    H   41 0.987
    40  H   0.999        C   39 0.987
    41  H   0.998        C   39 0.987
    42  H   0.998        C   39 0.987
    43  C   3.996        C   36 1.020    H   45 0.988    H   46 0.987    H   44 0.987
    44  H   0.998        C   43 0.987
    45  H   0.999        C   43 0.988
    46  H   0.999        C   43 0.987

molecular dipole:
                 x           y           z       tot (Debye)
 q only:       -1.157      -2.774      -1.617
   full:       -1.380      -2.407      -1.619       8.165
molecular quadrupole (traceless):
                xx          xy          yy          xz          yz          zz
 q only:       -2.275     -10.491      32.083     -22.986     -17.945     -29.808
  q+dip:       -1.280     -10.511      30.795     -24.184     -19.328     -29.515
   full:       -2.080      -9.473      31.802     -24.278     -17.528     -29.722

           -------------------------------------------------
          |                Property Printout                |
           -------------------------------------------------

    * Orbital Energies and Occupations

         #    Occupation            Energy/Eh            Energy/eV
      -------------------------------------------------------------
         1        2.0000           -0.6719764             -18.2854
       ...           ...                  ...                  ...
        40        2.0000           -0.4504616             -12.2577
        41        2.0000           -0.4467358             -12.1563
        42        2.0000           -0.4430083             -12.0549
        43        2.0000           -0.4423943             -12.0382
        44        2.0000           -0.4304922             -11.7143
        45        2.0000           -0.4293715             -11.6838
        46        2.0000           -0.4263993             -11.6029
        47        2.0000           -0.4202969             -11.4369
        48        2.0000           -0.4052699             -11.0280
        49        2.0000           -0.4026613             -10.9570
        50        2.0000           -0.3947980             -10.7430
        51        2.0000           -0.3427182              -9.3258
        52        2.0000           -0.3283216              -8.9341 (HOMO)
        53                         -0.2269779              -6.1764 (LUMO)
        54                         -0.2246063              -6.1118
        55                         -0.1028474              -2.7986
        56                         -0.0511625              -1.3922
        57                         -0.0240995              -0.6558
        58                          0.0311154               0.8467
        59                          0.0493531               1.3430
        60                          0.0745948               2.0298
        61                          0.0872969               2.3755
        62                          0.0933990               2.5415
        63                          0.1016634               2.7664
       ...                                ...                  ...
       100                          0.6429507              17.4956
      -------------------------------------------------------------
                  HL-Gap            0.1013437 Eh            2.7577 eV
             Fermi-level           -0.2776497 Eh           -7.5552 eV

     #   Z        covCN         q      C6AA      α(0)
     1   6 C      2.914    -0.035    28.863     8.810
     2   6 C      2.919    -0.046    29.139     8.852
     3   6 C      2.962    -0.031    28.766     8.797
     4   6 C      2.920    -0.034    28.844     8.807
     5   6 C      2.914    -0.035    28.877     8.812
     6   6 C      2.915    -0.036    28.884     8.813
     7   1 H      0.925     0.016     2.788     2.611
     8   1 H      0.925     0.036     2.500     2.473
     9   1 H      0.925     0.036     2.507     2.476
    10   7 N      3.120    -0.268    26.932     7.708
    11   1 H      1.196     0.253     0.860     1.448
    12   6 C      3.734     0.004    20.604     6.478
    13   1 H      0.924     0.040     2.445     2.445
    14   1 H      0.924     0.053     2.288     2.365
    15   1 H      0.860     0.161     1.332     1.808
    16   7 N      3.363    -0.250    26.484     7.643
    17   1 H      0.860     0.199     1.111     1.651
    18   1 H      0.858     0.248     0.891     1.479
    19   6 C      3.732    -0.006    20.781     6.507
    20   1 H      0.925     0.063     2.169     2.303
    21   1 H      0.924     0.062     2.180     2.309
    22   6 C      3.648     0.212    17.562     6.021
    23   1 H      0.921    -0.051     4.114     3.172
    24   8 O      0.855    -0.749    30.071     7.352
    25   6 C      3.802    -0.073    21.899     6.662
    26   1 H      0.924     0.053     2.288     2.366
    27   1 H      0.924     0.047     2.359     2.402
    28   6 C      3.801    -0.061    21.673     6.628
    29   1 H      0.924     0.031     2.567     2.505
    30   1 H      0.924     0.035     2.517     2.481
    31   1 H      0.925     0.034     2.525     2.485
    32   1 H      0.925     0.034     2.536     2.490
    33   6 C      3.800    -0.057    21.591     6.616
    34   1 H      0.924     0.038     2.479     2.462
    35   1 H      0.924     0.041     2.434     2.440
    36   6 C      3.800    -0.055    21.561     6.611
    37   1 H      0.924     0.033     2.545     2.495
    38   1 H      0.924     0.037     2.485     2.465
    39   6 C      3.750    -0.106    22.595     6.779
    40   1 H      0.924     0.038     2.473     2.459
    41   1 H      0.924     0.040     2.448     2.447
    42   1 H      0.924     0.040     2.447     2.446
    43   6 C      3.750    -0.103    22.525     6.769
    44   1 H      0.924     0.040     2.450     2.448
    45   1 H      0.924     0.034     2.530     2.487
    46   1 H      0.924     0.038     2.479     2.462

 Mol. C6AA /au·bohr⁶  :      17256.326020
 Mol. C8AA /au·bohr⁸  :     377841.829419
 Mol. α(0) /au        :        200.548517


Wiberg/Mayer (AO) data.
largest (>0.10) Wiberg bond orders for each atom
          total WBO             WBO to atom ...
     1  C   3.991        C    2 1.451    C    6 1.430    H   32 0.971    C    4 0.110
     2  C   3.991        C    1 1.451    C    3 1.406    H    7 0.967    C    5 0.112
     3  C   3.980        C    4 1.423    C    2 1.406    C   22 0.946    C    6 0.110
     4  C   3.991        C    5 1.435    C    3 1.423    H    8 0.965    C    1 0.110
     5  C   3.991        C    6 1.445    C    4 1.435    H   31 0.971    C    2 0.112
     6  C   3.991        C    5 1.445    C    1 1.430    H    9 0.971    C    3 0.110
     7  H   1.000        C    2 0.967
     8  H   0.999        C    4 0.965
     9  H   0.998        C    6 0.971
    10  N   3.421        C   12 0.995    H   15 0.946    C   22 0.816    H   11 0.379    N   16 0.131
    11  H   0.936        N   16 0.532    N   10 0.379
    12  C   3.973        C   28 1.005    N   10 0.995    H   14 0.972    H   13 0.971
    13  H   0.998        C   12 0.971
    14  H   0.997        C   12 0.972
    15  H   0.974        N   10 0.946
    16  N   3.512        C   19 0.983    H   17 0.945    H   18 0.850    H   11 0.532    N   10 0.131
    17  H   0.960        N   16 0.945
    18  H   0.938        N   16 0.850
    19  C   3.953        C   25 1.007    N   16 0.983    H   21 0.971    H   20 0.971
    20  H   0.996        C   19 0.971
    21  H   0.996        C   19 0.971
    22  C   3.958        O   24 1.217    C    3 0.946    H   23 0.926    N   10 0.816
    23  H   0.997        C   22 0.926
    24  O   1.531        C   22 1.217
    25  C   3.992        C   19 1.007    C   33 1.005    H   27 0.975    H   26 0.974
    26  H   0.997        C   25 0.974
    27  H   0.998        C   25 0.975
    28  C   3.996        C   36 1.005    C   12 1.005    H   30 0.975    H   29 0.973
    29  H   0.999        C   28 0.973
    30  H   0.999        C   28 0.975
    31  H   0.998        C    5 0.971
    32  H   0.998        C    1 0.971
    33  C   3.995        C   39 1.020    C   25 1.005    H   34 0.977    H   35 0.977
    34  H   0.999        C   33 0.977
    35  H   0.998        C   33 0.977
    36  C   3.996        C   43 1.020    C   28 1.005    H   37 0.978    H   38 0.977
    37  H   0.999        C   36 0.978
    38  H   0.999        C   36 0.977
    39  C   3.995        C   33 1.020    H   40 0.987    H   42 0.987    H   41 0.987
    40  H   0.999        C   39 0.987
    41  H   0.998        C   39 0.987
    42  H   0.998        C   39 0.987
    43  C   3.996        C   36 1.020    H   45 0.988    H   46 0.987    H   44 0.987
    44  H   0.998        C   43 0.987
    45  H   0.999        C   43 0.988
    46  H   0.999        C   43 0.987

molecular dipole:
                 x           y           z       tot (Debye)
 q only:       -1.157      -2.774      -1.617
   full:       -1.380      -2.407      -1.619       8.165
molecular quadrupole (traceless):
                xx          xy          yy          xz          yz          zz
 q only:       -2.275     -10.491      32.083     -22.986     -17.945     -29.808
  q+dip:       -1.280     -10.511      30.795     -24.184     -19.328     -29.515
   full:       -2.080      -9.473      31.802     -24.278     -17.528     -29.722


           -------------------------------------------------
          | TOTAL ENERGY              -56.277506776338 Eh   |
          | GRADIENT NORM               0.035053689236 Eh/α |
          | HOMO-LUMO GAP               2.757703432865 eV   |
           -------------------------------------------------

------------------------------------------------------------------------
 * finished run on 2020/12/21 at 09:22:19.464     
------------------------------------------------------------------------
 total:
 * wall-time:     0 d,  0 h,  0 min,  0.138 sec
 *  cpu-time:     0 d,  0 h,  0 min,  1.106 sec
 * ratio c/w:     8.017 speedup
 SCF:
 * wall-time:     0 d,  0 h,  0 min,  0.045 sec
 *  cpu-time:     0 d,  0 h,  0 min,  0.382 sec
 * ratio c/w:     8.400 speedup


-------------------------   --------------------
FINAL SINGLE POINT ENERGY       -56.277506776340
-------------------------   --------------------


----------------------------------------------------------------------------
                           ORCA NUMERICAL FREQUENCIES
                              (8-process run)
----------------------------------------------------------------------------

Number of atoms                ... 46
Central differences            ... used
Number of displacements        ... 276
Numerical increment            ... 5.000e-03 bohr
IR-spectrum generation         ... on
Raman-spectrum generation      ... off
Surface Crossing Hessian       ... off
List of participating nodes    ...  /tmp/slurm-scratch/freq.343/freq.hostnames

The output will be reduced. Please look at the following files:
SCF program output             ... >/tmp/slurm-scratch/freq.343/freq.lastscf
Integral program output        ... >/tmp/slurm-scratch/freq.343/freq.lastint
Gradient program output        ... >/tmp/slurm-scratch/freq.343/freq.lastgrad
Dipole moment program output   ... >/tmp/slurm-scratch/freq.343/freq.lastmom
AutoCI program output          ... >/tmp/slurm-scratch/freq.343/freq.lastautoci


         <<< Energy and Gradient at the input geometry >>>

        <<< Energy and Gradient at displaced geometries >>>
             <<<Displacing   1/coordinate 1 (+)>>>
             <<<Displacing   3/coordinate 1 (+)>>>
             <<<Displacing   3/coordinate 2 (+)>>>
             <<<Displacing   1/coordinate 3 (+)>>>
             <<<Displacing   2/coordinate 1 (+)>>>
             <<<Displacing   1/coordinate 2 (+)>>>
             <<<Displacing   2/coordinate 2 (+)>>>
             <<<Displacing   2/coordinate 3 (+)>>>
             <<<Displacing   1/coordinate 1 (-)>>>
             <<<Displacing   3/coordinate 1 (-)>>>
             <<<Displacing   3/coordinate 2 (-)>>>
             <<<Displacing   1/coordinate 3 (-)>>>
             <<<Displacing   2/coordinate 1 (-)>>>
             <<<Displacing   2/coordinate 2 (-)>>>
             <<<Displacing   2/coordinate 3 (-)>>>
             <<<Displacing   1/coordinate 2 (-)>>>
             <<<Displacing   3/coordinate 3 (+)>>>
             <<<Displacing   4/coordinate 2 (+)>>>
             <<<Displacing   4/coordinate 1 (+)>>>
             <<<Displacing   5/coordinate 1 (+)>>>
             <<<Displacing   5/coordinate 3 (+)>>>
             <<<Displacing   3/coordinate 3 (-)>>>
             <<<Displacing   4/coordinate 3 (+)>>>
             <<<Displacing   6/coordinate 1 (+)>>>
             <<<Displacing   5/coordinate 2 (+)>>>
             <<<Displacing   4/coordinate 2 (-)>>>
             <<<Displacing   4/coordinate 1 (-)>>>
             <<<Displacing   5/coordinate 2 (-)>>>
             <<<Displacing   5/coordinate 1 (-)>>>
             <<<Displacing   5/coordinate 3 (-)>>>
             <<<Displacing   6/coordinate 1 (-)>>>
             <<<Displacing   4/coordinate 3 (-)>>>
             <<<Displacing   6/coordinate 2 (+)>>>
             <<<Displacing   7/coordinate 1 (+)>>>
             <<<Displacing   7/coordinate 3 (+)>>>
             <<<Displacing   6/coordinate 3 (+)>>>
             <<<Displacing   7/coordinate 2 (+)>>>
             <<<Displacing   6/coordinate 2 (-)>>>
             <<<Displacing   8/coordinate 1 (+)>>>
             <<<Displacing   8/coordinate 2 (+)>>>
             <<<Displacing   7/coordinate 1 (-)>>>
             <<<Displacing   7/coordinate 3 (-)>>>
             <<<Displacing   6/coordinate 3 (-)>>>
             <<<Displacing   7/coordinate 2 (-)>>>
             <<<Displacing   8/coordinate 3 (+)>>>
             <<<Displacing   8/coordinate 1 (-)>>>
             <<<Displacing   8/coordinate 2 (-)>>>
             <<<Displacing   8/coordinate 3 (-)>>>
             <<<Displacing   9/coordinate 1 (+)>>>
             <<<Displacing  10/coordinate 1 (+)>>>
             <<<Displacing   9/coordinate 3 (+)>>>
             <<<Displacing   9/coordinate 1 (-)>>>
             <<<Displacing   9/coordinate 2 (+)>>>
             <<<Displacing  10/coordinate 2 (+)>>>
             <<<Displacing  10/coordinate 3 (+)>>>
             <<<Displacing  10/coordinate 1 (-)>>>
             <<<Displacing  11/coordinate 1 (+)>>>
             <<<Displacing   9/coordinate 3 (-)>>>
             <<<Displacing  10/coordinate 3 (-)>>>
             <<<Displacing   9/coordinate 2 (-)>>>
             <<<Displacing  10/coordinate 2 (-)>>>
             <<<Displacing  11/coordinate 1 (-)>>>
             <<<Displacing  11/coordinate 2 (+)>>>
             <<<Displacing  11/coordinate 2 (-)>>>
             <<<Displacing  11/coordinate 3 (+)>>>
             <<<Displacing  12/coordinate 1 (+)>>>
             <<<Displacing  12/coordinate 2 (+)>>>
             <<<Displacing  11/coordinate 3 (-)>>>
             <<<Displacing  13/coordinate 2 (+)>>>
             <<<Displacing  12/coordinate 1 (-)>>>
             <<<Displacing  12/coordinate 3 (+)>>>
             <<<Displacing  13/coordinate 3 (+)>>>
             <<<Displacing  12/coordinate 2 (-)>>>
             <<<Displacing  13/coordinate 1 (+)>>>
             <<<Displacing  13/coordinate 2 (-)>>>
             <<<Displacing  13/coordinate 3 (-)>>>
             <<<Displacing  12/coordinate 3 (-)>>>
             <<<Displacing  14/coordinate 1 (+)>>>
             <<<Displacing  13/coordinate 1 (-)>>>
             <<<Displacing  14/coordinate 1 (-)>>>
             <<<Displacing  14/coordinate 2 (+)>>>
             <<<Displacing  14/coordinate 3 (+)>>>
             <<<Displacing  15/coordinate 1 (+)>>>
             <<<Displacing  14/coordinate 2 (-)>>>
             <<<Displacing  15/coordinate 2 (+)>>>
             <<<Displacing  15/coordinate 1 (-)>>>
             <<<Displacing  16/coordinate 1 (+)>>>
             <<<Displacing  14/coordinate 3 (-)>>>
             <<<Displacing  16/coordinate 2 (+)>>>
             <<<Displacing  15/coordinate 3 (+)>>>
             <<<Displacing  15/coordinate 2 (-)>>>
             <<<Displacing  16/coordinate 1 (-)>>>
             <<<Displacing  16/coordinate 2 (-)>>>
             <<<Displacing  16/coordinate 3 (+)>>>
             <<<Displacing  15/coordinate 3 (-)>>>
             <<<Displacing  16/coordinate 3 (-)>>>
             <<<Displacing  17/coordinate 1 (+)>>>
             <<<Displacing  17/coordinate 2 (+)>>>
             <<<Displacing  17/coordinate 1 (-)>>>
             <<<Displacing  18/coordinate 1 (+)>>>
             <<<Displacing  17/coordinate 3 (+)>>>
             <<<Displacing  18/coordinate 2 (+)>>>
             <<<Displacing  17/coordinate 2 (-)>>>
             <<<Displacing  18/coordinate 1 (-)>>>
             <<<Displacing  18/coordinate 3 (+)>>>
             <<<Displacing  17/coordinate 3 (-)>>>
             <<<Displacing  18/coordinate 2 (-)>>>
             <<<Displacing  18/coordinate 3 (-)>>>
             <<<Displacing  19/coordinate 1 (+)>>>
             <<<Displacing  19/coordinate 2 (+)>>>
             <<<Displacing  19/coordinate 1 (-)>>>
             <<<Displacing  19/coordinate 2 (-)>>>
             <<<Displacing  19/coordinate 3 (+)>>>
             <<<Displacing  19/coordinate 3 (-)>>>
             <<<Displacing  20/coordinate 2 (+)>>>
             <<<Displacing  20/coordinate 1 (+)>>>
             <<<Displacing  20/coordinate 3 (+)>>>
             <<<Displacing  20/coordinate 2 (-)>>>
             <<<Displacing  20/coordinate 1 (-)>>>
             <<<Displacing  20/coordinate 3 (-)>>>
             <<<Displacing  21/coordinate 1 (+)>>>
             <<<Displacing  21/coordinate 2 (+)>>>
             <<<Displacing  21/coordinate 1 (-)>>>
             <<<Displacing  21/coordinate 2 (-)>>>
             <<<Displacing  21/coordinate 3 (+)>>>
             <<<Displacing  22/coordinate 1 (+)>>>
             <<<Displacing  22/coordinate 1 (-)>>>
             <<<Displacing  21/coordinate 3 (-)>>>
             <<<Displacing  22/coordinate 2 (+)>>>
             <<<Displacing  23/coordinate 2 (+)>>>
             <<<Displacing  22/coordinate 3 (+)>>>
             <<<Displacing  23/coordinate 1 (+)>>>
             <<<Displacing  23/coordinate 3 (+)>>>
             <<<Displacing  22/coordinate 2 (-)>>>
             <<<Displacing  23/coordinate 2 (-)>>>
             <<<Displacing  22/coordinate 3 (-)>>>
             <<<Displacing  24/coordinate 1 (+)>>>
             <<<Displacing  23/coordinate 1 (-)>>>
             <<<Displacing  23/coordinate 3 (-)>>>
             <<<Displacing  24/coordinate 1 (-)>>>
             <<<Displacing  24/coordinate 2 (+)>>>
             <<<Displacing  24/coordinate 3 (+)>>>
             <<<Displacing  24/coordinate 2 (-)>>>
             <<<Displacing  24/coordinate 3 (-)>>>
             <<<Displacing  25/coordinate 3 (+)>>>
             <<<Displacing  25/coordinate 1 (+)>>>
             <<<Displacing  25/coordinate 2 (+)>>>
             <<<Displacing  26/coordinate 1 (+)>>>
             <<<Displacing  26/coordinate 2 (+)>>>
             <<<Displacing  25/coordinate 1 (-)>>>
             <<<Displacing  25/coordinate 3 (-)>>>
             <<<Displacing  25/coordinate 2 (-)>>>
             <<<Displacing  26/coordinate 1 (-)>>>
             <<<Displacing  26/coordinate 2 (-)>>>
             <<<Displacing  26/coordinate 3 (+)>>>
             <<<Displacing  26/coordinate 3 (-)>>>
             <<<Displacing  27/coordinate 1 (+)>>>
             <<<Displacing  27/coordinate 2 (+)>>>
             <<<Displacing  27/coordinate 1 (-)>>>
             <<<Displacing  27/coordinate 2 (-)>>>
             <<<Displacing  28/coordinate 2 (+)>>>
             <<<Displacing  28/coordinate 3 (+)>>>
             <<<Displacing  27/coordinate 3 (+)>>>
             <<<Displacing  28/coordinate 1 (+)>>>
             <<<Displacing  29/coordinate 1 (+)>>>
             <<<Displacing  28/coordinate 2 (-)>>>
             <<<Displacing  27/coordinate 3 (-)>>>
             <<<Displacing  28/coordinate 3 (-)>>>
             <<<Displacing  28/coordinate 1 (-)>>>
             <<<Displacing  29/coordinate 2 (+)>>>
             <<<Displacing  29/coordinate 1 (-)>>>
             <<<Displacing  29/coordinate 2 (-)>>>
             <<<Displacing  30/coordinate 1 (+)>>>
             <<<Displacing  29/coordinate 3 (+)>>>
             <<<Displacing  30/coordinate 1 (-)>>>
             <<<Displacing  29/coordinate 3 (-)>>>
             <<<Displacing  31/coordinate 1 (+)>>>
             <<<Displacing  30/coordinate 2 (+)>>>
             <<<Displacing  30/coordinate 3 (+)>>>
             <<<Displacing  31/coordinate 2 (+)>>>
             <<<Displacing  31/coordinate 1 (-)>>>
             <<<Displacing  31/coordinate 3 (+)>>>
             <<<Displacing  30/coordinate 2 (-)>>>
             <<<Displacing  32/coordinate 1 (+)>>>
             <<<Displacing  30/coordinate 3 (-)>>>
             <<<Displacing  31/coordinate 2 (-)>>>
             <<<Displacing  31/coordinate 3 (-)>>>
             <<<Displacing  32/coordinate 1 (-)>>>
             <<<Displacing  32/coordinate 2 (+)>>>
             <<<Displacing  32/coordinate 3 (+)>>>
             <<<Displacing  32/coordinate 2 (-)>>>
             <<<Displacing  32/coordinate 3 (-)>>>
             <<<Displacing  33/coordinate 2 (+)>>>
             <<<Displacing  33/coordinate 1 (+)>>>
             <<<Displacing  33/coordinate 3 (+)>>>
             <<<Displacing  33/coordinate 2 (-)>>>
             <<<Displacing  34/coordinate 1 (+)>>>
             <<<Displacing  33/coordinate 1 (-)>>>
             <<<Displacing  33/coordinate 3 (-)>>>
             <<<Displacing  34/coordinate 2 (+)>>>
             <<<Displacing  34/coordinate 3 (+)>>>
             <<<Displacing  34/coordinate 1 (-)>>>
             <<<Displacing  34/coordinate 2 (-)>>>
             <<<Displacing  34/coordinate 3 (-)>>>
             <<<Displacing  35/coordinate 1 (+)>>>
             <<<Displacing  35/coordinate 1 (-)>>>
             <<<Displacing  35/coordinate 2 (+)>>>
             <<<Displacing  35/coordinate 2 (-)>>>
             <<<Displacing  35/coordinate 3 (+)>>>
             <<<Displacing  36/coordinate 1 (+)>>>
             <<<Displacing  35/coordinate 3 (-)>>>
             <<<Displacing  36/coordinate 1 (-)>>>
             <<<Displacing  37/coordinate 1 (+)>>>
             <<<Displacing  37/coordinate 2 (+)>>>
             <<<Displacing  36/coordinate 2 (+)>>>
             <<<Displacing  36/coordinate 3 (+)>>>
             <<<Displacing  37/coordinate 1 (-)>>>
             <<<Displacing  37/coordinate 2 (-)>>>
             <<<Displacing  36/coordinate 3 (-)>>>
             <<<Displacing  36/coordinate 2 (-)>>>
             <<<Displacing  37/coordinate 3 (+)>>>
             <<<Displacing  37/coordinate 3 (-)>>>
             <<<Displacing  38/coordinate 1 (+)>>>
             <<<Displacing  38/coordinate 1 (-)>>>
             <<<Displacing  38/coordinate 3 (+)>>>
             <<<Displacing  38/coordinate 2 (+)>>>
             <<<Displacing  38/coordinate 2 (-)>>>
             <<<Displacing  38/coordinate 3 (-)>>>
             <<<Displacing  39/coordinate 2 (+)>>>
             <<<Displacing  40/coordinate 1 (+)>>>
             <<<Displacing  39/coordinate 3 (+)>>>
             <<<Displacing  39/coordinate 1 (+)>>>
             <<<Displacing  39/coordinate 2 (-)>>>
             <<<Displacing  40/coordinate 1 (-)>>>
             <<<Displacing  39/coordinate 3 (-)>>>
             <<<Displacing  39/coordinate 1 (-)>>>
             <<<Displacing  40/coordinate 2 (+)>>>
             <<<Displacing  40/coordinate 2 (-)>>>
             <<<Displacing  40/coordinate 3 (+)>>>
             <<<Displacing  40/coordinate 3 (-)>>>
             <<<Displacing  41/coordinate 1 (+)>>>
             <<<Displacing  41/coordinate 3 (+)>>>
             <<<Displacing  41/coordinate 2 (+)>>>
             <<<Displacing  42/coordinate 2 (+)>>>
             <<<Displacing  42/coordinate 1 (+)>>>
             <<<Displacing  41/coordinate 1 (-)>>>
             <<<Displacing  41/coordinate 3 (-)>>>
             <<<Displacing  41/coordinate 2 (-)>>>
             <<<Displacing  42/coordinate 2 (-)>>>
             <<<Displacing  42/coordinate 1 (-)>>>
             <<<Displacing  42/coordinate 3 (+)>>>
             <<<Displacing  43/coordinate 1 (+)>>>
             <<<Displacing  42/coordinate 3 (-)>>>
             <<<Displacing  43/coordinate 1 (-)>>>
             <<<Displacing  43/coordinate 2 (+)>>>
             <<<Displacing  43/coordinate 2 (-)>>>
             <<<Displacing  43/coordinate 3 (+)>>>
             <<<Displacing  44/coordinate 1 (+)>>>
             <<<Displacing  44/coordinate 2 (+)>>>
             <<<Displacing  44/coordinate 3 (+)>>>
             <<<Displacing  43/coordinate 3 (-)>>>
             <<<Displacing  45/coordinate 1 (+)>>>
             <<<Displacing  44/coordinate 1 (-)>>>
             <<<Displacing  44/coordinate 2 (-)>>>
             <<<Displacing  44/coordinate 3 (-)>>>
             <<<Displacing  45/coordinate 1 (-)>>>
             <<<Displacing  45/coordinate 2 (+)>>>
             <<<Displacing  45/coordinate 3 (+)>>>
             <<<Displacing  45/coordinate 2 (-)>>>
             <<<Displacing  45/coordinate 3 (-)>>>
             <<<Displacing  46/coordinate 1 (+)>>>
             <<<Displacing  46/coordinate 1 (-)>>>
             <<<Displacing  46/coordinate 3 (+)>>>
             <<<Displacing  46/coordinate 2 (+)>>>
             <<<Displacing  46/coordinate 3 (-)>>>
             <<<Displacing  46/coordinate 2 (-)>>>

-----------------------
VIBRATIONAL FREQUENCIES
-----------------------

Scaling factor for frequencies =  1.000000000 (already applied!)

   0:         0.00 cm**-1
   1:         0.00 cm**-1
   2:         0.00 cm**-1
   3:         0.00 cm**-1
   4:         0.00 cm**-1
   5:         0.00 cm**-1
   6:      -870.77 cm**-1 ***imaginary mode***
   7:        27.41 cm**-1
   8:        31.01 cm**-1
   9:        44.48 cm**-1
  10:        48.78 cm**-1
  11:        73.15 cm**-1
  12:        80.07 cm**-1
  13:        84.97 cm**-1
  14:        88.73 cm**-1
  15:       110.28 cm**-1
  16:       125.69 cm**-1
  17:       127.25 cm**-1
  18:       138.81 cm**-1
  19:       169.80 cm**-1
  20:       192.58 cm**-1
  21:       213.08 cm**-1
  22:       219.69 cm**-1
  23:       235.66 cm**-1
  24:       264.11 cm**-1
  25:       269.46 cm**-1
  26:       281.33 cm**-1
  27:       379.42 cm**-1
  28:       381.14 cm**-1
  29:       385.52 cm**-1
  30:       390.85 cm**-1
  31:       405.22 cm**-1
  32:       422.92 cm**-1
  33:       484.52 cm**-1
  34:       504.77 cm**-1
  35:       582.41 cm**-1
  36:       589.35 cm**-1
  37:       618.86 cm**-1
  38:       643.67 cm**-1
  39:       671.47 cm**-1
  40:       736.70 cm**-1
  41:       766.74 cm**-1
  42:       773.81 cm**-1
  43:       785.25 cm**-1
  44:       817.97 cm**-1
  45:       826.05 cm**-1
  46:       837.14 cm**-1
  47:       872.48 cm**-1
  48:       886.06 cm**-1
  49:       909.44 cm**-1
  50:       929.58 cm**-1
  51:       931.00 cm**-1
  52:       936.15 cm**-1
  53:       938.20 cm**-1
  54:       948.28 cm**-1
  55:       953.70 cm**-1
  56:       969.64 cm**-1
  57:       979.02 cm**-1
  58:      1003.70 cm**-1
  59:      1038.88 cm**-1
  60:      1058.55 cm**-1
  61:      1067.29 cm**-1
  62:      1078.10 cm**-1
  63:      1092.98 cm**-1
  64:      1097.46 cm**-1
  65:      1103.06 cm**-1
  66:      1107.45 cm**-1
  67:      1115.36 cm**-1
  68:      1128.03 cm**-1
  69:      1139.34 cm**-1
  70:      1152.74 cm**-1
  71:      1176.85 cm**-1
  72:      1184.36 cm**-1
  73:      1193.79 cm**-1
  74:      1196.99 cm**-1
  75:      1206.84 cm**-1
  76:      1232.47 cm**-1
  77:      1239.70 cm**-1
  78:      1246.43 cm**-1
  79:      1270.25 cm**-1
  80:      1270.85 cm**-1
  81:      1276.45 cm**-1
  82:      1277.16 cm**-1
  83:      1278.70 cm**-1
  84:      1283.68 cm**-1
  85:      1285.29 cm**-1
  86:      1298.61 cm**-1
  87:      1312.50 cm**-1
  88:      1341.79 cm**-1
  89:      1344.89 cm**-1
  90:      1372.94 cm**-1
  91:      1374.24 cm**-1
  92:      1403.21 cm**-1
  93:      1419.94 cm**-1
  94:      1428.48 cm**-1
  95:      1428.78 cm**-1
  96:      1455.73 cm**-1
  97:      1476.04 cm**-1
  98:      1479.89 cm**-1
  99:      1493.97 cm**-1
 100:      1499.68 cm**-1
 101:      1500.76 cm**-1
 102:      1503.73 cm**-1
 103:      1505.26 cm**-1
 104:      1506.25 cm**-1
 105:      1507.11 cm**-1
 106:      1509.40 cm**-1
 107:      1509.86 cm**-1
 108:      1512.06 cm**-1
 109:      1565.84 cm**-1
 110:      1571.82 cm**-1
 111:      2648.03 cm**-1
 112:      2884.20 cm**-1
 113:      2934.14 cm**-1
 114:      2941.72 cm**-1
 115:      2942.77 cm**-1
 116:      2948.27 cm**-1
 117:      2952.46 cm**-1
 118:      2966.16 cm**-1
 119:      2967.73 cm**-1
 120:      2970.51 cm**-1
 121:      2974.27 cm**-1
 122:      2979.90 cm**-1
 123:      2980.12 cm**-1
 124:      2981.11 cm**-1
 125:      2986.80 cm**-1
 126:      2987.52 cm**-1
 127:      2996.11 cm**-1
 128:      2999.40 cm**-1
 129:      3000.29 cm**-1
 130:      3015.20 cm**-1
 131:      3024.15 cm**-1
 132:      3046.06 cm**-1
 133:      3049.15 cm**-1
 134:      3062.40 cm**-1
 135:      3070.70 cm**-1
 136:      3358.67 cm**-1
 137:      3408.54 cm**-1


------------
NORMAL MODES
------------

These modes are the cartesian displacements weighted by the diagonal matrix
M(i,i)=1/sqrt(m[i]) where m[i] is the mass of the displaced atom
Thus, these vectors are normalized but *not* orthogonal

                  0          1          2          3          4          5    
      0       0.000000   0.000000   0.000000   0.000000   0.000000   0.000000
      1       0.000000   0.000000   0.000000   0.000000   0.000000   0.000000
      2       0.000000   0.000000   0.000000   0.000000   0.000000   0.000000
      3       0.000000   0.000000   0.000000   0.000000   0.000000   0.000000
      4       0.000000   0.000000   0.000000   0.000000   0.000000   0.000000
      5       0.000000   0.000000   0.000000   0.000000   0.000000   0.000000
      6       0.000000   0.000000   0.000000   0.000000   0.000000   0.000000
      7       0.000000   0.000000   0.000000   0.000000   0.000000   0.000000
      8       0.000000   0.000000   0.000000   0.000000   0.000000   0.000000
      9       0.000000   0.000000   0.000000   0.000000   0.000000   0.000000
     10       0.000000   0.000000   0.000000   0.000000   0.000000   0.000000
     11       0.000000   0.000000   0.000000   0.000000   0.000000   0.000000
     12       0.000000   0.000000   0.000000   0.000000   0.000000   0.000000
     13       0.000000   0.000000   0.000000   0.000000   0.000000   0.000000
     14       0.000000   0.000000   0.000000   0.000000   0.000000   0.000000
     15       0.000000   0.000000   0.000000   0.000000   0.000000   0.000000
     16       0.000000   0.000000   0.000000   0.000000   0.000000   0.000000
     17       0.000000   0.000000   0.000000   0.000000   0.000000   0.000000
     18       0.000000   0.000000   0.000000   0.000000   0.000000   0.000000
     19       0.000000   0.000000   0.000000   0.000000   0.000000   0.000000
     20       0.000000   0.000000   0.000000   0.000000   0.000000   0.000000
     21       0.000000   0.000000   0.000000   0.000000   0.000000   0.000000
     22       0.000000   0.000000   0.000000   0.000000   0.000000   0.000000
     23       0.000000   0.000000   0.000000   0.000000   0.000000   0.000000
     24       0.000000   0.000000   0.000000   0.000000   0.000000   0.000000
     25       0.000000   0.000000   0.000000   0.000000   0.000000   0.000000
     26       0.000000   0.000000   0.000000   0.000000   0.000000   0.000000
     27       0.000000   0.000000   0.000000   0.000000   0.000000   0.000000
     28       0.000000   0.000000   0.000000   0.000000   0.000000   0.000000
     29       0.000000   0.000000   0.000000   0.000000   0.000000   0.000000
     30       0.000000   0.000000   0.000000   0.000000   0.000000   0.000000
     31       0.000000   0.000000   0.000000   0.000000   0.000000   0.000000
     32       0.000000   0.000000   0.000000   0.000000   0.000000   0.000000
     33       0.000000   0.000000   0.000000   0.000000   0.000000   0.000000
     34       0.000000   0.000000   0.000000   0.000000   0.000000   0.000000
     35       0.000000   0.000000   0.000000   0.000000   0.000000   0.000000
     36       0.000000   0.000000   0.000000   0.000000   0.000000   0.000000
     37       0.000000   0.000000   0.000000   0.000000   0.000000   0.000000
     38       0.000000   0.000000   0.000000   0.000000   0.000000   0.000000
     39       0.000000   0.000000   0.000000   0.000000   0.000000   0.000000
     40       0.000000   0.000000   0.000000   0.000000   0.000000   0.000000
     41       0.000000   0.000000   0.000000   0.000000   0.000000   0.000000
     42       0.000000   0.000000   0.000000   0.000000   0.000000   0.000000
     43       0.000000   0.000000   0.000000   0.000000   0.000000   0.000000
     44       0.000000   0.000000   0.000000   0.000000   0.000000   0.000000
     45       0.000000   0.000000   0.000000   0.000000   0.000000   0.000000
     46       0.000000   0.000000   0.000000   0.000000   0.000000   0.000000
     47       0.000000   0.000000   0.000000   0.000000   0.000000   0.000000
     48       0.000000   0.000000   0.000000   0.000000   0.000000   0.000000
     49       0.000000   0.000000   0.000000   0.000000   0.000000   0.000000
     50       0.000000   0.000000   0.000000   0.000000   0.000000   0.000000
     51       0.000000   0.000000   0.000000   0.000000   0.000000   0.000000
     52       0.000000   0.000000   0.000000   0.000000   0.000000   0.000000
     53       0.000000   0.000000   0.000000   0.000000   0.000000   0.000000
     54       0.000000   0.000000   0.000000   0.000000   0.000000   0.000000
     55       0.000000   0.000000   0.000000   0.000000   0.000000   0.000000
     56       0.000000   0.000000   0.000000   0.000000   0.000000   0.000000
     57       0.000000   0.000000   0.000000   0.000000   0.000000   0.000000
     58       0.000000   0.000000   0.000000   0.000000   0.000000   0.000000
     59       0.000000   0.000000   0.000000   0.000000   0.000000   0.000000
     60       0.000000   0.000000   0.000000   0.000000   0.000000   0.000000
     61       0.000000   0.000000   0.000000   0.000000   0.000000   0.000000
     62       0.000000   0.000000   0.000000   0.000000   0.000000   0.000000
     63       0.000000   0.000000   0.000000   0.000000   0.000000   0.000000
     64       0.000000   0.000000   0.000000   0.000000   0.000000   0.000000
     65       0.000000   0.000000   0.000000   0.000000   0.000000   0.000000
     66       0.000000   0.000000   0.000000   0.000000   0.000000   0.000000
     67       0.000000   0.000000   0.000000   0.000000   0.000000   0.000000
     68       0.000000   0.000000   0.000000   0.000000   0.000000   0.000000
     69       0.000000   0.000000   0.000000   0.000000   0.000000   0.000000
     70       0.000000   0.000000   0.000000   0.000000   0.000000   0.000000
     71       0.000000   0.000000   0.000000   0.000000   0.000000   0.000000
     72       0.000000   0.000000   0.000000   0.000000   0.000000   0.000000
     73       0.000000   0.000000   0.000000   0.000000   0.000000   0.000000
     74       0.000000   0.000000   0.000000   0.000000   0.000000   0.000000
     75       0.000000   0.000000   0.000000   0.000000   0.000000   0.000000
     76       0.000000   0.000000   0.000000   0.000000   0.000000   0.000000
     77       0.000000   0.000000   0.000000   0.000000   0.000000   0.000000
     78       0.000000   0.000000   0.000000   0.000000   0.000000   0.000000
     79       0.000000   0.000000   0.000000   0.000000   0.000000   0.000000
     80       0.000000   0.000000   0.000000   0.000000   0.000000   0.000000
     81       0.000000   0.000000   0.000000   0.000000   0.000000   0.000000
     82       0.000000   0.000000   0.000000   0.000000   0.000000   0.000000
     83       0.000000   0.000000   0.000000   0.000000   0.000000   0.000000
     84       0.000000   0.000000   0.000000   0.000000   0.000000   0.000000
     85       0.000000   0.000000   0.000000   0.000000   0.000000   0.000000
     86       0.000000   0.000000   0.000000   0.000000   0.000000   0.000000
     87       0.000000   0.000000   0.000000   0.000000   0.000000   0.000000
     88       0.000000   0.000000   0.000000   0.000000   0.000000   0.000000
     89       0.000000   0.000000   0.000000   0.000000   0.000000   0.000000
     90       0.000000   0.000000   0.000000   0.000000   0.000000   0.000000
     91       0.000000   0.000000   0.000000   0.000000   0.000000   0.000000
     92       0.000000   0.000000   0.000000   0.000000   0.000000   0.000000
     93       0.000000   0.000000   0.000000   0.000000   0.000000   0.000000
     94       0.000000   0.000000   0.000000   0.000000   0.000000   0.000000
     95       0.000000   0.000000   0.000000   0.000000   0.000000   0.000000
     96       0.000000   0.000000   0.000000   0.000000   0.000000   0.000000
     97       0.000000   0.000000   0.000000   0.000000   0.000000   0.000000
     98       0.000000   0.000000   0.000000   0.000000   0.000000   0.000000
     99       0.000000   0.000000   0.000000   0.000000   0.000000   0.000000
    100       0.000000   0.000000   0.000000   0.000000   0.000000   0.000000
    101       0.000000   0.000000   0.000000   0.000000   0.000000   0.000000
    102       0.000000   0.000000   0.000000   0.000000   0.000000   0.000000
    103       0.000000   0.000000   0.000000   0.000000   0.000000   0.000000
    104       0.000000   0.000000   0.000000   0.000000   0.000000   0.000000
    105       0.000000   0.000000   0.000000   0.000000   0.000000   0.000000
    106       0.000000   0.000000   0.000000   0.000000   0.000000   0.000000
    107       0.000000   0.000000   0.000000   0.000000   0.000000   0.000000
    108       0.000000   0.000000   0.000000   0.000000   0.000000   0.000000
    109       0.000000   0.000000   0.000000   0.000000   0.000000   0.000000
    110       0.000000   0.000000   0.000000   0.000000   0.000000   0.000000
    111       0.000000   0.000000   0.000000   0.000000   0.000000   0.000000
    112       0.000000   0.000000   0.000000   0.000000   0.000000   0.000000
    113       0.000000   0.000000   0.000000   0.000000   0.000000   0.000000
    114       0.000000   0.000000   0.000000   0.000000   0.000000   0.000000
    115       0.000000   0.000000   0.000000   0.000000   0.000000   0.000000
    116       0.000000   0.000000   0.000000   0.000000   0.000000   0.000000
    117       0.000000   0.000000   0.000000   0.000000   0.000000   0.000000
    118       0.000000   0.000000   0.000000   0.000000   0.000000   0.000000
    119       0.000000   0.000000   0.000000   0.000000   0.000000   0.000000
    120       0.000000   0.000000   0.000000   0.000000   0.000000   0.000000
    121       0.000000   0.000000   0.000000   0.000000   0.000000   0.000000
    122       0.000000   0.000000   0.000000   0.000000   0.000000   0.000000
    123       0.000000   0.000000   0.000000   0.000000   0.000000   0.000000
    124       0.000000   0.000000   0.000000   0.000000   0.000000   0.000000
    125       0.000000   0.000000   0.000000   0.000000   0.000000   0.000000
    126       0.000000   0.000000   0.000000   0.000000   0.000000   0.000000
    127       0.000000   0.000000   0.000000   0.000000   0.000000   0.000000
    128       0.000000   0.000000   0.000000   0.000000   0.000000   0.000000
    129       0.000000   0.000000   0.000000   0.000000   0.000000   0.000000
    130       0.000000   0.000000   0.000000   0.000000   0.000000   0.000000
    131       0.000000   0.000000   0.000000   0.000000   0.000000   0.000000
    132       0.000000   0.000000   0.000000   0.000000   0.000000   0.000000
    133       0.000000   0.000000   0.000000   0.000000   0.000000   0.000000
    134       0.000000   0.000000   0.000000   0.000000   0.000000   0.000000
    135       0.000000   0.000000   0.000000   0.000000   0.000000   0.000000
    136       0.000000   0.000000   0.000000   0.000000   0.000000   0.000000
    137       0.000000   0.000000   0.000000   0.000000   0.000000   0.000000
                  6          7          8          9         10         11    
      0      -0.000767  -0.003342   0.007887   0.013763  -0.149752   0.031648
      1      -0.000401  -0.090536   0.123528  -0.064077   0.028149  -0.031905
      2       0.000564  -0.053620   0.034690  -0.007634   0.081785  -0.044857
      3      -0.002092   0.000824   0.021114   0.017136  -0.083324  -0.016206
      4      -0.001676  -0.056993   0.090750  -0.042295  -0.017348  -0.070388
      5       0.000937  -0.040800   0.030296   0.001232   0.098080  -0.079793
      6       0.003378   0.003668   0.031683   0.022585  -0.022465  -0.028541
      7       0.000282  -0.028981   0.064838  -0.016431  -0.030683  -0.016214
      8      -0.002021  -0.023190   0.003874   0.014843   0.041470  -0.031997
      9       0.001973   0.002310   0.028441   0.024001  -0.030885   0.004955
     10       0.001387  -0.037667   0.072046  -0.014348   0.003839   0.074269
     11      -0.000181  -0.021036  -0.017836   0.017929  -0.029756   0.049843
     12       0.000729  -0.001787   0.015623   0.020203  -0.097711   0.052086
     13      -0.000373  -0.071978   0.105514  -0.037116   0.048691   0.111347
     14      -0.000628  -0.034404  -0.012848   0.008733  -0.046935   0.084680
     15      -0.000834  -0.004221   0.005305   0.015025  -0.157233   0.066555
     16       0.000123  -0.097925   0.131381  -0.061513   0.060438   0.060616
     17       0.000464  -0.050285   0.013182  -0.003922   0.008885   0.038172
     18      -0.000431   0.001451   0.022538   0.015970  -0.078403  -0.044175
     19      -0.000145  -0.051074   0.082741  -0.044723  -0.044686  -0.140983
     20      -0.001078  -0.043797   0.047825  -0.002650   0.155338  -0.144807
     21      -0.001313   0.005681   0.036073   0.028848   0.015824  -0.009189
     22      -0.001964  -0.013197   0.049462   0.006436  -0.007598   0.112641
     23      -0.000997  -0.007394  -0.038214   0.027760  -0.072375   0.085437
     24       0.000299  -0.006727  -0.004925   0.011961  -0.208965   0.103723
     25      -0.000322  -0.123142   0.156425  -0.077937   0.093935   0.091196
     26       0.001259  -0.059735   0.016435  -0.010702  -0.004762   0.065799
     27       0.003691   0.014321   0.068058   0.031801   0.050230  -0.022460
     28      -0.049860  -0.006209   0.006810  -0.003711  -0.099307  -0.073491
     29      -0.004485   0.014874  -0.023050   0.056099   0.060229  -0.064627
     30      -0.484833   0.038760   0.090306   0.037705   0.041054   0.004134
     31       0.811801  -0.009099  -0.007758   0.004706  -0.097758  -0.050868
     32       0.051561   0.037581  -0.000510   0.063990   0.083124   0.003580
     33      -0.008620   0.023366   0.055226   0.033180   0.003543  -0.029430
     34      -0.015721  -0.000945  -0.019071   0.014745  -0.032374  -0.075659
     35       0.009034   0.023767  -0.039789   0.060145   0.027205  -0.071282
     36      -0.016567   0.049175   0.089230   0.075880  -0.014881   0.007840
     37      -0.008611  -0.017869  -0.035494  -0.013176  -0.026190  -0.097833
     38       0.038918   0.055720  -0.043871   0.113901   0.050965  -0.037074
     39      -0.002244   0.028138   0.038252   0.026435  -0.041771  -0.033148
     40      -0.002010   0.043214   0.003379   0.091023  -0.003708  -0.020658
     41       0.003866   0.022345  -0.029012   0.066199   0.054399  -0.066997
     42       0.029201   0.005551   0.076000   0.029010   0.084623  -0.014398
     43      -0.136506  -0.025504   0.004094  -0.028189  -0.132352  -0.111467
     44      -0.056129   0.013740  -0.027816   0.049814   0.031312  -0.080583
     45      -0.006115   0.016366   0.052925   0.081142   0.059485   0.030136
     46      -0.028656  -0.006362  -0.012401   0.041077  -0.094738  -0.017497
     47      -0.012922   0.083497   0.031618   0.003367   0.059363   0.041861
     48       0.011718  -0.035267   0.004920   0.176602   0.092675   0.064771
     49      -0.035104   0.015798   0.029251   0.010521  -0.107774  -0.014631
     50      -0.036169   0.088171   0.064357   0.008266   0.057237   0.061258
     51       0.059924   0.014894   0.085104   0.081120   0.057564  -0.001545
     52      -0.223400  -0.009968  -0.021123   0.064274  -0.081264   0.023713
     53      -0.058930   0.085237   0.006405  -0.022033   0.047646   0.021433
     54      -0.001891   0.042805   0.019512   0.003043   0.046435   0.024428
     55      -0.004287  -0.053602  -0.105731   0.116352  -0.058557  -0.010442
     56       0.008572   0.116366   0.046778  -0.069574   0.038523   0.038081
     57      -0.013642   0.241846   0.145612  -0.187811   0.036280  -0.009295
     58       0.008200  -0.078817  -0.151531   0.153924  -0.040372  -0.006166
     59       0.015019   0.193881   0.046607  -0.121542   0.062337   0.024480
     60       0.025195  -0.079674  -0.061140   0.116382   0.052551   0.043976
     61      -0.013221  -0.226832  -0.223554   0.248733  -0.062628   0.013723
     62      -0.049151   0.161087   0.067833  -0.169810   0.010389   0.022701
     63       0.052762   0.003876   0.044345   0.030781   0.045975  -0.065165
     64       0.032085   0.010805   0.023410   0.008193  -0.089546  -0.029044
     65       0.024532  -0.009225  -0.003456   0.026687   0.051400  -0.053283
     66      -0.060209  -0.002488   0.023220   0.030233   0.043463  -0.106313
     67      -0.025977   0.022352   0.003142   0.012805  -0.116101  -0.041050
     68      -0.022415  -0.040281   0.016045   0.015280   0.103464  -0.082125
     69      -0.012267   0.002833   0.058418   0.041817   0.089218  -0.074632
     70       0.039858   0.040881   0.025467   0.025583  -0.096597   0.009307
     71       0.003935   0.011086  -0.015789   0.028031   0.006248  -0.018627
     72       0.001298  -0.030859  -0.079922   0.013285   0.042061   0.018323
     73      -0.000844   0.155598   0.007521  -0.022103  -0.033754  -0.034015
     74      -0.003856  -0.008388   0.040317   0.052923   0.018953   0.066967
     75      -0.001753  -0.241521  -0.219812   0.238747   0.066007   0.104786
     76       0.004757   0.190788   0.068265  -0.086628  -0.064074  -0.073520
     77       0.006247  -0.079443   0.051047   0.087068  -0.013934   0.056974
     78      -0.001501   0.098638   0.010171  -0.119365   0.028351  -0.031716
     79       0.000245   0.330311   0.129675  -0.163851  -0.035423  -0.074400
     80       0.004834  -0.062706   0.004027   0.193548   0.063036   0.148669
     81       0.007367  -0.006209   0.016890  -0.011891   0.034562  -0.061920
     82      -0.000365  -0.029421  -0.056725  -0.027775   0.003004  -0.107516
     83      -0.008141  -0.004312  -0.062062  -0.015500  -0.079801  -0.111848
     84      -0.000957  -0.032629  -0.019621  -0.055522   0.063625  -0.075777
     85      -0.001740  -0.014119  -0.040417  -0.004020  -0.002474  -0.076225
     86       0.001103  -0.024884  -0.050175  -0.037301  -0.148806  -0.311686
     87      -0.002212  -0.003099   0.037948   0.019607   0.055297  -0.175991
     88      -0.000225  -0.065253  -0.073466  -0.085947  -0.056906  -0.264749
     89       0.000608  -0.006540  -0.073873  -0.033611  -0.091845  -0.050514
     90       0.000154  -0.002282   0.013697   0.020997  -0.103190   0.077304
     91      -0.001580  -0.077201   0.110934  -0.035502   0.073326   0.180994
     92      -0.001111  -0.032008  -0.029777   0.011970  -0.103380   0.147995
     93       0.000566  -0.005705  -0.000276   0.009768  -0.195007   0.040926
     94      -0.001548  -0.110449   0.142503  -0.082813   0.037183  -0.073681
     95       0.000082  -0.065878   0.054682  -0.017603   0.125148  -0.082080
     96      -0.001428   0.005485  -0.112609  -0.104249   0.024269  -0.048457
     97      -0.000598   0.087727  -0.123851   0.116061   0.037148   0.055944
     98      -0.000801   0.035658   0.069426  -0.059571  -0.015964  -0.000101
     99       0.001610   0.167258   0.003099  -0.298455   0.003248  -0.124799
    100       0.000953   0.052657  -0.185503   0.181434   0.068422   0.096541
    101       0.000785   0.080119   0.043264  -0.075989   0.020544   0.017034
    102       0.001043  -0.093458  -0.187174   0.009563   0.036418  -0.005419
    103       0.001154  -0.040022  -0.222174   0.227971   0.036133   0.083288
    104       0.001298   0.092049   0.107192  -0.202686  -0.060009  -0.087917
    105       0.003022  -0.004254   0.000348  -0.042010   0.003737   0.086709
    106      -0.001483  -0.032225  -0.095844  -0.028075   0.132278   0.037001
    107      -0.001899  -0.003145  -0.084376  -0.042385  -0.083365   0.047450
    108       0.000894  -0.005597  -0.017809  -0.072036  -0.013699   0.216231
    109      -0.000578  -0.009551  -0.091511   0.010291   0.174612   0.135490
    110      -0.002285  -0.002053  -0.074143  -0.025122  -0.072953  -0.023164
    111       0.000907   0.014045   0.029087  -0.009588  -0.040273   0.053681
    112       0.000623  -0.042377  -0.107224  -0.044496   0.146045   0.032539
    113       0.000015   0.009202  -0.103812  -0.033462  -0.021989   0.221387
    114      -0.000097  -0.040484  -0.196851  -0.114155   0.019618  -0.074793
    115      -0.000498   0.227641  -0.047873   0.025612   0.068260   0.058257
    116      -0.001393  -0.049151   0.083998   0.035834  -0.040612   0.024689
    117      -0.000207   0.045647  -0.136243  -0.210367   0.013499  -0.109481
    118       0.000351   0.342711   0.037261  -0.068529   0.074941   0.040782
    119       0.000250  -0.087264   0.065087   0.144014  -0.009608   0.095014
    120       0.000303  -0.020700  -0.223099  -0.183525   0.012358  -0.117975
    121      -0.001449   0.191623  -0.122990   0.096052   0.106408   0.104979
    122      -0.001468  -0.025502   0.094734  -0.027964  -0.057872  -0.016008
    123       0.000085  -0.179887  -0.292680   0.044255   0.029840  -0.016754
    124       0.000361   0.251770  -0.001676  -0.018349   0.046007   0.030286
    125       0.000972  -0.096902   0.102258   0.061528  -0.072451   0.013614
    126       0.002168  -0.023751  -0.028559  -0.073842   0.054506   0.113365
    127      -0.000277  -0.051401  -0.124898  -0.058130   0.186889   0.062517
    128      -0.001498  -0.019113  -0.093605  -0.102311  -0.178287   0.074193
    129       0.004101  -0.022948  -0.034785  -0.091586   0.025294   0.185255
    130      -0.002679  -0.054030  -0.146549  -0.056477   0.267611   0.133987
    131      -0.001274  -0.018978  -0.103658  -0.117145  -0.185607   0.151462
    132      -0.000124  -0.041237  -0.055477  -0.105244   0.096549   0.148029
    133      -0.000382  -0.042249  -0.114593  -0.042525   0.175146   0.063155
    134       0.000655  -0.028982  -0.082444  -0.114344  -0.225097  -0.036275
    135      -0.000411  -0.021125  -0.016226  -0.047914   0.078508   0.026752
    136      -0.000216  -0.071716  -0.134232  -0.097170   0.157801   0.009467
    137       0.000761  -0.021060  -0.101275  -0.118728  -0.193354   0.126039
                 12         13         14         15         16         17    
      0       0.014202  -0.039232  -0.013175  -0.005026   0.060026  -0.028230
      1       0.064178  -0.120460  -0.001107  -0.000756   0.111049  -0.044919
      2       0.005265  -0.048887   0.046451   0.006788   0.013515   0.004512
      3       0.015758  -0.039241  -0.008055   0.006001   0.000085  -0.014081
      4       0.060781  -0.127836   0.054239  -0.004785  -0.022314   0.016310
      5       0.004904  -0.051316   0.066395   0.010439  -0.057304   0.030300
      6       0.000518  -0.003292  -0.025453   0.014655  -0.044001  -0.006279
      7       0.004736  -0.014007   0.021601  -0.005247  -0.117586   0.048115
      8      -0.022234   0.001119   0.056188   0.003618  -0.089815   0.046613
      9      -0.015053   0.031586  -0.046579   0.013783  -0.040950  -0.008181
     10      -0.049477   0.114155  -0.062621   0.001162  -0.126476   0.041137
     11      -0.049240   0.056532   0.032944  -0.006032  -0.073161   0.051675
     12      -0.016977   0.032846  -0.052450   0.003196   0.013994  -0.020616
     13      -0.047698   0.126472  -0.119680   0.005794  -0.008771  -0.013353
     14      -0.049877   0.061166   0.011863  -0.009982  -0.008364   0.028262
     15      -0.002269  -0.002242  -0.037389  -0.006198   0.069717  -0.033257
     16       0.009388   0.007750  -0.093347   0.003737   0.130611  -0.067113
     17      -0.022401   0.007681   0.017881  -0.003853   0.043104   0.001361
     18       0.028809  -0.067239   0.009973   0.006844  -0.005726  -0.010574
     19       0.099965  -0.215832   0.115169  -0.007685  -0.034325   0.030074
     20       0.027657  -0.096396   0.089951   0.018702  -0.076389   0.033325
     21      -0.022980   0.052757  -0.057039   0.021048  -0.069568  -0.006147
     22      -0.089771   0.194721  -0.079513   0.001363  -0.196454   0.066111
     23      -0.069663   0.093212   0.029698  -0.011246  -0.097359   0.066350
     24      -0.003212  -0.001852  -0.042594  -0.014335   0.118749  -0.045319
     25       0.011130   0.014678  -0.141164   0.005803   0.246276  -0.121734
     26      -0.022249   0.010122  -0.000163  -0.007044   0.104358  -0.022275
[...]
  13:        84.97    0.000000  (  0.000000   0.000000   0.000000)
  14:        88.73    0.000000  (  0.000000   0.000000   0.000000)
  15:       110.28    0.000000  (  0.000000   0.000000   0.000000)
  16:       125.69    0.000000  (  0.000000   0.000000   0.000000)
  17:       127.25    0.000000  (  0.000000   0.000000   0.000000)
  18:       138.81    0.000000  (  0.000000   0.000000   0.000000)
  19:       169.80    0.000000  (  0.000000   0.000000   0.000000)
  20:       192.58    0.000000  (  0.000000   0.000000   0.000000)
  21:       213.08    0.000000  (  0.000000   0.000000   0.000000)
  22:       219.69    0.000000  (  0.000000   0.000000   0.000000)
  23:       235.66    0.000000  (  0.000000   0.000000   0.000000)
  24:       264.11    0.000000  (  0.000000   0.000000   0.000000)
  25:       269.46    0.000000  (  0.000000   0.000000   0.000000)
  26:       281.33    0.000000  (  0.000000   0.000000   0.000000)
  27:       379.42    0.000000  (  0.000000   0.000000   0.000000)
  28:       381.14    0.000000  (  0.000000   0.000000   0.000000)
  29:       385.52    0.000000  (  0.000000   0.000000   0.000000)
  30:       390.85    0.000000  (  0.000000   0.000000   0.000000)
  31:       405.22    0.000000  (  0.000000   0.000000   0.000000)
  32:       422.92    0.000000  (  0.000000   0.000000   0.000000)
  33:       484.52    0.000000  (  0.000000   0.000000   0.000000)
  34:       504.77    0.000000  (  0.000000   0.000000   0.000000)
  35:       582.41    0.000000  (  0.000000   0.000000   0.000000)
  36:       589.35    0.000000  (  0.000000   0.000000   0.000000)
  37:       618.86    0.000000  (  0.000000   0.000000   0.000000)
  38:       643.67    0.000000  (  0.000000   0.000000   0.000000)
  39:       671.47    0.000000  (  0.000000   0.000000   0.000000)
  40:       736.70    0.000000  (  0.000000   0.000000   0.000000)
  41:       766.74    0.000000  (  0.000000   0.000000   0.000000)
  42:       773.81    0.000000  (  0.000000   0.000000   0.000000)
  43:       785.25    0.000000  (  0.000000   0.000000   0.000000)
  44:       817.97    0.000000  (  0.000000   0.000000   0.000000)
  45:       826.05    0.000000  (  0.000000   0.000000   0.000000)
  46:       837.14    0.000000  (  0.000000   0.000000   0.000000)
  47:       872.48    0.000000  (  0.000000   0.000000   0.000000)
  48:       886.06    0.000000  (  0.000000   0.000000   0.000000)
  49:       909.44    0.000000  (  0.000000   0.000000   0.000000)
  50:       929.58    0.000000  (  0.000000   0.000000   0.000000)
  51:       931.00    0.000000  (  0.000000   0.000000   0.000000)
  52:       936.15    0.000000  (  0.000000   0.000000   0.000000)
  53:       938.20    0.000000  (  0.000000   0.000000   0.000000)
  54:       948.28    0.000000  (  0.000000   0.000000   0.000000)
  55:       953.70    0.000000  (  0.000000   0.000000   0.000000)
  56:       969.64    0.000000  (  0.000000   0.000000   0.000000)
  57:       979.02    0.000000  (  0.000000   0.000000   0.000000)
  58:      1003.70    0.000000  (  0.000000   0.000000   0.000000)
  59:      1038.88    0.000000  (  0.000000   0.000000   0.000000)
  60:      1058.55    0.000000  (  0.000000   0.000000   0.000000)
  61:      1067.29    0.000000  (  0.000000   0.000000   0.000000)
  62:      1078.10    0.000000  (  0.000000   0.000000   0.000000)
  63:      1092.98    0.000000  (  0.000000   0.000000   0.000000)
  64:      1097.46    0.000000  (  0.000000   0.000000   0.000000)
  65:      1103.06    0.000000  (  0.000000   0.000000   0.000000)
  66:      1107.45    0.000000  (  0.000000   0.000000   0.000000)
  67:      1115.36    0.000000  (  0.000000   0.000000   0.000000)
  68:      1128.03    0.000000  (  0.000000   0.000000   0.000000)
  69:      1139.34    0.000000  (  0.000000   0.000000   0.000000)
  70:      1152.74    0.000000  (  0.000000   0.000000   0.000000)
  71:      1176.85    0.000000  (  0.000000   0.000000   0.000000)
  72:      1184.36    0.000000  (  0.000000   0.000000   0.000000)
  73:      1193.79    0.000000  (  0.000000   0.000000   0.000000)
  74:      1196.99    0.000000  (  0.000000   0.000000   0.000000)
  75:      1206.84    0.000000  (  0.000000   0.000000   0.000000)
  76:      1232.47    0.000000  (  0.000000   0.000000   0.000000)
  77:      1239.70    0.000000  (  0.000000   0.000000   0.000000)
  78:      1246.43    0.000000  (  0.000000   0.000000   0.000000)
  79:      1270.25    0.000000  (  0.000000   0.000000   0.000000)
  80:      1270.85    0.000000  (  0.000000   0.000000   0.000000)
  81:      1276.45    0.000000  (  0.000000   0.000000   0.000000)
  82:      1277.16    0.000000  (  0.000000   0.000000   0.000000)
  83:      1278.70    0.000000  (  0.000000   0.000000   0.000000)
  84:      1283.68    0.000000  (  0.000000   0.000000   0.000000)
  85:      1285.29    0.000000  (  0.000000   0.000000   0.000000)
  86:      1298.61    0.000000  (  0.000000   0.000000   0.000000)
  87:      1312.50    0.000000  (  0.000000   0.000000   0.000000)
  88:      1341.79    0.000000  (  0.000000   0.000000   0.000000)
  89:      1344.89    0.000000  (  0.000000   0.000000   0.000000)
  90:      1372.94    0.000000  (  0.000000   0.000000   0.000000)
  91:      1374.24    0.000000  (  0.000000   0.000000   0.000000)
  92:      1403.21    0.000000  (  0.000000   0.000000   0.000000)
  93:      1419.94    0.000000  (  0.000000   0.000000   0.000000)
  94:      1428.48    0.000000  (  0.000000   0.000000   0.000000)
  95:      1428.78    0.000000  (  0.000000   0.000000   0.000000)
  96:      1455.73    0.000000  (  0.000000   0.000000   0.000000)
  97:      1476.04    0.000000  (  0.000000   0.000000   0.000000)
  98:      1479.89    0.000000  (  0.000000   0.000000   0.000000)
  99:      1493.97    0.000000  (  0.000000   0.000000   0.000000)
 100:      1499.68    0.000000  (  0.000000   0.000000   0.000000)
 101:      1500.76    0.000000  (  0.000000   0.000000   0.000000)
 102:      1503.73    0.000000  (  0.000000   0.000000   0.000000)
 103:      1505.26    0.000000  (  0.000000   0.000000   0.000000)
 104:      1506.25    0.000000  (  0.000000   0.000000   0.000000)
 105:      1507.11    0.000000  (  0.000000   0.000000   0.000000)
 106:      1509.40    0.000000  (  0.000000   0.000000   0.000000)
 107:      1509.86    0.000000  (  0.000000   0.000000   0.000000)
 108:      1512.06    0.000000  (  0.000000   0.000000   0.000000)
 109:      1565.84    0.000000  (  0.000000   0.000000   0.000000)
 110:      1571.82    0.000000  (  0.000000   0.000000   0.000000)
 111:      2648.03    0.000000  (  0.000000   0.000000   0.000000)
 112:      2884.20    0.000000  (  0.000000   0.000000   0.000000)
 113:      2934.14    0.000000  (  0.000000   0.000000   0.000000)
 114:      2941.72    0.000000  (  0.000000   0.000000   0.000000)
 115:      2942.77    0.000000  (  0.000000   0.000000   0.000000)
 116:      2948.27    0.000000  (  0.000000   0.000000   0.000000)
 117:      2952.46    0.000000  (  0.000000   0.000000   0.000000)
 118:      2966.16    0.000000  (  0.000000   0.000000   0.000000)
 119:      2967.73    0.000000  (  0.000000   0.000000   0.000000)
 120:      2970.51    0.000000  (  0.000000   0.000000   0.000000)
 121:      2974.27    0.000000  (  0.000000   0.000000   0.000000)
 122:      2979.90    0.000000  (  0.000000   0.000000   0.000000)
 123:      2980.12    0.000000  (  0.000000   0.000000   0.000000)
 124:      2981.11    0.000000  (  0.000000   0.000000   0.000000)
 125:      2986.80    0.000000  (  0.000000   0.000000   0.000000)
 126:      2987.52    0.000000  (  0.000000   0.000000   0.000000)
 127:      2996.11    0.000000  (  0.000000   0.000000   0.000000)
 128:      2999.40    0.000000  (  0.000000   0.000000   0.000000)
 129:      3000.29    0.000000  (  0.000000   0.000000   0.000000)
 130:      3015.20    0.000000  (  0.000000   0.000000   0.000000)
 131:      3024.15    0.000000  (  0.000000   0.000000   0.000000)
 132:      3046.06    0.000000  (  0.000000   0.000000   0.000000)
 133:      3049.15    0.000000  (  0.000000   0.000000   0.000000)
 134:      3062.40    0.000000  (  0.000000   0.000000   0.000000)
 135:      3070.70    0.000000  (  0.000000   0.000000   0.000000)
 136:      3358.67    0.000000  (  0.000000   0.000000   0.000000)
 137:      3408.54    0.000000  (  0.000000   0.000000   0.000000)

The first frequency considered to be a vibration is 7
The total number of vibrations considered is 131


--------------------------
THERMOCHEMISTRY AT 298.15K
--------------------------

Temperature         ... 298.15 K
Pressure            ... 1.00 atm
Total Mass          ... 252.40 AMU

Throughout the following assumptions are being made:
  (1) The electronic state is orbitally nondegenerate
  (2) There are no thermally accessible electronically excited states
  (3) Hindered rotations indicated by low frequency modes are not
      treated as such but are treated as vibrations and this may
      cause some error
  (4) All equations used are the standard statistical mechanics
      equations for an ideal gas
  (5) All vibrations are strictly harmonic

freq.      27.41  E(vib)   ...       0.55 
freq.      31.01  E(vib)   ...       0.55 
freq.      44.48  E(vib)   ...       0.53 
freq.      48.78  E(vib)   ...       0.53 
freq.      73.15  E(vib)   ...       0.49 
freq.      80.07  E(vib)   ...       0.49 
freq.      84.97  E(vib)   ...       0.48 
freq.      88.73  E(vib)   ...       0.47 
freq.     110.28  E(vib)   ...       0.45 
freq.     125.69  E(vib)   ...       0.43 
freq.     127.25  E(vib)   ...       0.43 
freq.     138.81  E(vib)   ...       0.42 
freq.     169.80  E(vib)   ...       0.38 
freq.     192.58  E(vib)   ...       0.36 
freq.     213.08  E(vib)   ...       0.34 
freq.     219.69  E(vib)   ...       0.33 
freq.     235.66  E(vib)   ...       0.32 
freq.     264.11  E(vib)   ...       0.29 
freq.     269.46  E(vib)   ...       0.29 
freq.     281.33  E(vib)   ...       0.28 
freq.     379.42  E(vib)   ...       0.21 
freq.     381.14  E(vib)   ...       0.21 
freq.     385.52  E(vib)   ...       0.20 
freq.     390.85  E(vib)   ...       0.20 
freq.     405.22  E(vib)   ...       0.19 
freq.     422.92  E(vib)   ...       0.18 
freq.     484.52  E(vib)   ...       0.15 
freq.     504.77  E(vib)   ...       0.14 
freq.     582.41  E(vib)   ...       0.11 
freq.     589.35  E(vib)   ...       0.10 
freq.     618.86  E(vib)   ...       0.09 
freq.     643.67  E(vib)   ...       0.09 
freq.     671.47  E(vib)   ...       0.08 
freq.     736.70  E(vib)   ...       0.06 
freq.     766.74  E(vib)   ...       0.06 
freq.     773.81  E(vib)   ...       0.05 
freq.     785.25  E(vib)   ...       0.05 
freq.     817.97  E(vib)   ...       0.05 
freq.     826.05  E(vib)   ...       0.04 
freq.     837.14  E(vib)   ...       0.04 
freq.     872.48  E(vib)   ...       0.04 
freq.     886.06  E(vib)   ...       0.04 
freq.     909.44  E(vib)   ...       0.03 
freq.     929.58  E(vib)   ...       0.03 
freq.     931.00  E(vib)   ...       0.03 
freq.     936.15  E(vib)   ...       0.03 
freq.     938.20  E(vib)   ...       0.03 
freq.     948.28  E(vib)   ...       0.03 
freq.     953.70  E(vib)   ...       0.03 
freq.     969.64  E(vib)   ...       0.03 
freq.     979.02  E(vib)   ...       0.03 
freq.    1003.70  E(vib)   ...       0.02 
freq.    1038.88  E(vib)   ...       0.02 
freq.    1058.55  E(vib)   ...       0.02 
freq.    1067.29  E(vib)   ...       0.02 
freq.    1078.10  E(vib)   ...       0.02 
freq.    1092.98  E(vib)   ...       0.02 
freq.    1097.46  E(vib)   ...       0.02 
freq.    1103.06  E(vib)   ...       0.02 
freq.    1107.45  E(vib)   ...       0.02 
freq.    1115.36  E(vib)   ...       0.01 
freq.    1128.03  E(vib)   ...       0.01 
freq.    1139.34  E(vib)   ...       0.01 
freq.    1152.74  E(vib)   ...       0.01 
freq.    1176.85  E(vib)   ...       0.01 
freq.    1184.36  E(vib)   ...       0.01 
freq.    1193.79  E(vib)   ...       0.01 
freq.    1196.99  E(vib)   ...       0.01 
freq.    1206.84  E(vib)   ...       0.01 
freq.    1232.47  E(vib)   ...       0.01 
freq.    1239.70  E(vib)   ...       0.01 
freq.    1246.43  E(vib)   ...       0.01 
freq.    1270.25  E(vib)   ...       0.01 
freq.    1270.85  E(vib)   ...       0.01 
freq.    1276.45  E(vib)   ...       0.01 
freq.    1277.16  E(vib)   ...       0.01 
freq.    1278.70  E(vib)   ...       0.01 
freq.    1283.68  E(vib)   ...       0.01 
freq.    1285.29  E(vib)   ...       0.01 
freq.    1298.61  E(vib)   ...       0.01 
freq.    1312.50  E(vib)   ...       0.01 
freq.    1341.79  E(vib)   ...       0.01 
freq.    1344.89  E(vib)   ...       0.01 
freq.    1372.94  E(vib)   ...       0.01 
freq.    1374.24  E(vib)   ...       0.01 
freq.    1403.21  E(vib)   ...       0.00 
freq.    1419.94  E(vib)   ...       0.00 
freq.    1428.48  E(vib)   ...       0.00 
freq.    1428.78  E(vib)   ...       0.00 
freq.    1455.73  E(vib)   ...       0.00 
freq.    1476.04  E(vib)   ...       0.00 
freq.    1479.89  E(vib)   ...       0.00 
freq.    1493.97  E(vib)   ...       0.00 
freq.    1499.68  E(vib)   ...       0.00 
freq.    1500.76  E(vib)   ...       0.00 
freq.    1503.73  E(vib)   ...       0.00 
freq.    1505.26  E(vib)   ...       0.00 
freq.    1506.25  E(vib)   ...       0.00 
freq.    1507.11  E(vib)   ...       0.00 
freq.    1509.40  E(vib)   ...       0.00 
freq.    1509.86  E(vib)   ...       0.00 
freq.    1512.06  E(vib)   ...       0.00 
freq.    1565.84  E(vib)   ...       0.00 
freq.    1571.82  E(vib)   ...       0.00 
freq.    2648.03  E(vib)   ...       0.00 
freq.    2884.20  E(vib)   ...       0.00 
freq.    2934.14  E(vib)   ...       0.00 
freq.    2941.72  E(vib)   ...       0.00 
freq.    2942.77  E(vib)   ...       0.00 
freq.    2948.27  E(vib)   ...       0.00 
freq.    2952.46  E(vib)   ...       0.00 
freq.    2966.16  E(vib)   ...       0.00 
freq.    2967.73  E(vib)   ...       0.00 
freq.    2970.51  E(vib)   ...       0.00 
freq.    2974.27  E(vib)   ...       0.00 
freq.    2979.90  E(vib)   ...       0.00 
freq.    2980.12  E(vib)   ...       0.00 
freq.    2981.11  E(vib)   ...       0.00 
freq.    2986.80  E(vib)   ...       0.00 
freq.    2987.52  E(vib)   ...       0.00 
freq.    2996.11  E(vib)   ...       0.00 
freq.    2999.40  E(vib)   ...       0.00 
freq.    3000.29  E(vib)   ...       0.00 
freq.    3015.20  E(vib)   ...       0.00 
freq.    3024.15  E(vib)   ...       0.00 
freq.    3046.06  E(vib)   ...       0.00 
freq.    3049.15  E(vib)   ...       0.00 
freq.    3062.40  E(vib)   ...       0.00 
freq.    3070.70  E(vib)   ...       0.00 
freq.    3358.67  E(vib)   ...       0.00 
freq.    3408.54  E(vib)   ...       0.00 

------------
INNER ENERGY
------------

The inner energy is: U= E(el) + E(ZPE) + E(vib) + E(rot) + E(trans)
    E(el)   - is the total energy from the electronic structure calculation
              = E(kin-el) + E(nuc-el) + E(el-el) + E(nuc-nuc)
    E(ZPE)  - the the zero temperature vibrational energy from the frequency calculation
    E(vib)  - the the finite temperature correction to E(ZPE) due to population
              of excited vibrational states
    E(rot)  - is the rotational thermal energy
    E(trans)- is the translational thermal energy

Summary of contributions to the inner energy U:
Electronic energy                ...    -56.27750678 Eh
Zero point energy                ...      0.39932995 Eh     250.58 kcal/mol
Thermal vibrational correction   ...      0.01831088 Eh      11.49 kcal/mol
Thermal rotational correction    ...      0.00141627 Eh       0.89 kcal/mol
Thermal translational correction ...      0.00141627 Eh       0.89 kcal/mol
-----------------------------------------------------------------------
Total thermal energy                    -55.85703341 Eh


Summary of corrections to the electronic energy:
(perhaps to be used in another calculation)
Total thermal correction                  0.02114342 Eh      13.27 kcal/mol
Non-thermal (ZPE) correction              0.39932995 Eh     250.58 kcal/mol
-----------------------------------------------------------------------
Total correction                          0.42047337 Eh     263.85 kcal/mol


--------
ENTHALPY
--------

The enthalpy is H = U + kB*T
                kB is Boltzmann's constant
Total free energy                 ...    -55.85703341 Eh 
Thermal Enthalpy correction       ...      0.00094421 Eh       0.59 kcal/mol
-----------------------------------------------------------------------
Total Enthalpy                    ...    -55.85608920 Eh


Note: Only C1 symmetry has been detected, increase convergence thresholds 
      if your molecule has a higher symmetry. Symmetry factor of 1.0 is   
      used for the rotational entropy correction. 
 

Note: Rotational entropy computed according to Herzberg 
Infrared and Raman Spectra, Chapter V,1, Van Nostrand Reinhold, 1945 
Point Group:  C1, Symmetry Number:   1  
Rotational constants in cm-1:     0.012485     0.007361     0.005606 

Vibrational entropy computed according to the QRRHO of S. Grimme
Chem.Eur.J. 2012 18 9955


-------
ENTROPY
-------

The entropy contributions are T*S = T*(S(el)+S(vib)+S(rot)+S(trans))
     S(el)   - electronic entropy
     S(vib)  - vibrational entropy
     S(rot)  - rotational entropy
     S(trans)- translational entropy
The entropies will be listed as mutliplied by the temperature to get
units of energy

Electronic entropy                ...      0.00000000 Eh      0.00 kcal/mol
Vibrational entropy               ...      0.03305856 Eh     20.74 kcal/mol
Rotational entropy                ...      0.01634602 Eh     10.26 kcal/mol
Translational entropy             ...      0.02018250 Eh     12.66 kcal/mol
-----------------------------------------------------------------------
Final entropy term                ...      0.06958708 Eh     43.67 kcal/mol

In case the symmetry of your molecule has not been determined correctly
or in case you have a reason to use a different symmetry number we print 
out the resulting rotational entropy values for sn=1,12 :
 --------------------------------------------------------
|  sn= 1 | S(rot)=       0.01634602 Eh     10.26 kcal/mol|
|  sn= 2 | S(rot)=       0.01569156 Eh      9.85 kcal/mol|
|  sn= 3 | S(rot)=       0.01530873 Eh      9.61 kcal/mol|
|  sn= 4 | S(rot)=       0.01503710 Eh      9.44 kcal/mol|
|  sn= 5 | S(rot)=       0.01482642 Eh      9.30 kcal/mol|
|  sn= 6 | S(rot)=       0.01465427 Eh      9.20 kcal/mol|
|  sn= 7 | S(rot)=       0.01450873 Eh      9.10 kcal/mol|
|  sn= 8 | S(rot)=       0.01438265 Eh      9.03 kcal/mol|
|  sn= 9 | S(rot)=       0.01427144 Eh      8.96 kcal/mol|
|  sn=10 | S(rot)=       0.01417196 Eh      8.89 kcal/mol|
|  sn=11 | S(rot)=       0.01408197 Eh      8.84 kcal/mol|
|  sn=12 | S(rot)=       0.01399982 Eh      8.78 kcal/mol|
 --------------------------------------------------------


-------------------
GIBBS FREE ENERGY
-------------------

The Gibbs free energy is G = H - T*S

Total enthalpy                    ...    -55.85608920 Eh 
Total entropy correction          ...     -0.06958708 Eh    -43.67 kcal/mol
-----------------------------------------------------------------------
Final Gibbs free energy         ...    -55.92567628 Eh

For completeness - the Gibbs free energy minus the electronic energy
G-E(el)                           ...      0.35183050 Eh    220.78 kcal/mol


Total Time for Numerical Frequencies  :       123.386 sec
Time for Reference State(s)           :         0.082 sec
Time for Displacements                :       106.320 sec

Timings for individual modules:

Sum of individual times         ...        0.225 sec (=   0.004 min)
XTB module                      ...        0.225 sec (=   0.004 min) 100.0 %
                             ****ORCA TERMINATED NORMALLY****
TOTAL RUN TIME: 0 days 0 hours 2 minutes 4 seconds 117 msec
(SLURM) EXECUTION TIME: 124.136200640 seconds.
