(SLURM) JOB ID:         152

                                 *****************
                                 * O   R   C   A *
                                 *****************

           --- An Ab Initio, DFT and Semiempirical electronic structure package ---

                  #######################################################
                  #                        -***-                        #
                  #          Department of theory and spectroscopy      #
                  #               Directorship: Frank Neese             #
                  #        Max Planck Institute fuer Kohlenforschung    #
                  #                Kaiser Wilhelm Platz 1               #
                  #                 D-45470 Muelheim/Ruhr               #
                  #                      Germany                        #
                  #                                                     #
                  #                  All rights reserved                #
                  #                        -***-                        #
                  #######################################################


                         Program Version 4.2.1 -  RELEASE  -


 With contributions from (in alphabetic order):
   Daniel Aravena         : Magnetic Suceptibility
   Michael Atanasov       : Ab Initio Ligand Field Theory (pilot matlab implementation)
   Alexander A. Auer      : GIAO ZORA, VPT2
   Ute Becker             : Parallelization
   Giovanni Bistoni       : ED, misc. LED, open-shell LED, HFLD
   Martin Brehm           : Molecular dynamics
   Dmytro Bykov           : SCF Hessian
   Vijay G. Chilkuri      : MRCI spin determinant printing, contributions to CSF-ICE
   Dipayan Datta          : RHF DLPNO-CCSD density
   Achintya Kumar Dutta   : EOM-CC, STEOM-CC
   Dmitry Ganyushin       : Spin-Orbit,Spin-Spin,Magnetic field MRCI
   Miquel Garcia          : C-PCM Hessian, Gaussian charge scheme
   Yang Guo               : DLPNO-NEVPT2, CIM, IAO-localization
   Andreas Hansen         : Spin unrestricted coupled pair/coupled cluster methods
   Benjamin Helmich-Paris : CASSCF linear response (MC-RPA)
   Lee Huntington         : MR-EOM, pCC
   Robert Izsak           : Overlap fitted RIJCOSX, COSX-SCS-MP3, EOM
   Christian Kollmar      : KDIIS, OOCD, Brueckner-CCSD(T), CCSD density
   Simone Kossmann        : Meta GGA functionals, TD-DFT gradient, OOMP2, MP2 Hessian
   Martin Krupicka        : AUTO-CI
   Lucas Lang             : DCDCAS
   Dagmar Lenk            : GEPOL surface, SMD
   Dimitrios Liakos       : Extrapolation schemes; Compound Job, initial MDCI parallelization
   Dimitrios Manganas     : Further ROCIS development; embedding schemes
   Dimitrios Pantazis     : SARC Basis sets
   Taras Petrenko         : DFT Hessian,TD-DFT gradient, ASA, ECA, R-Raman, ABS, FL, XAS/XES, NRVS
   Peter Pinski           : DLPNO-MP2, DLPNO-MP2 Gradient
   Christoph Reimann      : Effective Core Potentials
   Marius Retegan         : Local ZFS, SOC
   Christoph Riplinger    : Optimizer, TS searches, QM/MM, DLPNO-CCSD(T), (RO)-DLPNO pert. Triples
   Tobias Risthaus        : Range-separated hybrids, TD-DFT gradient, RPA, STAB
   Michael Roemelt        : Original ROCIS implementation
   Masaaki Saitow         : Open-shell DLPNO-CCSD energy and density
   Barbara Sandhoefer     : DKH picture change effects
   Avijit Sen             : IP-ROCIS
   Kantharuban Sivalingam : CASSCF convergence, NEVPT2, FIC-MRCI
   Bernardo de Souza      : ESD, SOC TD-DFT
   Georgi Stoychev        : AutoAux, RI-MP2 NMR
   Willem Van den Heuvel  : Paramagnetic NMR
   Boris Wezisla          : Elementary symmetry handling
   Frank Wennmohs         : Technical directorship


 We gratefully acknowledge several colleagues who have allowed us to
 interface, adapt or use parts of their codes:
   Stefan Grimme, W. Hujo, H. Kruse,             : VdW corrections, initial TS optimization,
                  C. Bannwarth                     DFT functionals, gCP, sTDA/sTD-DF
   Ed Valeev, F. Pavosevic, A. Kumar             : LibInt (2-el integral package), F12 methods
   Garnet Chan, S. Sharma, J. Yang, R. Olivares  : DMRG
   Ulf Ekstrom                                   : XCFun DFT Library
   Mihaly Kallay                                 : mrcc  (arbitrary order and MRCC methods)
   Andreas Klamt, Michael Diedenhofen            : otool_cosmo (COSMO solvation model)
   Jiri Pittner, Ondrej Demel                    : Mk-CCSD
   Frank Weinhold                                : gennbo (NPA and NBO analysis)
   Christopher J. Cramer and Donald G. Truhlar   : smd solvation model
   Lars Goerigk                                  : TD-DFT with DH, B97 family of functionals
   V. Asgeirsson, H. Jonsson                     : NEB implementation
   FAccTs GmbH                                   : IRC, NEB, NEB-TS, Multilevel, MM, QM/MM, CI optimization
   S Lehtola, MJT Oliveira, MAL Marques          : LibXC Library


 Your calculation uses the libint2 library for the computation of 2-el integrals
 For citations please refer to: http://libint.valeyev.net

 Your ORCA version has been built with support for libXC version: 4.2.3
 For citations please refer to: https://tddft.org/programs/libxc/

 This ORCA versions uses:
   CBLAS   interface :  Fast vector & matrix operations
   LAPACKE interface :  Fast linear algebra routines
   SCALAPACK package :  Parallel linear algebra routines




***************************************
The coordinates will be read from file: init.xyz
***************************************


Your calculation utilizes the SMD solvation module
Please cite in your paper:
A.V. Marenich, C.J. Cramer, D.G. Truhlar J. Phys. Chem. B, 113, (2009), 6378 

Your calculation utilizes the semiempirical GFN2-xTB method
Please cite in your paper:
C. Bannwarth, Ehlert S., S. Grimme,  J. Chem. Theory Comput., 15, (2019), 1652.
   

----- Orbital basis set information -----
Your calculation utilizes the basis: def2-SVP
   F. Weigend and R. Ahlrichs, Phys. Chem. Chem. Phys. 7, 3297 (2005).

================================================================================
                                        WARNINGS
                       Please study these warnings very carefully!
================================================================================

WARNING: Gradients needed for Numerical Frequencies
  ===> : Setting RunTyp to EnGrad

WARNING: The environment variable RSH_COMMAND is not set!
  ===> : All Displacements for the Numerical Hessian calculation
         will be started on localhost

WARNING: Found dipole moment calculation with XTB calculation
  ===> : Switching off dipole moment calculation


INFO   : the flag for use of LIBINT has been found!

================================================================================
                                       INPUT FILE
================================================================================
NAME = /tmp/slurm-scratch/freq.152/freq.inp
|  1> ! XTB2 NumFreq
|  2> %maxcore 1450
|  3> 
|  4> * xyzfile 0 1 init.xyz
|  5> 
|  6> %cpcm
|  7>  smd true
|  8>  smdsolvent "ch2cl2"
|  9> end
| 10> %pal nprocs 8 end
| 11> 
| 12>                          ****END OF INPUT****
================================================================================

                     *******************************
                     * Energy+Gradient Calculation *
                     *******************************

      -----------------------------------------------------------      
     |                   =====================                   |     
     |                           x T B                           |     
     |                   =====================                   |     
     |                         S. Grimme                         |     
     |          Mulliken Center for Theoretical Chemistry        |     
     |                    University of Bonn                     |     
      -----------------------------------------------------------      

   * xtb version 6.3.0 (preview) compiled by 'ehlert@majestix' on 2020-01-15

   This program is distributed in the hope that it will be useful,
   but WITHOUT ANY WARRANTY; without even the implied warranty of
   MERCHANTABILITY or FITNESS FOR A PARTICULAR PURPOSE.
   
   FOR NON-COMMERCIAL, ACADEMIA USE ONLY.
   
   Cite this work as:
   * S. Grimme, C. Bannwarth, P. Shushkov, J. Chem. Theory Comput., 2017,
     13, 1989-2009. DOI: 10.1021/acs.jctc.7b00118
   * C. Bannwarth, S. Ehlert and S. Grimme., J. Chem. Theory Comput., 2019,
     15, 1652-1671. DOI: 10.1021/acs.jctc.8b01176
   * P. Pracht, E. Caldeweyher, S. Ehlert, S. Grimme, ChemRxiv, 2019, preprint.
     DOI: 10.26434/chemrxiv.8326202.v1
   * S. Grimme, S. Spicher unpublished
   
   for DFT-D4:
   * E. Caldeweyher, C. Bannwarth and S. Grimme, J. Chem. Phys., 2017,
     147, 034112. DOI: 10.1063/1.4993215
   * E. Caldeweyher, S. Ehlert, A. Hansen, H. Neugebauer, S. Spicher,
     C. Bannwarth and S. Grimme, J. Chem. Phys., 2019, 150, 154122.
     DOI: 10.1063/1.5090222
   
   for sTDA-xTB:
   * S. Grimme and C. Bannwarth, J. Chem. Phys., 2016, 145, 054103.
     DOI: 10.1063/1.4959605
   
   in the mass-spec context:
   * V. Asgeirsson, C. Bauer and S. Grimme, Chem. Sci., 2017, 8, 4879.
     DOI: 10.1039/c7sc00601b
   
   for metadynamics refer to:
   * S. Grimme, J. Chem. Theory Comput., 2019, 155, 2847-2862
     DOI: 10.1021/acs.jctc.9b00143
   
   with help from (in alphabetical order)
   C. Bannwarth, F. Bohle, G. Brandenburg, E. Caldeweyher, M. Checinski,
   S. Dohm, S. Ehlert, S. Ehrlich, F. März, H. Neugebauer, J. Pisarek,
   P. Pracht, P. Shushkov, and S. Spicher.
   
 * started run on 2020/08/26 at 12:03:37.207     

           -------------------------------------------------
          |                Calculation Setup                |
           -------------------------------------------------

          program call               : /opt/orca/otool_xtb /tmp/slurm-scratch/freq.152/freq_XTB.xyz --grad -c 0 -u 0 -P 8 --namespace /tmp/slurm-scratch/freq.152/freq --gbsa CH2Cl2
          hostname                   : headnode-pbs
          calculation namespace      : /tmp/slurm-scratch/freq.152/freq
          coordinate file            : /tmp/slurm-scratch/freq.152/freq_XTB.xyz
          omp threads                :                     8
          number of atoms            :                    36
          number of electrons        :                    88
          charge                     :                     0
          spin                       :                   0.0
          first test random number   :      0.08316752410924


molecular fragmentation (1/2 indicates fragments):
111111111111211111121222211111111111
# atoms in fragment 1/2:    30     6
 fragment masses (1/2) :      179.26       36.03
CMA distance (Bohr)    :   5.503
constraining FC (au)   :  0.0500

########################################################################
# WARNING! Please study the warnings concerning your input carefully
#  - Process number higher than OMP_NUM_THREADS, I hope you know what you are doing.
########################################################################

           ------------------------------------------------- 
          |                 G F N 2 - x T B                 |
          | Geometry, Frequencies, Noncovalent interactions |
          |            JCTC 2019 parametrisation            |
           ------------------------------------------------- 
             k(s)              :                1.8500
             k(p)              :                2.2300
             k(d)              :                2.2300
             k(f)              :                2.0000
             kEN (H0ij)        :               -2.0000
             D4 a1             :                0.5200
             D4 a2             :                5.0000
             D4 s6             :                1.0000
             D4 s8             :                2.7000
             D4 s9             :                5.0000
             alphaj            :                2.0000

  Z AO/shell   Hii/eV     exponent
  1     Wed Apr 25 08:07:45 CEST 2018   EN: 2.200 GM2: 0.406  GM3: 0.0800  RAES: 1.40
     1s    -10.707211    1.230000
  6     Wed Apr 25 08:07:45 CEST 2018   EN: 2.550 GM2: 0.538  GM3: 0.1500  RAES: 3.00
     2s    -13.970922    2.096432
     2p    -10.063292    1.800000
  7     Wed Apr 25 08:07:45 CEST 2018   EN: 3.040 GM2: 0.461  GM3:-0.0640  RAES: 1.90
     2s    -16.686243    2.339881
     2p    -12.523956    2.014332
  8     Wed Apr 25 08:07:45 CEST 2018   EN: 3.440 GM2: 0.452  GM3:-0.0517  RAES: 1.80
     2s    -20.229985    2.439742
     2p    -15.503117    2.137023

 Solvent             : CH2Cl2
 Using internal parameter file: .param_gbsa2_CH2Cl2
 Gsolv ref. state (COSMO-RS): gsolv [1 M gas/solution]
 temperature (mdtemp)       :    298.150000000000     
 dielectric constant        :    8.93000000000000     
 rho                        :    1.33000000000000     
 mass                       :    84.9300000000000     
 surface tension            :    15.5689454083859     
 probe radius               :   0.719875900000000     
 Gshift (Eh)                :   4.440829173451759E-003
 c1                         :    1.49173776000000     
 soset                      :   0.000000000000000E+000
 HB correction              :  F
           ------------------------------------------------- 
          |        Self-Consistent Charge Iterations        |
           ------------------------------------------------- 

          ...................................................
          :                      SETUP                      :
          :.................................................:
          :  # basis functions                  81          :
          :  # atomic orbitals                  81          :
          :  # shells                           51          :
          :  # electrons                        88          :
          :  max. iterations                   250          :
          :  Hamiltonian                  GFN2-xTB          :
          :  GBSA solvation                   true          :
          :  PC potential                    false          :
          :  electronic temp.          300.0000000     K    :
          :  accuracy                    1.0000000          :
          :  -> integral cutoff          0.2500000E+02      :
          :  -> integral neglect         0.1000000E-07      :
          :  -> SCF convergence          0.1000000E-05 Eh   :
          :  -> wf. convergence          0.1000000E-03 e    :
          :  Broyden damping             0.4000000          :
          ...................................................
  Checking positiv definite overlap ...  done.
 

 iter      E             dE          RMSdq      gap      omega  full diag
   1    -49.9520364 -0.499520E+02  0.385E+00    4.01       0.0  T
   2    -49.9912772 -0.392408E-01  0.224E+00    4.32       1.0  T
   3    -49.9903297  0.947539E-03  0.627E-01    4.30       1.0  T
   4    -49.9930572 -0.272752E-02  0.233E-01    4.32       1.0  T
   5    -49.9946563 -0.159911E-02  0.708E-02    4.32       1.0  T
   6    -49.9946748 -0.184554E-04  0.301E-02    4.32       1.0  T
   7    -49.9946768 -0.196810E-05  0.110E-02    4.32       1.5  T
   8    -49.9946783 -0.156408E-05  0.425E-03    4.32       3.9  T
   9    -49.9946785 -0.157198E-06  0.211E-03    4.32       7.9  T
  10    -49.9946785 -0.137337E-07  0.812E-04    4.32      20.5  T
  11    -49.9946785 -0.611649E-08  0.357E-04    4.32      46.7  T

   *** convergence criteria satisfied after 11 iterations ***

         #    Occupation            Energy/Eh            Energy/eV
      -------------------------------------------------------------
         1        2.0000           -0.6888626             -18.7449
       ...           ...                  ...                  ...
        38        2.0000           -0.4356405             -11.8544
        39        2.0000           -0.4265112             -11.6060
        40        2.0000           -0.4228722             -11.5069
        41        2.0000           -0.4095104             -11.1433
        42        2.0000           -0.4088419             -11.1252
        43        2.0000           -0.4063168             -11.0564
        44        2.0000           -0.3918770             -10.6635 (HOMO)
        45                         -0.2330386              -6.3413 (LUMO)
        46                         -0.2301449              -6.2626
        47                         -0.1061690              -2.8890
        48                         -0.0100585              -0.2737
        49                          0.0270887               0.7371
       ...                                ...                  ...
        81                          0.6417493              17.4629
      -------------------------------------------------------------
                  HL-Gap            0.1588383 Eh            4.3222 eV
             Fermi-level           -0.3124578 Eh           -8.5024 eV

 SCC (total)                   0 d,  0 h,  0 min,  0.158 sec
 SCC setup                      ...        0 min,  0.004 sec (  2.674%)
 Dispersion                     ...        0 min,  0.002 sec (  1.447%)
 integral evaluation            ...        0 min,  0.017 sec ( 11.005%)
 zeroth order Hamiltonian       ...        0 min,  0.000 sec (  0.011%)
 iterations                     ...        0 min,  0.125 sec ( 79.325%)
 molecular gradient             ...        0 min,  0.008 sec (  4.989%)
 printout                       ...        0 min,  0.001 sec (  0.517%)

         :::::::::::::::::::::::::::::::::::::::::::::::::::::
         ::                     SUMMARY                     ::
         :::::::::::::::::::::::::::::::::::::::::::::::::::::
         :: total energy             -49.387468969803 Eh    ::
         :: total w/o Gsasa/hb       -49.369838846513 Eh    ::
         :: gradient norm              0.026236377540 Eh/a0 ::
         :: HOMO-LUMO gap              4.322211052407 eV    ::
         ::.................................................::
         :: SCC energy               -50.012308619580 Eh    ::
         :: -> isotropic ES            0.107119079484 Eh    ::
         :: -> anisotropic ES         -0.005656686410 Eh    ::
         :: -> anisotropic XC          0.021105869070 Eh    ::
         :: -> dispersion             -0.029522021936 Eh    ::
         :: -> Gsolv                  -0.024651839117 Eh    ::
         ::    -> Gborn               -0.007021715827 Eh    ::
         ::    -> Gsasa               -0.022070952464 Eh    ::
         ::    -> Ghb                  0.000000000000 Eh    ::
         ::    -> Gshift               0.004440829173 Eh    ::
         :: repulsion energy           0.624571327086 Eh    ::
         :: add. restraining           0.000000000000 Eh    ::
         :::::::::::::::::::::::::::::::::::::::::::::::::::::

           -------------------------------------------------
          |                Property Printout                |
           -------------------------------------------------

    * Orbital Energies and Occupations

         #    Occupation            Energy/Eh            Energy/eV
      -------------------------------------------------------------
         1        2.0000           -0.6888626             -18.7449
       ...           ...                  ...                  ...
        32        2.0000           -0.4665197             -12.6946
        33        2.0000           -0.4506457             -12.2627
        34        2.0000           -0.4480821             -12.1929
        35        2.0000           -0.4465058             -12.1500
        36        2.0000           -0.4426919             -12.0463
        37        2.0000           -0.4374142             -11.9026
        38        2.0000           -0.4356405             -11.8544
        39        2.0000           -0.4265112             -11.6060
        40        2.0000           -0.4228722             -11.5069
        41        2.0000           -0.4095104             -11.1433
        42        2.0000           -0.4088419             -11.1252
        43        2.0000           -0.4063168             -11.0564
        44        2.0000           -0.3918770             -10.6635 (HOMO)
        45                         -0.2330386              -6.3413 (LUMO)
        46                         -0.2301449              -6.2626
        47                         -0.1061690              -2.8890
        48                         -0.0100585              -0.2737
        49                          0.0270887               0.7371
        50                          0.0620261               1.6878
        51                          0.0716938               1.9509
        52                          0.0761377               2.0718
        53                          0.1024754               2.7885
        54                          0.1067746               2.9055
        55                          0.1205305               3.2798
       ...                                ...                  ...
        81                          0.6417493              17.4629
      -------------------------------------------------------------
                  HL-Gap            0.1588383 Eh            4.3222 eV
             Fermi-level           -0.3124578 Eh           -8.5024 eV

     #   Z        covCN         q      C6AA      α(0)
     1   6 C      2.966    -0.019    28.485     8.754
     2   6 C      2.920    -0.040    28.989     8.829
     3   6 C      2.914    -0.030    28.751     8.793
     4   6 C      2.915    -0.031    28.767     8.795
     5   6 C      2.915    -0.030    28.758     8.794
     6   6 C      2.918    -0.038    28.939     8.821
     7   6 C      3.666     0.182    17.930     6.073
     8   1 H      0.925     0.029     2.604     2.524
     9   1 H      0.926     0.057     2.230     2.335
    10   1 H      0.925     0.040     2.447     2.446
    11   7 N      2.677    -0.301    27.754     7.824
    12   6 C      3.736     0.016    20.390     6.444
    13   1 H      0.800     0.314     0.682     1.297
    14   6 C      3.801    -0.071    21.859     6.657
    15   1 H      0.924     0.036     2.501     2.473
    16   1 H      0.924     0.017     2.774     2.605
    17   1 H      0.924     0.051     2.311     2.377
    18   1 H      0.924     0.049     2.330     2.387
    19   8 O      1.654    -0.488    22.633     6.422
    20   8 O      1.607    -0.626    25.822     6.858
    21   1 H      0.803     0.331     0.635     1.252
    22   1 H      0.805     0.292     0.747     1.358
    23   8 O      1.605    -0.617    25.607     6.830
    24   1 H      0.802     0.325     0.652     1.268
    25   1 H      0.805     0.292     0.746     1.356
    26   1 H      0.924     0.015     2.806     2.620
    27   1 H      0.860     0.151     1.392     1.848
    28   6 C      3.800    -0.053    21.534     6.607
    29   1 H      0.924     0.032     2.565     2.505
    30   1 H      0.924     0.029     2.595     2.519
    31   1 H      0.925     0.042     2.422     2.433
    32   1 H      0.925     0.039     2.458     2.452
    33   6 C      3.750    -0.103    22.537     6.771
    34   1 H      0.924     0.036     2.503     2.474
    35   1 H      0.924     0.037     2.489     2.467
    36   1 H      0.924     0.036     2.506     2.476

 Mol. C6AA /au·bohr⁶  :      10808.756085
 Mol. C8AA /au·bohr⁸  :     237487.658276
 Mol. α(0) /au        :        158.744543


Wiberg/Mayer (AO) data.
largest (>0.10) Wiberg bond orders for each atom
          total WBO             WBO to atom ...
     1  C   3.986        C    6 1.417    C    2 1.416    C    7 0.973    C    4 0.110
     2  C   3.991        C    3 1.443    C    1 1.416    H    8 0.969    C    5 0.112
     3  C   3.991        C    2 1.443    C    4 1.439    H   32 0.971    C    6 0.112
     4  C   3.991        C    5 1.439    C    3 1.439    H   10 0.971    C    1 0.110
     5  C   3.991        C    6 1.443    C    4 1.439    H   31 0.971    C    2 0.112
     6  C   3.990        C    5 1.443    C    1 1.417    H    9 0.962    C    3 0.112
     7  C   3.953        O   19 1.009    C    1 0.973    N   11 0.967    H   26 0.951
     8  H   0.999        C    2 0.969
     9  H   0.997        C    6 0.962
    10  H   0.998        C    4 0.971
    11  N   3.132        C   12 0.992    C    7 0.967    H   27 0.953
    12  C   3.976        C   14 1.006    N   11 0.992    H   15 0.976    H   16 0.969
    13  H   0.902        O   23 0.823
    14  C   3.993        C   28 1.006    C   12 1.006    H   18 0.974    H   17 0.974
    15  H   0.999        C   12 0.976
    16  H   1.000        C   12 0.969
    17  H   0.997        C   14 0.974
    18  H   0.998        C   14 0.974
    19  O   1.953        C    7 1.009    H   21 0.823
    20  O   1.850        H   22 0.912    H   24 0.830
    21  H   0.890        O   19 0.823
    22  H   0.915        O   20 0.912
    23  O   1.868        H   25 0.912    H   13 0.823
    24  H   0.895        O   20 0.830
    25  H   0.915        O   23 0.912
    26  H   0.999        C    7 0.951
    27  H   0.977        N   11 0.953
    28  C   3.997        C   33 1.020    C   14 1.006    H   30 0.978    H   29 0.978
    29  H   0.999        C   28 0.978
    30  H   0.999        C   28 0.978
    31  H   0.998        C    5 0.971
    32  H   0.998        C    3 0.971
    33  C   3.996        C   28 1.020    H   36 0.988    H   35 0.988    H   34 0.987
    34  H   0.998        C   33 0.987
    35  H   0.999        C   33 0.988
    36  H   0.999        C   33 0.988

molecular dipole:
                 x           y           z       tot (Debye)
 q only:       -0.161       0.461       0.937
   full:       -0.248       0.894       1.071       3.601
molecular quadrupole (traceless):
                xx          xy          yy          xz          yz          zz
 q only:        7.074      -0.237      -0.513       0.685      -0.522      -6.561
  q+dip:        6.360       1.094       3.138      -0.566      -2.838      -9.499
   full:        5.993       0.861       1.677      -0.185      -1.499      -7.670

           -------------------------------------------------
          |                Property Printout                |
           -------------------------------------------------

    * Orbital Energies and Occupations

         #    Occupation            Energy/Eh            Energy/eV
      -------------------------------------------------------------
         1        2.0000           -0.6888626             -18.7449
       ...           ...                  ...                  ...
        32        2.0000           -0.4665197             -12.6946
        33        2.0000           -0.4506457             -12.2627
        34        2.0000           -0.4480821             -12.1929
        35        2.0000           -0.4465058             -12.1500
        36        2.0000           -0.4426919             -12.0463
        37        2.0000           -0.4374142             -11.9026
        38        2.0000           -0.4356405             -11.8544
        39        2.0000           -0.4265112             -11.6060
        40        2.0000           -0.4228722             -11.5069
        41        2.0000           -0.4095104             -11.1433
        42        2.0000           -0.4088419             -11.1252
        43        2.0000           -0.4063168             -11.0564
        44        2.0000           -0.3918770             -10.6635 (HOMO)
        45                         -0.2330386              -6.3413 (LUMO)
        46                         -0.2301449              -6.2626
        47                         -0.1061690              -2.8890
        48                         -0.0100585              -0.2737
        49                          0.0270887               0.7371
        50                          0.0620261               1.6878
        51                          0.0716938               1.9509
        52                          0.0761377               2.0718
        53                          0.1024754               2.7885
        54                          0.1067746               2.9055
        55                          0.1205305               3.2798
       ...                                ...                  ...
        81                          0.6417493              17.4629
      -------------------------------------------------------------
                  HL-Gap            0.1588383 Eh            4.3222 eV
             Fermi-level           -0.3124578 Eh           -8.5024 eV

     #   Z        covCN         q      C6AA      α(0)
     1   6 C      2.966    -0.019    28.485     8.754
     2   6 C      2.920    -0.040    28.989     8.829
     3   6 C      2.914    -0.030    28.751     8.793
     4   6 C      2.915    -0.031    28.767     8.795
     5   6 C      2.915    -0.030    28.758     8.794
     6   6 C      2.918    -0.038    28.939     8.821
     7   6 C      3.666     0.182    17.930     6.073
     8   1 H      0.925     0.029     2.604     2.524
     9   1 H      0.926     0.057     2.230     2.335
    10   1 H      0.925     0.040     2.447     2.446
    11   7 N      2.677    -0.301    27.754     7.824
    12   6 C      3.736     0.016    20.390     6.444
    13   1 H      0.800     0.314     0.682     1.297
    14   6 C      3.801    -0.071    21.859     6.657
    15   1 H      0.924     0.036     2.501     2.473
    16   1 H      0.924     0.017     2.774     2.605
    17   1 H      0.924     0.051     2.311     2.377
    18   1 H      0.924     0.049     2.330     2.387
    19   8 O      1.654    -0.488    22.633     6.422
    20   8 O      1.607    -0.626    25.822     6.858
    21   1 H      0.803     0.331     0.635     1.252
    22   1 H      0.805     0.292     0.747     1.358
    23   8 O      1.605    -0.617    25.607     6.830
    24   1 H      0.802     0.325     0.652     1.268
    25   1 H      0.805     0.292     0.746     1.356
    26   1 H      0.924     0.015     2.806     2.620
    27   1 H      0.860     0.151     1.392     1.848
    28   6 C      3.800    -0.053    21.534     6.607
    29   1 H      0.924     0.032     2.565     2.505
    30   1 H      0.924     0.029     2.595     2.519
    31   1 H      0.925     0.042     2.422     2.433
    32   1 H      0.925     0.039     2.458     2.452
    33   6 C      3.750    -0.103    22.537     6.771
    34   1 H      0.924     0.036     2.503     2.474
    35   1 H      0.924     0.037     2.489     2.467
    36   1 H      0.924     0.036     2.506     2.476

 Mol. C6AA /au·bohr⁶  :      10808.756085
 Mol. C8AA /au·bohr⁸  :     237487.658276
 Mol. α(0) /au        :        158.744543


Wiberg/Mayer (AO) data.
largest (>0.10) Wiberg bond orders for each atom
          total WBO             WBO to atom ...
     1  C   3.986        C    6 1.417    C    2 1.416    C    7 0.973    C    4 0.110
     2  C   3.991        C    3 1.443    C    1 1.416    H    8 0.969    C    5 0.112
     3  C   3.991        C    2 1.443    C    4 1.439    H   32 0.971    C    6 0.112
     4  C   3.991        C    5 1.439    C    3 1.439    H   10 0.971    C    1 0.110
     5  C   3.991        C    6 1.443    C    4 1.439    H   31 0.971    C    2 0.112
     6  C   3.990        C    5 1.443    C    1 1.417    H    9 0.962    C    3 0.112
     7  C   3.953        O   19 1.009    C    1 0.973    N   11 0.967    H   26 0.951
     8  H   0.999        C    2 0.969
     9  H   0.997        C    6 0.962
    10  H   0.998        C    4 0.971
    11  N   3.132        C   12 0.992    C    7 0.967    H   27 0.953
    12  C   3.976        C   14 1.006    N   11 0.992    H   15 0.976    H   16 0.969
    13  H   0.902        O   23 0.823
    14  C   3.993        C   28 1.006    C   12 1.006    H   18 0.974    H   17 0.974
    15  H   0.999        C   12 0.976
    16  H   1.000        C   12 0.969
    17  H   0.997        C   14 0.974
    18  H   0.998        C   14 0.974
    19  O   1.953        C    7 1.009    H   21 0.823
    20  O   1.850        H   22 0.912    H   24 0.830
    21  H   0.890        O   19 0.823
    22  H   0.915        O   20 0.912
    23  O   1.868        H   25 0.912    H   13 0.823
    24  H   0.895        O   20 0.830
    25  H   0.915        O   23 0.912
    26  H   0.999        C    7 0.951
    27  H   0.977        N   11 0.953
    28  C   3.997        C   33 1.020    C   14 1.006    H   30 0.978    H   29 0.978
    29  H   0.999        C   28 0.978
    30  H   0.999        C   28 0.978
    31  H   0.998        C    5 0.971
    32  H   0.998        C    3 0.971
    33  C   3.996        C   28 1.020    H   36 0.988    H   35 0.988    H   34 0.987
    34  H   0.998        C   33 0.987
    35  H   0.999        C   33 0.988
    36  H   0.999        C   33 0.988

molecular dipole:
                 x           y           z       tot (Debye)
 q only:       -0.161       0.461       0.937
   full:       -0.248       0.894       1.071       3.601
molecular quadrupole (traceless):
                xx          xy          yy          xz          yz          zz
 q only:        7.074      -0.237      -0.513       0.685      -0.522      -6.561
  q+dip:        6.360       1.094       3.138      -0.566      -2.838      -9.499
   full:        5.993       0.861       1.677      -0.185      -1.499      -7.670


           -------------------------------------------------
          | TOTAL ENERGY              -49.387468969803 Eh   |
          | GRADIENT NORM               0.026236377540 Eh/α |
          | HOMO-LUMO GAP               4.322211052407 eV   |
           -------------------------------------------------

------------------------------------------------------------------------
 * finished run on 2020/08/26 at 12:03:37.519     
------------------------------------------------------------------------
 total:
 * wall-time:     0 d,  0 h,  0 min,  0.311 sec
 *  cpu-time:     0 d,  0 h,  0 min,  1.551 sec
 * ratio c/w:     4.982 speedup
 SCF:
 * wall-time:     0 d,  0 h,  0 min,  0.171 sec
 *  cpu-time:     0 d,  0 h,  0 min,  0.791 sec
 * ratio c/w:     4.634 speedup


-------------------------   --------------------
FINAL SINGLE POINT ENERGY       -49.387468969800
-------------------------   --------------------


----------------------------------------------------------------------------
                           ORCA NUMERICAL FREQUENCIES
                              (8-process run)
----------------------------------------------------------------------------

Number of atoms                ... 36
Central differences            ... used
Number of displacements        ... 216
Numerical increment            ... 5.000e-03 bohr
IR-spectrum generation         ... on
Raman-spectrum generation      ... off
Surface Crossing Hessian       ... off
List of participating nodes    ...  /tmp/slurm-scratch/freq.152/freq.hostnames

The output will be reduced. Please look at the following files:
SCF program output             ... >/tmp/slurm-scratch/freq.152/freq.lastscf
Integral program output        ... >/tmp/slurm-scratch/freq.152/freq.lastint
Gradient program output        ... >/tmp/slurm-scratch/freq.152/freq.lastgrad
Dipole moment program output   ... >/tmp/slurm-scratch/freq.152/freq.lastmom
AutoCI program output          ... >/tmp/slurm-scratch/freq.152/freq.lastautoci


         <<< Energy and Gradient at the input geometry >>>

        <<< Energy and Gradient at displaced geometries >>>
             <<<Displacing   1/coordinate 2 (+)>>>
             <<<Displacing   3/coordinate 2 (+)>>>
             <<<Displacing   1/coordinate 1 (+)>>>
             <<<Displacing   2/coordinate 3 (+)>>>
             <<<Displacing   1/coordinate 3 (+)>>>
             <<<Displacing   2/coordinate 2 (+)>>>
             <<<Displacing   3/coordinate 1 (+)>>>
             <<<Displacing   2/coordinate 1 (+)>>>
             <<<Displacing   2/coordinate 1 (-)>>>
             <<<Displacing   1/coordinate 1 (-)>>>
             <<<Displacing   2/coordinate 2 (-)>>>
             <<<Displacing   1/coordinate 3 (-)>>>
             <<<Displacing   2/coordinate 3 (-)>>>
             <<<Displacing   3/coordinate 2 (-)>>>
             <<<Displacing   1/coordinate 2 (-)>>>
             <<<Displacing   3/coordinate 1 (-)>>>
             <<<Displacing   3/coordinate 3 (+)>>>
             <<<Displacing   4/coordinate 1 (+)>>>
             <<<Displacing   5/coordinate 1 (+)>>>
             <<<Displacing   4/coordinate 2 (+)>>>
             <<<Displacing   4/coordinate 3 (+)>>>
             <<<Displacing   5/coordinate 3 (+)>>>
             <<<Displacing   6/coordinate 1 (+)>>>
             <<<Displacing   4/coordinate 1 (-)>>>
             <<<Displacing   3/coordinate 3 (-)>>>
             <<<Displacing   5/coordinate 1 (-)>>>
             <<<Displacing   4/coordinate 2 (-)>>>
             <<<Displacing   4/coordinate 3 (-)>>>
             <<<Displacing   5/coordinate 3 (-)>>>
             <<<Displacing   6/coordinate 1 (-)>>>
             <<<Displacing   5/coordinate 2 (+)>>>
             <<<Displacing   5/coordinate 2 (-)>>>
             <<<Displacing   6/coordinate 2 (+)>>>
             <<<Displacing   7/coordinate 1 (+)>>>
             <<<Displacing   6/coordinate 3 (+)>>>
             <<<Displacing   8/coordinate 1 (+)>>>
             <<<Displacing   8/coordinate 2 (+)>>>
             <<<Displacing   7/coordinate 2 (+)>>>
             <<<Displacing   7/coordinate 3 (+)>>>
             <<<Displacing   7/coordinate 1 (-)>>>
             <<<Displacing   6/coordinate 2 (-)>>>
             <<<Displacing   6/coordinate 3 (-)>>>
             <<<Displacing   8/coordinate 1 (-)>>>
             <<<Displacing   7/coordinate 2 (-)>>>
             <<<Displacing   8/coordinate 2 (-)>>>
             <<<Displacing   7/coordinate 3 (-)>>>
             <<<Displacing   8/coordinate 3 (+)>>>
             <<<Displacing   8/coordinate 3 (-)>>>
             <<<Displacing   9/coordinate 1 (+)>>>
             <<<Displacing   9/coordinate 2 (+)>>>
             <<<Displacing   9/coordinate 3 (+)>>>
             <<<Displacing  10/coordinate 1 (+)>>>
             <<<Displacing  10/coordinate 2 (+)>>>
             <<<Displacing  10/coordinate 3 (+)>>>
             <<<Displacing  11/coordinate 1 (+)>>>
             <<<Displacing   9/coordinate 1 (-)>>>
             <<<Displacing   9/coordinate 3 (-)>>>
             <<<Displacing  10/coordinate 1 (-)>>>
             <<<Displacing   9/coordinate 2 (-)>>>
             <<<Displacing  10/coordinate 2 (-)>>>
             <<<Displacing  10/coordinate 3 (-)>>>
             <<<Displacing  11/coordinate 1 (-)>>>
             <<<Displacing  11/coordinate 2 (+)>>>
             <<<Displacing  11/coordinate 2 (-)>>>
             <<<Displacing  12/coordinate 1 (+)>>>
             <<<Displacing  11/coordinate 3 (+)>>>
             <<<Displacing  13/coordinate 1 (+)>>>
             <<<Displacing  12/coordinate 2 (+)>>>
             <<<Displacing  13/coordinate 2 (+)>>>
             <<<Displacing  13/coordinate 3 (+)>>>
             <<<Displacing  12/coordinate 3 (+)>>>
             <<<Displacing  11/coordinate 3 (-)>>>
             <<<Displacing  12/coordinate 1 (-)>>>
             <<<Displacing  13/coordinate 1 (-)>>>
             <<<Displacing  12/coordinate 2 (-)>>>
             <<<Displacing  13/coordinate 2 (-)>>>
             <<<Displacing  13/coordinate 3 (-)>>>
             <<<Displacing  12/coordinate 3 (-)>>>
             <<<Displacing  14/coordinate 1 (+)>>>
             <<<Displacing  14/coordinate 1 (-)>>>
             <<<Displacing  14/coordinate 2 (+)>>>
             <<<Displacing  15/coordinate 1 (+)>>>
             <<<Displacing  14/coordinate 3 (+)>>>
             <<<Displacing  15/coordinate 3 (+)>>>
             <<<Displacing  15/coordinate 2 (+)>>>
             <<<Displacing  16/coordinate 1 (+)>>>
             <<<Displacing  14/coordinate 2 (-)>>>
             <<<Displacing  16/coordinate 2 (+)>>>
             <<<Displacing  15/coordinate 1 (-)>>>
             <<<Displacing  14/coordinate 3 (-)>>>
             <<<Displacing  16/coordinate 1 (-)>>>
             <<<Displacing  15/coordinate 3 (-)>>>
             <<<Displacing  15/coordinate 2 (-)>>>
             <<<Displacing  16/coordinate 2 (-)>>>
             <<<Displacing  16/coordinate 3 (+)>>>
             <<<Displacing  16/coordinate 3 (-)>>>
             <<<Displacing  17/coordinate 1 (+)>>>
             <<<Displacing  17/coordinate 2 (+)>>>
             <<<Displacing  18/coordinate 1 (+)>>>
             <<<Displacing  17/coordinate 3 (+)>>>
             <<<Displacing  18/coordinate 2 (+)>>>
             <<<Displacing  18/coordinate 3 (+)>>>
             <<<Displacing  19/coordinate 1 (+)>>>
             <<<Displacing  17/coordinate 1 (-)>>>
             <<<Displacing  18/coordinate 1 (-)>>>
             <<<Displacing  17/coordinate 2 (-)>>>
             <<<Displacing  18/coordinate 2 (-)>>>
             <<<Displacing  17/coordinate 3 (-)>>>
             <<<Displacing  18/coordinate 3 (-)>>>
             <<<Displacing  19/coordinate 1 (-)>>>
             <<<Displacing  19/coordinate 2 (+)>>>
             <<<Displacing  19/coordinate 2 (-)>>>
             <<<Displacing  19/coordinate 3 (+)>>>
             <<<Displacing  20/coordinate 1 (+)>>>
             <<<Displacing  20/coordinate 2 (+)>>>
             <<<Displacing  20/coordinate 3 (+)>>>
             <<<Displacing  21/coordinate 1 (+)>>>
             <<<Displacing  21/coordinate 2 (+)>>>
             <<<Displacing  21/coordinate 3 (+)>>>
             <<<Displacing  19/coordinate 3 (-)>>>
             <<<Displacing  20/coordinate 1 (-)>>>
             <<<Displacing  20/coordinate 2 (-)>>>
             <<<Displacing  20/coordinate 3 (-)>>>
             <<<Displacing  21/coordinate 1 (-)>>>
             <<<Displacing  21/coordinate 2 (-)>>>
             <<<Displacing  21/coordinate 3 (-)>>>
             <<<Displacing  22/coordinate 1 (+)>>>
             <<<Displacing  22/coordinate 1 (-)>>>
             <<<Displacing  22/coordinate 2 (+)>>>
             <<<Displacing  23/coordinate 1 (+)>>>
             <<<Displacing  22/coordinate 3 (+)>>>
             <<<Displacing  23/coordinate 2 (+)>>>
             <<<Displacing  23/coordinate 3 (+)>>>
             <<<Displacing  24/coordinate 1 (+)>>>
             <<<Displacing  22/coordinate 2 (-)>>>
             <<<Displacing  24/coordinate 2 (+)>>>
             <<<Displacing  23/coordinate 1 (-)>>>
             <<<Displacing  22/coordinate 3 (-)>>>
             <<<Displacing  23/coordinate 2 (-)>>>
             <<<Displacing  23/coordinate 3 (-)>>>
             <<<Displacing  24/coordinate 1 (-)>>>
             <<<Displacing  24/coordinate 3 (+)>>>
             <<<Displacing  24/coordinate 2 (-)>>>
             <<<Displacing  24/coordinate 3 (-)>>>
             <<<Displacing  25/coordinate 1 (+)>>>
             <<<Displacing  25/coordinate 2 (+)>>>
             <<<Displacing  25/coordinate 3 (+)>>>
             <<<Displacing  26/coordinate 1 (+)>>>
             <<<Displacing  26/coordinate 2 (+)>>>
             <<<Displacing  26/coordinate 3 (+)>>>
             <<<Displacing  25/coordinate 2 (-)>>>
             <<<Displacing  25/coordinate 3 (-)>>>
             <<<Displacing  25/coordinate 1 (-)>>>
             <<<Displacing  26/coordinate 1 (-)>>>
             <<<Displacing  27/coordinate 1 (+)>>>
             <<<Displacing  26/coordinate 2 (-)>>>
             <<<Displacing  27/coordinate 2 (+)>>>
             <<<Displacing  26/coordinate 3 (-)>>>
             <<<Displacing  27/coordinate 1 (-)>>>
             <<<Displacing  27/coordinate 2 (-)>>>
             <<<Displacing  28/coordinate 1 (+)>>>
             <<<Displacing  29/coordinate 1 (+)>>>
             <<<Displacing  27/coordinate 3 (+)>>>
             <<<Displacing  28/coordinate 2 (+)>>>
             <<<Displacing  28/coordinate 3 (+)>>>
             <<<Displacing  29/coordinate 2 (+)>>>
             <<<Displacing  29/coordinate 1 (-)>>>
             <<<Displacing  28/coordinate 1 (-)>>>
             <<<Displacing  29/coordinate 3 (+)>>>
             <<<Displacing  28/coordinate 2 (-)>>>
             <<<Displacing  30/coordinate 1 (+)>>>
             <<<Displacing  28/coordinate 3 (-)>>>
             <<<Displacing  27/coordinate 3 (-)>>>
             <<<Displacing  29/coordinate 2 (-)>>>
             <<<Displacing  30/coordinate 1 (-)>>>
             <<<Displacing  29/coordinate 3 (-)>>>
             <<<Displacing  30/coordinate 2 (+)>>>
             <<<Displacing  30/coordinate 3 (+)>>>
             <<<Displacing  30/coordinate 2 (-)>>>
             <<<Displacing  31/coordinate 2 (+)>>>
             <<<Displacing  31/coordinate 3 (+)>>>
             <<<Displacing  32/coordinate 1 (+)>>>
             <<<Displacing  30/coordinate 3 (-)>>>
             <<<Displacing  31/coordinate 2 (-)>>>
             <<<Displacing  31/coordinate 3 (-)>>>
             <<<Displacing  32/coordinate 1 (-)>>>
             <<<Displacing  32/coordinate 3 (+)>>>
             <<<Displacing  31/coordinate 1 (+)>>>
             <<<Displacing  32/coordinate 3 (-)>>>
             <<<Displacing  31/coordinate 1 (-)>>>
             <<<Displacing  32/coordinate 2 (+)>>>
             <<<Displacing  32/coordinate 2 (-)>>>
             <<<Displacing  33/coordinate 1 (+)>>>
             <<<Displacing  33/coordinate 2 (+)>>>
             <<<Displacing  33/coordinate 1 (-)>>>
             <<<Displacing  33/coordinate 3 (+)>>>
             <<<Displacing  34/coordinate 1 (+)>>>
             <<<Displacing  33/coordinate 2 (-)>>>
             <<<Displacing  34/coordinate 2 (+)>>>
             <<<Displacing  33/coordinate 3 (-)>>>
             <<<Displacing  34/coordinate 1 (-)>>>
             <<<Displacing  34/coordinate 2 (-)>>>
             <<<Displacing  34/coordinate 3 (+)>>>
             <<<Displacing  35/coordinate 1 (+)>>>
             <<<Displacing  34/coordinate 3 (-)>>>
             <<<Displacing  35/coordinate 1 (-)>>>
             <<<Displacing  35/coordinate 2 (+)>>>
             <<<Displacing  35/coordinate 2 (-)>>>
             <<<Displacing  35/coordinate 3 (+)>>>
             <<<Displacing  36/coordinate 1 (+)>>>
             <<<Displacing  35/coordinate 3 (-)>>>
             <<<Displacing  36/coordinate 3 (+)>>>
             <<<Displacing  36/coordinate 1 (-)>>>
             <<<Displacing  36/coordinate 2 (+)>>>
             <<<Displacing  36/coordinate 3 (-)>>>
             <<<Displacing  36/coordinate 2 (-)>>>

-----------------------
VIBRATIONAL FREQUENCIES
-----------------------

Scaling factor for frequencies =  1.000000000 (already applied!)

   0:         0.00 cm**-1
   1:         0.00 cm**-1
   2:         0.00 cm**-1
   3:         0.00 cm**-1
   4:         0.00 cm**-1
   5:         0.00 cm**-1
   6:        31.06 cm**-1
   7:        49.44 cm**-1
   8:        49.71 cm**-1
   9:        68.31 cm**-1
  10:        72.48 cm**-1
  11:        85.82 cm**-1
  12:       101.69 cm**-1
  13:       112.31 cm**-1
  14:       120.18 cm**-1
  15:       169.92 cm**-1
  16:       171.97 cm**-1
  17:       217.47 cm**-1
  18:       240.01 cm**-1
  19:       246.40 cm**-1
  20:       263.34 cm**-1
  21:       269.84 cm**-1
  22:       312.20 cm**-1
  23:       338.80 cm**-1
  24:       351.62 cm**-1
  25:       365.41 cm**-1
  26:       382.33 cm**-1
  27:       404.21 cm**-1
  28:       432.99 cm**-1
  29:       477.63 cm**-1
  30:       490.06 cm**-1
  31:       525.51 cm**-1
  32:       551.38 cm**-1
  33:       588.89 cm**-1
  34:       621.28 cm**-1
  35:       628.96 cm**-1
  36:       679.71 cm**-1
  37:       700.31 cm**-1
  38:       763.08 cm**-1
  39:       771.53 cm**-1
  40:       811.66 cm**-1
  41:       818.61 cm**-1
  42:       840.96 cm**-1
  43:       861.62 cm**-1
  44:       885.54 cm**-1
  45:       909.75 cm**-1
  46:       931.35 cm**-1
  47:       933.90 cm**-1
  48:       938.03 cm**-1
  49:       950.40 cm**-1
  50:       967.57 cm**-1
  51:       982.00 cm**-1
  52:      1032.12 cm**-1
  53:      1065.75 cm**-1
  54:      1075.28 cm**-1
  55:      1099.21 cm**-1
  56:      1115.76 cm**-1
  57:      1119.40 cm**-1
  58:      1131.64 cm**-1
  59:      1154.41 cm**-1
  60:      1176.70 cm**-1
  61:      1190.52 cm**-1
  62:      1205.96 cm**-1
  63:      1219.55 cm**-1
  64:      1225.33 cm**-1
  65:      1258.53 cm**-1
  66:      1274.69 cm**-1
  67:      1278.91 cm**-1
  68:      1281.28 cm**-1
  69:      1289.62 cm**-1
  70:      1304.84 cm**-1
  71:      1330.45 cm**-1
  72:      1351.20 cm**-1
  73:      1362.23 cm**-1
  74:      1380.01 cm**-1
  75:      1423.87 cm**-1
  76:      1428.92 cm**-1
  77:      1462.60 cm**-1
  78:      1473.11 cm**-1
  79:      1503.12 cm**-1
  80:      1506.45 cm**-1
  81:      1507.07 cm**-1
  82:      1512.79 cm**-1
  83:      1526.22 cm**-1
  84:      1540.33 cm**-1
  85:      1568.53 cm**-1
  86:      1576.09 cm**-1
  87:      2878.15 cm**-1
  88:      2891.89 cm**-1
  89:      2902.14 cm**-1
  90:      2936.73 cm**-1
  91:      2961.28 cm**-1
  92:      2968.25 cm**-1
  93:      2974.52 cm**-1
  94:      2978.94 cm**-1
  95:      2984.18 cm**-1
  96:      2997.59 cm**-1
  97:      3005.15 cm**-1
  98:      3041.23 cm**-1
  99:      3052.48 cm**-1
 100:      3057.65 cm**-1
 101:      3069.42 cm**-1
 102:      3088.66 cm**-1
 103:      3128.96 cm**-1
 104:      3211.65 cm**-1
 105:      3383.46 cm**-1
 106:      3569.40 cm**-1
 107:      3577.94 cm**-1


------------
NORMAL MODES
------------

These modes are the cartesian displacements weighted by the diagonal matrix
M(i,i)=1/sqrt(m[i]) where m[i] is the mass of the displaced atom
Thus, these vectors are normalized but *not* orthogonal

                  0          1          2          3          4          5    
      0       0.000000   0.000000   0.000000   0.000000   0.000000   0.000000
      1       0.000000   0.000000   0.000000   0.000000   0.000000   0.000000
      2       0.000000   0.000000   0.000000   0.000000   0.000000   0.000000
      3       0.000000   0.000000   0.000000   0.000000   0.000000   0.000000
      4       0.000000   0.000000   0.000000   0.000000   0.000000   0.000000
      5       0.000000   0.000000   0.000000   0.000000   0.000000   0.000000
      6       0.000000   0.000000   0.000000   0.000000   0.000000   0.000000
      7       0.000000   0.000000   0.000000   0.000000   0.000000   0.000000
      8       0.000000   0.000000   0.000000   0.000000   0.000000   0.000000
      9       0.000000   0.000000   0.000000   0.000000   0.000000   0.000000
     10       0.000000   0.000000   0.000000   0.000000   0.000000   0.000000
     11       0.000000   0.000000   0.000000   0.000000   0.000000   0.000000
     12       0.000000   0.000000   0.000000   0.000000   0.000000   0.000000
     13       0.000000   0.000000   0.000000   0.000000   0.000000   0.000000
     14       0.000000   0.000000   0.000000   0.000000   0.000000   0.000000
     15       0.000000   0.000000   0.000000   0.000000   0.000000   0.000000
     16       0.000000   0.000000   0.000000   0.000000   0.000000   0.000000
     17       0.000000   0.000000   0.000000   0.000000   0.000000   0.000000
     18       0.000000   0.000000   0.000000   0.000000   0.000000   0.000000
     19       0.000000   0.000000   0.000000   0.000000   0.000000   0.000000
     20       0.000000   0.000000   0.000000   0.000000   0.000000   0.000000
     21       0.000000   0.000000   0.000000   0.000000   0.000000   0.000000
     22       0.000000   0.000000   0.000000   0.000000   0.000000   0.000000
     23       0.000000   0.000000   0.000000   0.000000   0.000000   0.000000
     24       0.000000   0.000000   0.000000   0.000000   0.000000   0.000000
     25       0.000000   0.000000   0.000000   0.000000   0.000000   0.000000
     26       0.000000   0.000000   0.000000   0.000000   0.000000   0.000000
     27       0.000000   0.000000   0.000000   0.000000   0.000000   0.000000
     28       0.000000   0.000000   0.000000   0.000000   0.000000   0.000000
     29       0.000000   0.000000   0.000000   0.000000   0.000000   0.000000
     30       0.000000   0.000000   0.000000   0.000000   0.000000   0.000000
     31       0.000000   0.000000   0.000000   0.000000   0.000000   0.000000
     32       0.000000   0.000000   0.000000   0.000000   0.000000   0.000000
     33       0.000000   0.000000   0.000000   0.000000   0.000000   0.000000
     34       0.000000   0.000000   0.000000   0.000000   0.000000   0.000000
     35       0.000000   0.000000   0.000000   0.000000   0.000000   0.000000
     36       0.000000   0.000000   0.000000   0.000000   0.000000   0.000000
     37       0.000000   0.000000   0.000000   0.000000   0.000000   0.000000
     38       0.000000   0.000000   0.000000   0.000000   0.000000   0.000000
     39       0.000000   0.000000   0.000000   0.000000   0.000000   0.000000
     40       0.000000   0.000000   0.000000   0.000000   0.000000   0.000000
     41       0.000000   0.000000   0.000000   0.000000   0.000000   0.000000
     42       0.000000   0.000000   0.000000   0.000000   0.000000   0.000000
     43       0.000000   0.000000   0.000000   0.000000   0.000000   0.000000
     44       0.000000   0.000000   0.000000   0.000000   0.000000   0.000000
     45       0.000000   0.000000   0.000000   0.000000   0.000000   0.000000
     46       0.000000   0.000000   0.000000   0.000000   0.000000   0.000000
     47       0.000000   0.000000   0.000000   0.000000   0.000000   0.000000
     48       0.000000   0.000000   0.000000   0.000000   0.000000   0.000000
     49       0.000000   0.000000   0.000000   0.000000   0.000000   0.000000
     50       0.000000   0.000000   0.000000   0.000000   0.000000   0.000000
     51       0.000000   0.000000   0.000000   0.000000   0.000000   0.000000
     52       0.000000   0.000000   0.000000   0.000000   0.000000   0.000000
     53       0.000000   0.000000   0.000000   0.000000   0.000000   0.000000
     54       0.000000   0.000000   0.000000   0.000000   0.000000   0.000000
     55       0.000000   0.000000   0.000000   0.000000   0.000000   0.000000
     56       0.000000   0.000000   0.000000   0.000000   0.000000   0.000000
     57       0.000000   0.000000   0.000000   0.000000   0.000000   0.000000
     58       0.000000   0.000000   0.000000   0.000000   0.000000   0.000000
     59       0.000000   0.000000   0.000000   0.000000   0.000000   0.000000
     60       0.000000   0.000000   0.000000   0.000000   0.000000   0.000000
     61       0.000000   0.000000   0.000000   0.000000   0.000000   0.000000
     62       0.000000   0.000000   0.000000   0.000000   0.000000   0.000000
     63       0.000000   0.000000   0.000000   0.000000   0.000000   0.000000
     64       0.000000   0.000000   0.000000   0.000000   0.000000   0.000000
     65       0.000000   0.000000   0.000000   0.000000   0.000000   0.000000
     66       0.000000   0.000000   0.000000   0.000000   0.000000   0.000000
     67       0.000000   0.000000   0.000000   0.000000   0.000000   0.000000
     68       0.000000   0.000000   0.000000   0.000000   0.000000   0.000000
     69       0.000000   0.000000   0.000000   0.000000   0.000000   0.000000
     70       0.000000   0.000000   0.000000   0.000000   0.000000   0.000000
     71       0.000000   0.000000   0.000000   0.000000   0.000000   0.000000
     72       0.000000   0.000000   0.000000   0.000000   0.000000   0.000000
     73       0.000000   0.000000   0.000000   0.000000   0.000000   0.000000
     74       0.000000   0.000000   0.000000   0.000000   0.000000   0.000000
     75       0.000000   0.000000   0.000000   0.000000   0.000000   0.000000
     76       0.000000   0.000000   0.000000   0.000000   0.000000   0.000000
     77       0.000000   0.000000   0.000000   0.000000   0.000000   0.000000
     78       0.000000   0.000000   0.000000   0.000000   0.000000   0.000000
     79       0.000000   0.000000   0.000000   0.000000   0.000000   0.000000
     80       0.000000   0.000000   0.000000   0.000000   0.000000   0.000000
     81       0.000000   0.000000   0.000000   0.000000   0.000000   0.000000
     82       0.000000   0.000000   0.000000   0.000000   0.000000   0.000000
     83       0.000000   0.000000   0.000000   0.000000   0.000000   0.000000
     84       0.000000   0.000000   0.000000   0.000000   0.000000   0.000000
     85       0.000000   0.000000   0.000000   0.000000   0.000000   0.000000
     86       0.000000   0.000000   0.000000   0.000000   0.000000   0.000000
     87       0.000000   0.000000   0.000000   0.000000   0.000000   0.000000
     88       0.000000   0.000000   0.000000   0.000000   0.000000   0.000000
     89       0.000000   0.000000   0.000000   0.000000   0.000000   0.000000
     90       0.000000   0.000000   0.000000   0.000000   0.000000   0.000000
     91       0.000000   0.000000   0.000000   0.000000   0.000000   0.000000
     92       0.000000   0.000000   0.000000   0.000000   0.000000   0.000000
     93       0.000000   0.000000   0.000000   0.000000   0.000000   0.000000
     94       0.000000   0.000000   0.000000   0.000000   0.000000   0.000000
     95       0.000000   0.000000   0.000000   0.000000   0.000000   0.000000
     96       0.000000   0.000000   0.000000   0.000000   0.000000   0.000000
     97       0.000000   0.000000   0.000000   0.000000   0.000000   0.000000
     98       0.000000   0.000000   0.000000   0.000000   0.000000   0.000000
     99       0.000000   0.000000   0.000000   0.000000   0.000000   0.000000
    100       0.000000   0.000000   0.000000   0.000000   0.000000   0.000000
    101       0.000000   0.000000   0.000000   0.000000   0.000000   0.000000
    102       0.000000   0.000000   0.000000   0.000000   0.000000   0.000000
    103       0.000000   0.000000   0.000000   0.000000   0.000000   0.000000
    104       0.000000   0.000000   0.000000   0.000000   0.000000   0.000000
    105       0.000000   0.000000   0.000000   0.000000   0.000000   0.000000
    106       0.000000   0.000000   0.000000   0.000000   0.000000   0.000000
    107       0.000000   0.000000   0.000000   0.000000   0.000000   0.000000
                  6          7          8          9         10         11    
      0       0.016650  -0.014770   0.062272   0.020319   0.018549  -0.003549
      1      -0.001600  -0.022207  -0.031785   0.000904   0.028448   0.012089
      2      -0.004698  -0.008592  -0.000438   0.016533   0.011912   0.044931
      3       0.048696   0.012030   0.070005  -0.013279  -0.056645  -0.007922
      4       0.016699  -0.000341  -0.021276  -0.014846  -0.044090   0.005711
      5      -0.055006   0.012918   0.054298   0.108041  -0.183247   0.003351
      6       0.037407   0.017727   0.076293  -0.018569  -0.054002  -0.018329
      7       0.054812   0.036928  -0.017718  -0.084898  -0.091761  -0.000709
      8      -0.100106   0.051101   0.085531   0.061473  -0.178690  -0.051680
      9      -0.005988  -0.004420   0.075781   0.007678   0.024462  -0.026011
     10       0.075970   0.052954  -0.023509  -0.140309  -0.066358  -0.001833
     11      -0.097660   0.069754   0.066658  -0.077517   0.020896  -0.067008
     12      -0.038343  -0.031457   0.068302   0.041480   0.098522  -0.021578
     13       0.057094   0.032602  -0.033090  -0.123405   0.001619   0.005182
     14      -0.052015   0.051455   0.012936  -0.165089   0.207520  -0.022394
     15      -0.027442  -0.036878   0.061912   0.046711   0.094138  -0.010645
     16       0.019099  -0.004832  -0.038081  -0.053477   0.049203   0.012066
     17      -0.005174   0.012621  -0.022328  -0.119286   0.202955   0.033741
     18       0.031285  -0.019462   0.059208   0.017858   0.015205  -0.001522
     19      -0.049645  -0.052956  -0.026609   0.068504   0.069456   0.015801
     20       0.059121  -0.051760  -0.011767   0.031604   0.019422   0.060301
     21       0.082444   0.028703   0.071272  -0.036054  -0.118471  -0.003041
     22       0.000767  -0.012623  -0.016463   0.028410  -0.062645   0.005746
     23      -0.055443  -0.001562   0.071480   0.211019  -0.332931   0.010806
     24      -0.050931  -0.060260   0.050643   0.066964   0.147015  -0.008936
     25       0.006064  -0.021666  -0.048239  -0.043293   0.096887   0.015229
     26       0.034632  -0.001029  -0.069051  -0.184389   0.338739   0.063527
     27      -0.014377  -0.000496   0.080756   0.003195   0.027917  -0.034664
     28       0.107106   0.081652  -0.019937  -0.194465  -0.102287  -0.008340
     29      -0.131235   0.098387   0.093026  -0.116425   0.027979  -0.113389
     30      -0.012129   0.015703   0.044614   0.017733   0.008499   0.015032
     31      -0.082166  -0.004059   0.022495   0.092438   0.027121   0.030363
     32       0.087854  -0.078454  -0.011444   0.030076   0.031614   0.048953
     33      -0.030896  -0.002564   0.037951   0.034874   0.017162   0.014325
     34      -0.027775   0.032621   0.035930   0.049477   0.010271   0.027725
     35       0.154806  -0.132623  -0.012290   0.006597   0.060222  -0.007218
     36       0.083852   0.135131  -0.238265   0.110545   0.009966   0.008471
     37      -0.101420  -0.031195   0.003071   0.116482  -0.014739  -0.027906
     38       0.068998  -0.114319  -0.043790   0.028882  -0.036514  -0.013222
     39      -0.003096   0.039653   0.055560  -0.007414  -0.003563   0.018228
     40       0.041483   0.041254   0.054060   0.003729   0.002004  -0.002932
     41      -0.053105   0.043909  -0.006883   0.014049  -0.007862   0.168451
     42      -0.032272  -0.033805   0.028082   0.061709   0.027664   0.003979
     43      -0.190685   0.181034   0.043948   0.061640  -0.053303   0.187431
     44       0.247261  -0.210040  -0.014746  -0.005814   0.093980  -0.095802
     45      -0.067448  -0.014841   0.028741   0.050772   0.027917   0.019688
     46       0.121114  -0.087929   0.032552   0.030475   0.061262  -0.109653
     47       0.287476  -0.242781  -0.016657  -0.009671   0.107555  -0.132041
     48      -0.038286   0.109932   0.051038  -0.045558  -0.012545  -0.068733
     49       0.161404  -0.063701   0.030405  -0.009597   0.066938  -0.245574
     50      -0.113263   0.088643   0.007125   0.028986  -0.042223   0.320150
     51       0.068570   0.014277   0.081329  -0.022633  -0.021284   0.113002
     52      -0.069769   0.121368   0.068586   0.023594  -0.048731   0.199228
     53      -0.149386   0.115399   0.009251   0.030893  -0.056251   0.363461
     54       0.019356  -0.036588   0.077028   0.062463   0.029869   0.005557
     55      -0.068336  -0.079550  -0.039550   0.090635   0.098057   0.017732
     56       0.075734  -0.023055   0.025314   0.036905  -0.015592   0.061993
     57      -0.123150  -0.198163  -0.195589  -0.298169  -0.144629   0.027911
     58      -0.096873  -0.126711  -0.084358   0.076772   0.016951  -0.047454
     59       0.061296  -0.054572   0.014433   0.060540  -0.096251  -0.035058
     60      -0.039300  -0.089870   0.005828  -0.026879  -0.031857  -0.009901
     61      -0.072114  -0.078940  -0.044861   0.070566   0.064534   0.006712
     62       0.069730  -0.023632   0.016484   0.008427  -0.065008   0.045364
     63      -0.147126  -0.235476  -0.196171  -0.362396  -0.175621   0.035370
     64      -0.131154  -0.183676  -0.117590  -0.045657  -0.034450  -0.030700
     65       0.012946  -0.120392   0.097594   0.010212  -0.139802  -0.035696
     66       0.116477   0.172779  -0.406087   0.146410   0.000732  -0.006293
     67      -0.101305  -0.032967  -0.004112   0.121643  -0.032693  -0.047440
     68       0.067902  -0.116002  -0.047966   0.038255  -0.059020  -0.039284
     69      -0.052992  -0.082673  -0.264580  -0.170117  -0.081143   0.020883
     70      -0.098848  -0.093242  -0.067397   0.104175  -0.006082  -0.052189
     71       0.059277  -0.073405   0.010346   0.044689  -0.087817  -0.032398
     72       0.154202   0.224716  -0.485750   0.199316   0.008824  -0.011635
     73      -0.083156   0.000992   0.063760   0.165549  -0.019442  -0.052737
     74       0.141141  -0.014325  -0.195728   0.142332  -0.042183  -0.049729
     75       0.092687  -0.028895   0.053602  -0.013348   0.008928  -0.007795
     76      -0.052036  -0.081952  -0.046050   0.076600   0.095453   0.011086
     77       0.072200  -0.091652  -0.038019   0.034190   0.053092   0.052016
     78      -0.047816   0.009585   0.034674   0.033676   0.012747   0.024901
     79      -0.123928  -0.019450   0.039298   0.124141   0.020526   0.033426
     80       0.101909  -0.067433  -0.042708   0.007715   0.044715   0.054656
     81      -0.025810   0.021600   0.040412   0.019989   0.010527   0.006580
     82       0.092570   0.083696   0.089405  -0.060384  -0.030076   0.019482
     83      -0.046583   0.066518  -0.044113  -0.028475   0.036284  -0.145525
     84      -0.012380  -0.046273   0.051558   0.070300   0.012222   0.112608
     85       0.018545   0.169136   0.097600  -0.060861  -0.078534   0.251743
     86      -0.009368   0.033451  -0.050529  -0.037611   0.061921  -0.289436
     87      -0.076802   0.041241  -0.000292   0.034168   0.036708  -0.098798
     88       0.159889   0.019951   0.088487  -0.069583   0.004771  -0.167167
     89       0.016180   0.005118  -0.047894  -0.036607   0.072391  -0.336364
     90      -0.071430  -0.047819   0.067922   0.065041   0.158728  -0.026930
     91       0.072678   0.044738  -0.037577  -0.165543   0.018290   0.004362
     92      -0.050874   0.066729  -0.002616  -0.269558   0.355083  -0.033316
     93       0.062327   0.038903   0.081340  -0.043700  -0.112036  -0.020611
     94       0.068550   0.053086  -0.010234  -0.095266  -0.146970  -0.005660
     95      -0.136023   0.065797   0.125849   0.131047  -0.328318  -0.085143
     96       0.001719   0.066502   0.063509  -0.036533  -0.011775  -0.005247
     97       0.148667   0.098290   0.119904  -0.115482  -0.045837  -0.019266
     98      -0.165302   0.212560  -0.070346  -0.051061   0.001116  -0.031034
     99      -0.013574   0.052522   0.051313  -0.013723  -0.001642  -0.007776
    100       0.181356   0.127401   0.146275  -0.163322  -0.067697  -0.010362
    101      -0.169831   0.233554  -0.089413  -0.072846   0.020886  -0.198840
    102       0.057191   0.043025   0.100112  -0.057119  -0.030642   0.061047
    103       0.094604   0.154939   0.117040  -0.113209  -0.072814   0.127294
    104      -0.218070   0.268534  -0.072409  -0.049248  -0.026225   0.116728
    105      -0.019137   0.136330   0.056277  -0.081112  -0.019728  -0.077986
    106       0.210465   0.022547   0.118959  -0.110544  -0.008763  -0.202791
    107      -0.193930   0.241738  -0.068876  -0.047542  -0.016682   0.072262
                 12         13         14         15         16         17    
      0       0.024898   0.030395  -0.015706  -0.003560  -0.023670   0.015736
      1      -0.014215  -0.032441  -0.004392  -0.087158   0.127440   0.027990
      2      -0.025927  -0.146794   0.009159   0.044328  -0.060420   0.050818
      3       0.038698   0.049285  -0.015632   0.039381  -0.092105   0.013156
      4      -0.002615  -0.014800  -0.004998  -0.058130   0.082129   0.025309
      5      -0.006218  -0.084568  -0.006097   0.022044  -0.019621   0.071545
      6       0.045004   0.077590  -0.018473   0.031094  -0.080223   0.000586
      7       0.014331   0.019942  -0.001122   0.004932  -0.014790  -0.011463
      8       0.025960   0.065216  -0.018647  -0.010700   0.034920   0.003259
      9       0.040144   0.094394  -0.024142  -0.028912   0.008508   0.001152
     10       0.020134   0.039547   0.002317   0.032322  -0.055192  -0.035427
     11       0.038447   0.154316  -0.016194  -0.014517   0.040553  -0.073112
     12       0.026081   0.072558  -0.024856  -0.074925   0.078610   0.024873
     13       0.008166   0.015914   0.003456   0.002442  -0.010624  -0.012659
     14       0.011911   0.061107   0.002417   0.016481  -0.017870  -0.004198
     15       0.020918   0.043425  -0.021613  -0.062589   0.059454   0.034172
     16      -0.009368  -0.020697   0.000109  -0.060280   0.085565   0.022963
     17      -0.019808  -0.091762   0.015517   0.046109  -0.068797   0.064465
     18       0.026726   0.031133  -0.016304   0.002561  -0.018650   0.005032
     19      -0.009080  -0.028804  -0.008357  -0.083970   0.107808  -0.042197
     20       0.001324  -0.110261  -0.008050   0.044821  -0.043221  -0.053329
     21       0.046443   0.044568  -0.013327   0.083146  -0.162232   0.009633
     22      -0.007983  -0.027642  -0.007566  -0.078208   0.114973   0.037492
     23      -0.011536  -0.132096  -0.010997   0.022864  -0.017676   0.106257
     24       0.010455   0.034636  -0.024006  -0.105803   0.118634   0.050632
     25      -0.018358  -0.030014  -0.000743  -0.087967   0.122728   0.036792
     26      -0.033904  -0.143956   0.027622   0.065870  -0.100497   0.090283
     27       0.045267   0.119358  -0.026674  -0.036595   0.021872  -0.015134
     28       0.034003   0.072235   0.004075   0.076930  -0.121694  -0.067243
     29       0.068517   0.292354  -0.028758  -0.041203   0.088928  -0.166132
     30      -0.052900  -0.085193   0.011322  -0.023658  -0.036935   0.055407
     31       0.152678  -0.059375   0.010229  -0.026672  -0.001931  -0.124126
     32       0.013396  -0.040650  -0.024979   0.058241  -0.020344  -0.059380
     33      -0.053528  -0.093139   0.023178   0.016468   0.024808  -0.002720
     34       0.146153  -0.030069  -0.018082  -0.112507  -0.131055   0.068077
     35       0.043988   0.099833  -0.060129   0.133443   0.102690   0.141042
     36       0.010381  -0.007869   0.007651   0.040177  -0.007460   0.060566
     37       0.086537  -0.015721   0.032919   0.224829   0.061966   0.021302
     38      -0.178908   0.042397  -0.027641  -0.268746  -0.134366  -0.129133
     39      -0.109445  -0.075606   0.037090   0.005682   0.008271   0.074636
     40       0.102724  -0.026354  -0.048695  -0.101815  -0.141167   0.164018
     41      -0.004125   0.195084   0.157795   0.000620   0.029706   0.084524
     42      -0.051311  -0.188415  -0.006832   0.022865   0.014271  -0.154267
     43       0.091425  -0.020847   0.147585  -0.254526  -0.260670  -0.061120
     44       0.074221   0.114011  -0.147689   0.212596   0.178099   0.244138
     45      -0.031711  -0.023466   0.058259   0.058108   0.121126  -0.009703
     46       0.184708  -0.034469  -0.162629   0.001221  -0.031554   0.199642
     47       0.080253   0.099862  -0.188956   0.240042   0.199908   0.263426
     48      -0.125624  -0.134193   0.105341  -0.032053  -0.017897   0.033902
     49       0.180474  -0.170569  -0.156012  -0.043368  -0.128011   0.173514
     50      -0.044342   0.286543   0.203959  -0.023830   0.028126   0.083185
     51      -0.182620   0.007191  -0.014725   0.075859   0.076734   0.112845
     52       0.049879   0.091164   0.042351  -0.151112  -0.152975   0.137406
     53      -0.059334   0.310404   0.235998  -0.039746   0.023204   0.065402
     54       0.090332   0.082415  -0.022912   0.034762  -0.070694  -0.198918
     55      -0.061535  -0.005372  -0.012642  -0.062269   0.072185  -0.086606
     56       0.135504  -0.100389  -0.005414   0.060733  -0.050364  -0.164367
     57       0.088025  -0.037099  -0.001644  -0.013442   0.034233  -0.002259
     58      -0.215228   0.097233   0.003291   0.152403  -0.223771   0.000714
     59       0.008082  -0.017449   0.004866  -0.064294   0.129316   0.037432
     60       0.030731   0.035214  -0.013917  -0.021250  -0.029887  -0.097995
     61      -0.045629  -0.015420  -0.008801  -0.098478   0.104906  -0.067576
     62       0.153176  -0.110077   0.000450   0.023725  -0.021430  -0.137687
     63       0.109629  -0.052812  -0.000485   0.008206   0.020600  -0.002562
     64      -0.172053   0.064269   0.005163   0.202188  -0.283926  -0.010349
     65       0.021324  -0.023043   0.006620  -0.071308   0.213577   0.065657
     66       0.037466   0.044058   0.008955   0.013137   0.016471  -0.006744
     67       0.062782  -0.000317   0.036154   0.221722   0.099900   0.065540
     68      -0.202370   0.058829  -0.020959  -0.230168  -0.074430  -0.053480
     69       0.085806  -0.020247   0.001844  -0.009816   0.027882  -0.007524
     70      -0.122109   0.075835   0.018092   0.218676  -0.101489   0.042974
     71      -0.032108  -0.008353  -0.001367  -0.082788   0.072478   0.021032
     72       0.050390   0.063659   0.010809  -0.003075   0.022925  -0.046518
     73       0.042736  -0.020179   0.040329   0.247285   0.117986   0.121423
     74      -0.179103   0.095250  -0.017216  -0.261336  -0.061468  -0.126490
     75       0.035826   0.072088  -0.030493  -0.009962   0.045111   0.027707
     76      -0.079242  -0.005556  -0.016294  -0.081582   0.113215  -0.032624
     77      -0.087242  -0.068772  -0.022455   0.044616  -0.016661  -0.030049
     78      -0.096403  -0.152482   0.030211  -0.012429   0.005506  -0.044961
     79       0.186252  -0.091225   0.029889   0.040288   0.019903  -0.290602
     80      -0.077238  -0.074435  -0.030090  -0.012285  -0.001945   0.039663
     81      -0.058498  -0.097623   0.031276  -0.025082  -0.030431   0.111021
     82      -0.022993   0.012897  -0.029914  -0.024789  -0.042151   0.079070
     83       0.068910  -0.023952   0.173745  -0.038532  -0.031337   0.018921
     84      -0.005648  -0.002467   0.109506  -0.060695  -0.065470   0.215614
     85      -0.150673   0.122703  -0.236917   0.039534   0.032089   0.074232
     86       0.126928  -0.100548   0.268984  -0.065688  -0.063783   0.000333
     87       0.016624  -0.205312  -0.056720  -0.081628  -0.117239   0.159537
     88       0.059289  -0.072009   0.144850  -0.060167  -0.078656   0.050472
     89       0.155166  -0.115057   0.338552  -0.077400  -0.073905  -0.004088
     90       0.020200   0.079155  -0.027951  -0.120046   0.150589   0.033528
     91       0.013274   0.030217   0.005704   0.023067  -0.043882  -0.022239
     92       0.019661   0.118744   0.005226   0.016211  -0.019209  -0.023490
     93       0.053668   0.088066  -0.016329   0.072259  -0.140578  -0.014284
     94       0.022101   0.033295  -0.001003   0.030991  -0.052452  -0.023031
     95       0.044829   0.126249  -0.032325  -0.034146   0.076841  -0.008898
     96      -0.176568  -0.104730   0.035662   0.068966   0.095421  -0.063180
     97      -0.119561   0.010895   0.053221   0.062092   0.081674  -0.102296
     98      -0.053982  -0.040393  -0.174526   0.020074   0.013724  -0.017286
     99      -0.124058  -0.109979   0.025650   0.022552   0.032274   0.015320
    100      -0.231727   0.024929   0.073885   0.161677   0.217261  -0.267328
    101      -0.017265  -0.173014  -0.135292  -0.028029  -0.047865  -0.122392
    102      -0.252706  -0.021165   0.115503   0.156362   0.220957  -0.127069
    103      -0.196563   0.074673  -0.138378   0.116170   0.135352  -0.060139
    104      -0.132457   0.025120  -0.363993   0.075871   0.069938   0.023453
    105      -0.243766  -0.190077  -0.029573   0.104056   0.135412  -0.224549
    106      -0.006146  -0.070481   0.288652  -0.020270  -0.005967  -0.130286
    107      -0.102731   0.012523  -0.285700   0.057381   0.053045   0.018599
                 18         19         20         21         22         23    
      0       0.069533   0.027840   0.002685   0.000756  -0.005400   0.000246
      1       0.086836  -0.104668  -0.018837  -0.007655  -0.043740   0.003611
      2       0.069096   0.089757   0.011009   0.005020  -0.004954  -0.003781
      3       0.086890   0.100766   0.016394   0.005167   0.001777  -0.001607
      4       0.094162  -0.053311  -0.009368  -0.004038  -0.027505   0.004551
      5       0.126776   0.108563   0.008594   0.009145   0.078626   0.010095
      6       0.070746   0.081765   0.014925   0.003638  -0.010410  -0.003436
      7       0.006067   0.027866   0.009424   0.002168  -0.000694  -0.001204
      8       0.003015  -0.009063  -0.004576   0.000190   0.029321   0.002237
      9       0.101324  -0.008134   0.001977  -0.003690  -0.065767  -0.003678
     10      -0.057954   0.039673   0.014104   0.002741  -0.004251  -0.004400
     11      -0.153404  -0.111108  -0.009950  -0.009433  -0.069442  -0.008096
     12       0.148810  -0.054974  -0.009295  -0.006234  -0.054405   0.002710
     13      -0.010954   0.016878   0.006750   0.001782   0.013063   0.001769
     14      -0.006747   0.028126   0.006197   0.001751   0.036213   0.006372
     15       0.158478  -0.020865  -0.004358  -0.003352  -0.035124   0.002169
     16       0.070920  -0.064634  -0.013151  -0.004234  -0.007804   0.005764
     17       0.120726   0.144104   0.017436   0.010364   0.085511   0.005924
     18       0.023354  -0.005479  -0.003841  -0.001592  -0.003108   0.001164
     19      -0.016833   0.011753   0.020438   0.004418   0.007124   0.002170
     20      -0.023166  -0.001702   0.015599  -0.006331  -0.137607  -0.007096
     21       0.088410   0.178333   0.031141   0.010393   0.015637  -0.004022
     22       0.115221  -0.075167  -0.015412  -0.005105  -0.019984   0.008470
     23       0.198921   0.154188   0.011928   0.013276   0.118739   0.018552
     24       0.215428  -0.058077  -0.008391  -0.006289  -0.058306   0.000757
     25       0.116805  -0.085280  -0.016454  -0.006108  -0.021003   0.006106
     26       0.171553   0.219858   0.020927   0.014357   0.135792   0.013294
     27       0.069969  -0.038773  -0.001018  -0.006233  -0.086563  -0.005732
     28      -0.132880   0.072326   0.022728   0.004574  -0.007623  -0.009417
     29      -0.333787  -0.258439  -0.022833  -0.021972  -0.178928  -0.020129
     30      -0.025935  -0.003289   0.005835   0.000732  -0.049057  -0.002184
     31       0.021849  -0.056391  -0.058887   0.010769   0.186337  -0.010678
     32      -0.026686  -0.004127   0.020142  -0.009948  -0.135560  -0.004004
     33      -0.043499  -0.037640  -0.022080   0.000827   0.036529  -0.003380
     34      -0.033405  -0.022841  -0.010978   0.005896   0.042896  -0.006055
     35      -0.077976  -0.038442  -0.046785  -0.018715   0.107699  -0.004632
     36      -0.031469   0.014802   0.051996  -0.003103  -0.132399  -0.073514
     37      -0.008007   0.057633  -0.071531  -0.017990  -0.038804  -0.059923
     38       0.021031  -0.015528  -0.119099   0.000328   0.122260  -0.084986
     39      -0.129046  -0.054292  -0.011242  -0.007103  -0.006985   0.004669
     40      -0.108748  -0.030316  -0.001354   0.000307  -0.010157   0.001799
     41      -0.018664  -0.011403  -0.004756  -0.028400   0.041172  -0.000544
     42       0.013274  -0.019938  -0.001341   0.009231  -0.054491  -0.005758
     43       0.036524   0.024609   0.069625   0.000802  -0.183286   0.000815
     44      -0.128390  -0.068991  -0.096888  -0.017522   0.254844  -0.007926
     45      -0.016623  -0.063634  -0.073364   0.000320   0.227240  -0.008283
     46      -0.104037  -0.062728  -0.075326   0.008804   0.217961  -0.009937
     47      -0.143451  -0.076764  -0.107455  -0.016157   0.277693  -0.008265
     48      -0.117432  -0.037035  -0.000312   0.028539  -0.075266   0.009493
     49      -0.136807  -0.043572  -0.045617   0.061158   0.016744   0.000887
     50      -0.003670  -0.006082   0.018380  -0.069258   0.039073  -0.000922
     51      -0.153482  -0.060828  -0.000137  -0.052423   0.002802   0.006149
     52      -0.069388  -0.016388   0.031290  -0.048221  -0.021506   0.001041
     53       0.013632   0.000426   0.026582  -0.077753   0.030771  -0.001064
     54      -0.118499   0.112766   0.052045   0.014011   0.052161   0.018928
     55      -0.123445   0.190179   0.094948   0.014287  -0.024477   0.008511
     56       0.031146  -0.188711  -0.059832  -0.009606  -0.048488  -0.002270
     57      -0.012672   0.018411  -0.008569  -0.001761  -0.004517  -0.000255
[...]
     75      -0.000046   0.001553   0.002372  -0.001472  -0.000306   0.000138
     76      -0.000807   0.013361   0.022142   0.003477  -0.000259  -0.000015
     77       0.000987  -0.009659  -0.013549  -0.004647   0.000044  -0.000093
     78      -0.000491   0.004661   0.002324   0.556539  -0.001703   0.000982
     79       0.000245  -0.003309  -0.001544  -0.633665   0.002610  -0.001382
     80      -0.000089  -0.005526  -0.001482  -0.532188   0.001200  -0.000867
     81      -0.000013  -0.000038  -0.000013  -0.000024  -0.000019  -0.000004
     82      -0.000056  -0.000128  -0.000175   0.000051   0.000009  -0.000007
     83      -0.000001   0.000050   0.000023   0.000042   0.000006   0.000002
     84       0.000066   0.000375   0.000445  -0.000226   0.000023  -0.000073
     85       0.000234   0.000517   0.001086  -0.000177  -0.000086  -0.000069
     86       0.000428   0.000908   0.001576  -0.000331  -0.000201  -0.000029
     87       0.000017   0.000201   0.000153   0.000142   0.000285  -0.000090
     88       0.000409   0.001115   0.001329   0.000350   0.000289  -0.000115
     89      -0.000403  -0.001170  -0.001159  -0.000256  -0.000169   0.000047
     90      -0.067057  -0.002273  -0.000996  -0.000539  -0.000022   0.000204
     91      -0.147249  -0.004851  -0.000913  -0.000750  -0.000073   0.000444
     92       0.044039   0.001395   0.000450   0.000318   0.000094  -0.000146
     93      -0.015208  -0.003663  -0.003389  -0.000873  -0.000033  -0.000174
     94       0.022265   0.005259   0.004887   0.000934  -0.000005   0.000285
     95      -0.002287  -0.000560  -0.000460  -0.000066   0.000016  -0.000040
     96      -0.000008  -0.000095  -0.000023  -0.000017  -0.000018   0.000009
     97      -0.000015  -0.000063  -0.000137   0.000019  -0.000025   0.000037
     98      -0.000004   0.000136   0.000006   0.000020   0.000022   0.000005
     99       0.000077   0.001595   0.000340  -0.000018   0.000204  -0.000058
    100       0.000047   0.000739   0.000210   0.000033   0.000054  -0.000065
    101       0.000006  -0.000059   0.000042  -0.000006  -0.000037   0.000001
    102      -0.000003  -0.000101   0.000012   0.000053  -0.000054   0.000043
    103      -0.000016   0.000597   0.000790  -0.000230   0.000248  -0.000230
    104       0.000049  -0.000963  -0.000381   0.000235  -0.000264   0.000078
    105       0.000003  -0.000249  -0.000051   0.000069   0.000023   0.000009
    106       0.000020  -0.000482   0.000444  -0.000317   0.000040  -0.000204
    107       0.000002  -0.000480   0.000338  -0.000549   0.000136  -0.000164


-----------
IR SPECTRUM  
-----------

 Mode    freq (cm**-1)   T**2         TX         TY         TZ
-------------------------------------------------------------------
   6:        31.06    0.000000  (  0.000000   0.000000   0.000000)
   7:        49.44    0.000000  (  0.000000   0.000000   0.000000)
   8:        49.71    0.000000  (  0.000000   0.000000   0.000000)
   9:        68.31    0.000000  (  0.000000   0.000000   0.000000)
  10:        72.48    0.000000  (  0.000000   0.000000   0.000000)
  11:        85.82    0.000000  (  0.000000   0.000000   0.000000)
  12:       101.69    0.000000  (  0.000000   0.000000   0.000000)
  13:       112.31    0.000000  (  0.000000   0.000000   0.000000)
  14:       120.18    0.000000  (  0.000000   0.000000   0.000000)
  15:       169.92    0.000000  (  0.000000   0.000000   0.000000)
  16:       171.97    0.000000  (  0.000000   0.000000   0.000000)
  17:       217.47    0.000000  (  0.000000   0.000000   0.000000)
  18:       240.01    0.000000  (  0.000000   0.000000   0.000000)
  19:       246.40    0.000000  (  0.000000   0.000000   0.000000)
  20:       263.34    0.000000  (  0.000000   0.000000   0.000000)
  21:       269.84    0.000000  (  0.000000   0.000000   0.000000)
  22:       312.20    0.000000  (  0.000000   0.000000   0.000000)
  23:       338.80    0.000000  (  0.000000   0.000000   0.000000)
  24:       351.62    0.000000  (  0.000000   0.000000   0.000000)
  25:       365.41    0.000000  (  0.000000   0.000000   0.000000)
  26:       382.33    0.000000  (  0.000000   0.000000   0.000000)
  27:       404.21    0.000000  (  0.000000   0.000000   0.000000)
  28:       432.99    0.000000  (  0.000000   0.000000   0.000000)
  29:       477.63    0.000000  (  0.000000   0.000000   0.000000)
  30:       490.06    0.000000  (  0.000000   0.000000   0.000000)
  31:       525.51    0.000000  (  0.000000   0.000000   0.000000)
  32:       551.38    0.000000  (  0.000000   0.000000   0.000000)
  33:       588.89    0.000000  (  0.000000   0.000000   0.000000)
  34:       621.28    0.000000  (  0.000000   0.000000   0.000000)
  35:       628.96    0.000000  (  0.000000   0.000000   0.000000)
  36:       679.71    0.000000  (  0.000000   0.000000   0.000000)
  37:       700.31    0.000000  (  0.000000   0.000000   0.000000)
  38:       763.08    0.000000  (  0.000000   0.000000   0.000000)
  39:       771.53    0.000000  (  0.000000   0.000000   0.000000)
  40:       811.66    0.000000  (  0.000000   0.000000   0.000000)
  41:       818.61    0.000000  (  0.000000   0.000000   0.000000)
  42:       840.96    0.000000  (  0.000000   0.000000   0.000000)
  43:       861.62    0.000000  (  0.000000   0.000000   0.000000)
  44:       885.54    0.000000  (  0.000000   0.000000   0.000000)
  45:       909.75    0.000000  (  0.000000   0.000000   0.000000)
  46:       931.35    0.000000  (  0.000000   0.000000   0.000000)
  47:       933.90    0.000000  (  0.000000   0.000000   0.000000)
  48:       938.03    0.000000  (  0.000000   0.000000   0.000000)
  49:       950.40    0.000000  (  0.000000   0.000000   0.000000)
  50:       967.57    0.000000  (  0.000000   0.000000   0.000000)
  51:       982.00    0.000000  (  0.000000   0.000000   0.000000)
  52:      1032.12    0.000000  (  0.000000   0.000000   0.000000)
  53:      1065.75    0.000000  (  0.000000   0.000000   0.000000)
  54:      1075.28    0.000000  (  0.000000   0.000000   0.000000)
  55:      1099.21    0.000000  (  0.000000   0.000000   0.000000)
  56:      1115.76    0.000000  (  0.000000   0.000000   0.000000)
  57:      1119.40    0.000000  (  0.000000   0.000000   0.000000)
  58:      1131.64    0.000000  (  0.000000   0.000000   0.000000)
  59:      1154.41    0.000000  (  0.000000   0.000000   0.000000)
  60:      1176.70    0.000000  (  0.000000   0.000000   0.000000)
  61:      1190.52    0.000000  (  0.000000   0.000000   0.000000)
  62:      1205.96    0.000000  (  0.000000   0.000000   0.000000)
  63:      1219.55    0.000000  (  0.000000   0.000000   0.000000)
  64:      1225.33    0.000000  (  0.000000   0.000000   0.000000)
  65:      1258.53    0.000000  (  0.000000   0.000000   0.000000)
  66:      1274.69    0.000000  (  0.000000   0.000000   0.000000)
  67:      1278.91    0.000000  (  0.000000   0.000000   0.000000)
  68:      1281.28    0.000000  (  0.000000   0.000000   0.000000)
  69:      1289.62    0.000000  (  0.000000   0.000000   0.000000)
  70:      1304.84    0.000000  (  0.000000   0.000000   0.000000)
  71:      1330.45    0.000000  (  0.000000   0.000000   0.000000)
  72:      1351.20    0.000000  (  0.000000   0.000000   0.000000)
  73:      1362.23    0.000000  (  0.000000   0.000000   0.000000)
  74:      1380.01    0.000000  (  0.000000   0.000000   0.000000)
  75:      1423.87    0.000000  (  0.000000   0.000000   0.000000)
  76:      1428.92    0.000000  (  0.000000   0.000000   0.000000)
  77:      1462.60    0.000000  (  0.000000   0.000000   0.000000)
  78:      1473.11    0.000000  (  0.000000   0.000000   0.000000)
  79:      1503.12    0.000000  (  0.000000   0.000000   0.000000)
  80:      1506.45    0.000000  (  0.000000   0.000000   0.000000)
  81:      1507.07    0.000000  (  0.000000   0.000000   0.000000)
  82:      1512.79    0.000000  (  0.000000   0.000000   0.000000)
  83:      1526.22    0.000000  (  0.000000   0.000000   0.000000)
  84:      1540.33    0.000000  (  0.000000   0.000000   0.000000)
  85:      1568.53    0.000000  (  0.000000   0.000000   0.000000)
  86:      1576.09    0.000000  (  0.000000   0.000000   0.000000)
  87:      2878.15    0.000000  (  0.000000   0.000000   0.000000)
  88:      2891.89    0.000000  (  0.000000   0.000000   0.000000)
  89:      2902.14    0.000000  (  0.000000   0.000000   0.000000)
  90:      2936.73    0.000000  (  0.000000   0.000000   0.000000)
  91:      2961.28    0.000000  (  0.000000   0.000000   0.000000)
  92:      2968.25    0.000000  (  0.000000   0.000000   0.000000)
  93:      2974.52    0.000000  (  0.000000   0.000000   0.000000)
  94:      2978.94    0.000000  (  0.000000   0.000000   0.000000)
  95:      2984.18    0.000000  (  0.000000   0.000000   0.000000)
  96:      2997.59    0.000000  (  0.000000   0.000000   0.000000)
  97:      3005.15    0.000000  (  0.000000   0.000000   0.000000)
  98:      3041.23    0.000000  (  0.000000   0.000000   0.000000)
  99:      3052.48    0.000000  (  0.000000   0.000000   0.000000)
 100:      3057.65    0.000000  (  0.000000   0.000000   0.000000)
 101:      3069.42    0.000000  (  0.000000   0.000000   0.000000)
 102:      3088.66    0.000000  (  0.000000   0.000000   0.000000)
 103:      3128.96    0.000000  (  0.000000   0.000000   0.000000)
 104:      3211.65    0.000000  (  0.000000   0.000000   0.000000)
 105:      3383.46    0.000000  (  0.000000   0.000000   0.000000)
 106:      3569.40    0.000000  (  0.000000   0.000000   0.000000)
 107:      3577.94    0.000000  (  0.000000   0.000000   0.000000)

The first frequency considered to be a vibration is 6
The total number of vibrations considered is 102


--------------------------
THERMOCHEMISTRY AT 298.15K
--------------------------

Temperature         ... 298.15 K
Pressure            ... 1.00 atm
Total Mass          ... 215.29 AMU

Throughout the following assumptions are being made:
  (1) The electronic state is orbitally nondegenerate
  (2) There are no thermally accessible electronically excited states
  (3) Hindered rotations indicated by low frequency modes are not
      treated as such but are treated as vibrations and this may
      cause some error
  (4) All equations used are the standard statistical mechanics
      equations for an ideal gas
  (5) All vibrations are strictly harmonic

freq.      31.06  E(vib)   ...       0.55 
freq.      49.44  E(vib)   ...       0.52 
freq.      49.71  E(vib)   ...       0.52 
freq.      68.31  E(vib)   ...       0.50 
freq.      72.48  E(vib)   ...       0.49 
freq.      85.82  E(vib)   ...       0.48 
freq.     101.69  E(vib)   ...       0.46 
freq.     112.31  E(vib)   ...       0.45 
freq.     120.18  E(vib)   ...       0.44 
freq.     169.92  E(vib)   ...       0.38 
freq.     171.97  E(vib)   ...       0.38 
freq.     217.47  E(vib)   ...       0.34 
freq.     240.01  E(vib)   ...       0.31 
freq.     246.40  E(vib)   ...       0.31 
freq.     263.34  E(vib)   ...       0.29 
freq.     269.84  E(vib)   ...       0.29 
freq.     312.20  E(vib)   ...       0.25 
freq.     338.80  E(vib)   ...       0.23 
freq.     351.62  E(vib)   ...       0.23 
freq.     365.41  E(vib)   ...       0.22 
freq.     382.33  E(vib)   ...       0.21 
freq.     404.21  E(vib)   ...       0.19 
freq.     432.99  E(vib)   ...       0.17 
freq.     477.63  E(vib)   ...       0.15 
freq.     490.06  E(vib)   ...       0.15 
freq.     525.51  E(vib)   ...       0.13 
freq.     551.38  E(vib)   ...       0.12 
freq.     588.89  E(vib)   ...       0.10 
freq.     621.28  E(vib)   ...       0.09 
freq.     628.96  E(vib)   ...       0.09 
freq.     679.71  E(vib)   ...       0.08 
freq.     700.31  E(vib)   ...       0.07 
freq.     763.08  E(vib)   ...       0.06 
freq.     771.53  E(vib)   ...       0.05 
freq.     811.66  E(vib)   ...       0.05 
freq.     818.61  E(vib)   ...       0.05 
freq.     840.96  E(vib)   ...       0.04 
freq.     861.62  E(vib)   ...       0.04 
freq.     885.54  E(vib)   ...       0.04 
freq.     909.75  E(vib)   ...       0.03 
freq.     931.35  E(vib)   ...       0.03 
freq.     933.90  E(vib)   ...       0.03 
freq.     938.03  E(vib)   ...       0.03 
freq.     950.40  E(vib)   ...       0.03 
freq.     967.57  E(vib)   ...       0.03 
freq.     982.00  E(vib)   ...       0.02 
freq.    1032.12  E(vib)   ...       0.02 
freq.    1065.75  E(vib)   ...       0.02 
freq.    1075.28  E(vib)   ...       0.02 
freq.    1099.21  E(vib)   ...       0.02 
freq.    1115.76  E(vib)   ...       0.01 
freq.    1119.40  E(vib)   ...       0.01 
freq.    1131.64  E(vib)   ...       0.01 
freq.    1154.41  E(vib)   ...       0.01 
freq.    1176.70  E(vib)   ...       0.01 
freq.    1190.52  E(vib)   ...       0.01 
freq.    1205.96  E(vib)   ...       0.01 
freq.    1219.55  E(vib)   ...       0.01 
freq.    1225.33  E(vib)   ...       0.01 
freq.    1258.53  E(vib)   ...       0.01 
freq.    1274.69  E(vib)   ...       0.01 
freq.    1278.91  E(vib)   ...       0.01 
freq.    1281.28  E(vib)   ...       0.01 
freq.    1289.62  E(vib)   ...       0.01 
freq.    1304.84  E(vib)   ...       0.01 
freq.    1330.45  E(vib)   ...       0.01 
freq.    1351.20  E(vib)   ...       0.01 
freq.    1362.23  E(vib)   ...       0.01 
freq.    1380.01  E(vib)   ...       0.01 
freq.    1423.87  E(vib)   ...       0.00 
freq.    1428.92  E(vib)   ...       0.00 
freq.    1462.60  E(vib)   ...       0.00 
freq.    1473.11  E(vib)   ...       0.00 
freq.    1503.12  E(vib)   ...       0.00 
freq.    1506.45  E(vib)   ...       0.00 
freq.    1507.07  E(vib)   ...       0.00 
freq.    1512.79  E(vib)   ...       0.00 
freq.    1526.22  E(vib)   ...       0.00 
freq.    1540.33  E(vib)   ...       0.00 
freq.    1568.53  E(vib)   ...       0.00 
freq.    1576.09  E(vib)   ...       0.00 
freq.    2878.15  E(vib)   ...       0.00 
freq.    2891.89  E(vib)   ...       0.00 
freq.    2902.14  E(vib)   ...       0.00 
freq.    2936.73  E(vib)   ...       0.00 
freq.    2961.28  E(vib)   ...       0.00 
freq.    2968.25  E(vib)   ...       0.00 
freq.    2974.52  E(vib)   ...       0.00 
freq.    2978.94  E(vib)   ...       0.00 
freq.    2984.18  E(vib)   ...       0.00 
freq.    2997.59  E(vib)   ...       0.00 
freq.    3005.15  E(vib)   ...       0.00 
freq.    3041.23  E(vib)   ...       0.00 
freq.    3052.48  E(vib)   ...       0.00 
freq.    3057.65  E(vib)   ...       0.00 
freq.    3069.42  E(vib)   ...       0.00 
freq.    3088.66  E(vib)   ...       0.00 
freq.    3128.96  E(vib)   ...       0.00 
freq.    3211.65  E(vib)   ...       0.00 
freq.    3383.46  E(vib)   ...       0.00 
freq.    3569.40  E(vib)   ...       0.00 
freq.    3577.94  E(vib)   ...       0.00 

------------
INNER ENERGY
------------

The inner energy is: U= E(el) + E(ZPE) + E(vib) + E(rot) + E(trans)
    E(el)   - is the total energy from the electronic structure calculation
              = E(kin-el) + E(nuc-el) + E(el-el) + E(nuc-nuc)
    E(ZPE)  - the the zero temperature vibrational energy from the frequency calculation
    E(vib)  - the the finite temperature correction to E(ZPE) due to population
              of excited vibrational states
    E(rot)  - is the rotational thermal energy
    E(trans)- is the translational thermal energy

Summary of contributions to the inner energy U:
Electronic energy                ...    -49.38746897 Eh
Zero point energy                ...      0.30322267 Eh     190.27 kcal/mol
Thermal vibrational correction   ...      0.01594264 Eh      10.00 kcal/mol
Thermal rotational correction    ...      0.00141627 Eh       0.89 kcal/mol
Thermal translational correction ...      0.00141627 Eh       0.89 kcal/mol
-----------------------------------------------------------------------
Total thermal energy                    -49.06547112 Eh


Summary of corrections to the electronic energy:
(perhaps to be used in another calculation)
Total thermal correction                  0.01877518 Eh      11.78 kcal/mol
Non-thermal (ZPE) correction              0.30322267 Eh     190.27 kcal/mol
-----------------------------------------------------------------------
Total correction                          0.32199785 Eh     202.06 kcal/mol


--------
ENTHALPY
--------

The enthalpy is H = U + kB*T
                kB is Boltzmann's constant
Total free energy                 ...    -49.06547112 Eh 
Thermal Enthalpy correction       ...      0.00094421 Eh       0.59 kcal/mol
-----------------------------------------------------------------------
Total Enthalpy                    ...    -49.06452691 Eh


Note: Only C1 symmetry has been detected, increase convergence thresholds 
      if your molecule has a higher symmetry. Symmetry factor of 1.0 is   
      used for the rotational entropy correction. 
 

Note: Rotational entropy computed according to Herzberg 
Infrared and Raman Spectra, Chapter V,1, Van Nostrand Reinhold, 1945 
Point Group:  C1, Symmetry Number:   1  
Rotational constants in cm-1:     0.033475     0.009034     0.008087 

Vibrational entropy computed according to the QRRHO of S. Grimme
Chem.Eur.J. 2012 18 9955


-------
ENTROPY
-------

The entropy contributions are T*S = T*(S(el)+S(vib)+S(rot)+S(trans))
     S(el)   - electronic entropy
     S(vib)  - vibrational entropy
     S(rot)  - rotational entropy
     S(trans)- translational entropy
The entropies will be listed as mutliplied by the temperature to get
units of energy

Electronic entropy                ...      0.00000000 Eh      0.00 kcal/mol
Vibrational entropy               ...      0.02828418 Eh     17.75 kcal/mol
Rotational entropy                ...      0.01561078 Eh      9.80 kcal/mol
Translational entropy             ...      0.01995728 Eh     12.52 kcal/mol
-----------------------------------------------------------------------
Final entropy term                ...      0.06385224 Eh     40.07 kcal/mol

In case the symmetry of your molecule has not been determined correctly
or in case you have a reason to use a different symmetry number we print 
out the resulting rotational entropy values for sn=1,12 :
 --------------------------------------------------------
|  sn= 1 | S(rot)=       0.01561078 Eh      9.80 kcal/mol|
|  sn= 2 | S(rot)=       0.01495632 Eh      9.39 kcal/mol|
|  sn= 3 | S(rot)=       0.01457349 Eh      9.14 kcal/mol|
|  sn= 4 | S(rot)=       0.01430187 Eh      8.97 kcal/mol|
|  sn= 5 | S(rot)=       0.01409118 Eh      8.84 kcal/mol|
|  sn= 6 | S(rot)=       0.01391903 Eh      8.73 kcal/mol|
|  sn= 7 | S(rot)=       0.01377349 Eh      8.64 kcal/mol|
|  sn= 8 | S(rot)=       0.01364741 Eh      8.56 kcal/mol|
|  sn= 9 | S(rot)=       0.01353620 Eh      8.49 kcal/mol|
|  sn=10 | S(rot)=       0.01343672 Eh      8.43 kcal/mol|
|  sn=11 | S(rot)=       0.01334673 Eh      8.38 kcal/mol|
|  sn=12 | S(rot)=       0.01326458 Eh      8.32 kcal/mol|
 --------------------------------------------------------


-------------------
GIBBS FREE ENERGY
-------------------

The Gibbs free energy is G = H - T*S

Total enthalpy                    ...    -49.06452691 Eh 
Total entropy correction          ...     -0.06385224 Eh    -40.07 kcal/mol
-----------------------------------------------------------------------
Final Gibbs free energy         ...    -49.12837915 Eh

For completeness - the Gibbs free energy minus the electronic energy
G-E(el)                           ...      0.25908982 Eh    162.58 kcal/mol


Total Time for Numerical Frequencies  :        65.322 sec
Time for Reference State(s)           :         0.087 sec
Time for Displacements                :        57.741 sec

Timings for individual modules:

Sum of individual times         ...        0.405 sec (=   0.007 min)
XTB module                      ...        0.405 sec (=   0.007 min) 100.0 %
                             ****ORCA TERMINATED NORMALLY****
TOTAL RUN TIME: 0 days 0 hours 1 minutes 6 seconds 419 msec
(SLURM) EXECUTION TIME: 69.063280850 seconds.
