
                                 *****************
                                 * O   R   C   A *
                                 *****************

           --- An Ab Initio, DFT and Semiempirical electronic structure package ---

                  #######################################################
                  #                        -***-                        #
                  #          Department of theory and spectroscopy      #
                  #               Directorship: Frank Neese             #
                  #        Max Planck Institute fuer Kohlenforschung    #
                  #                Kaiser Wilhelm Platz 1               #
                  #                 D-45470 Muelheim/Ruhr               #
                  #                      Germany                        #
                  #                                                     #
                  #                  All rights reserved                #
                  #                        -***-                        #
                  #######################################################


                         Program Version 4.2.1 -  RELEASE  -


 With contributions from (in alphabetic order):
   Daniel Aravena         : Magnetic Suceptibility
   Michael Atanasov       : Ab Initio Ligand Field Theory (pilot matlab implementation)
   Alexander A. Auer      : GIAO ZORA, VPT2
   Ute Becker             : Parallelization
   Giovanni Bistoni       : ED, misc. LED, open-shell LED, HFLD
   Martin Brehm           : Molecular dynamics
   Dmytro Bykov           : SCF Hessian
   Vijay G. Chilkuri      : MRCI spin determinant printing, contributions to CSF-ICE
   Dipayan Datta          : RHF DLPNO-CCSD density
   Achintya Kumar Dutta   : EOM-CC, STEOM-CC
   Dmitry Ganyushin       : Spin-Orbit,Spin-Spin,Magnetic field MRCI
   Miquel Garcia          : C-PCM Hessian, Gaussian charge scheme
   Yang Guo               : DLPNO-NEVPT2, CIM, IAO-localization
   Andreas Hansen         : Spin unrestricted coupled pair/coupled cluster methods
   Benjamin Helmich-Paris : CASSCF linear response (MC-RPA)
   Lee Huntington         : MR-EOM, pCC
   Robert Izsak           : Overlap fitted RIJCOSX, COSX-SCS-MP3, EOM
   Christian Kollmar      : KDIIS, OOCD, Brueckner-CCSD(T), CCSD density
   Simone Kossmann        : Meta GGA functionals, TD-DFT gradient, OOMP2, MP2 Hessian
   Martin Krupicka        : AUTO-CI
   Lucas Lang             : DCDCAS
   Dagmar Lenk            : GEPOL surface, SMD
   Dimitrios Liakos       : Extrapolation schemes; Compound Job, initial MDCI parallelization
   Dimitrios Manganas     : Further ROCIS development; embedding schemes
   Dimitrios Pantazis     : SARC Basis sets
   Taras Petrenko         : DFT Hessian,TD-DFT gradient, ASA, ECA, R-Raman, ABS, FL, XAS/XES, NRVS
   Peter Pinski           : DLPNO-MP2, DLPNO-MP2 Gradient
   Christoph Reimann      : Effective Core Potentials
   Marius Retegan         : Local ZFS, SOC
   Christoph Riplinger    : Optimizer, TS searches, QM/MM, DLPNO-CCSD(T), (RO)-DLPNO pert. Triples
   Tobias Risthaus        : Range-separated hybrids, TD-DFT gradient, RPA, STAB
   Michael Roemelt        : Original ROCIS implementation
   Masaaki Saitow         : Open-shell DLPNO-CCSD energy and density
   Barbara Sandhoefer     : DKH picture change effects
   Avijit Sen             : IP-ROCIS
   Kantharuban Sivalingam : CASSCF convergence, NEVPT2, FIC-MRCI
   Bernardo de Souza      : ESD, SOC TD-DFT
   Georgi Stoychev        : AutoAux, RI-MP2 NMR
   Willem Van den Heuvel  : Paramagnetic NMR
   Boris Wezisla          : Elementary symmetry handling
   Frank Wennmohs         : Technical directorship


 We gratefully acknowledge several colleagues who have allowed us to
 interface, adapt or use parts of their codes:
   Stefan Grimme, W. Hujo, H. Kruse,             : VdW corrections, initial TS optimization,
                  C. Bannwarth                     DFT functionals, gCP, sTDA/sTD-DF
   Ed Valeev, F. Pavosevic, A. Kumar             : LibInt (2-el integral package), F12 methods
   Garnet Chan, S. Sharma, J. Yang, R. Olivares  : DMRG
   Ulf Ekstrom                                   : XCFun DFT Library
   Mihaly Kallay                                 : mrcc  (arbitrary order and MRCC methods)
   Andreas Klamt, Michael Diedenhofen            : otool_cosmo (COSMO solvation model)
   Jiri Pittner, Ondrej Demel                    : Mk-CCSD
   Frank Weinhold                                : gennbo (NPA and NBO analysis)
   Christopher J. Cramer and Donald G. Truhlar   : smd solvation model
   Lars Goerigk                                  : TD-DFT with DH, B97 family of functionals
   V. Asgeirsson, H. Jonsson                     : NEB implementation
   FAccTs GmbH                                   : IRC, NEB, NEB-TS, Multilevel, MM, QM/MM, CI optimization
   S Lehtola, MJT Oliveira, MAL Marques          : LibXC Library


 Your calculation uses the libint2 library for the computation of 2-el integrals
 For citations please refer to: http://libint.valeyev.net

 Your ORCA version has been built with support for libXC version: 4.2.3
 For citations please refer to: https://tddft.org/programs/libxc/

 This ORCA versions uses:
   CBLAS   interface :  Fast vector & matrix operations
   LAPACKE interface :  Fast linear algebra routines
   SCALAPACK package :  Parallel linear algebra routines




***************************************
The coordinates will be read from file: init.xyz
***************************************


Your calculation utilizes the geometrical counterpoise correction gCP
Please cite in your paper:
H.Kruse, S. Grimme J.Chem.Phys., 136, (2012), 154101 
   

Your calculation utilizes the atom-pairwise dispersion correction
based on tight binding partial charges (D4)
Cite in your paper:
E.Caldeweyher, C.Bannwarth, S.Grimme, J.Chem.Phys., (2017), 147, 034112.
E.Caldeweyher, S.Ehlert, A.Hansen, H.Neugebauer, S.Grimme, J.Chem.Phys., (2018), in progress.
   

----- Orbital basis set information -----
Your calculation utilizes the basis: def2-TZVP
   F. Weigend and R. Ahlrichs, Phys. Chem. Chem. Phys. 7, 3297 (2005).

----- AuxJ basis set information -----
Your calculation utilizes the auxiliary basis: def2/J
   F. Weigend, Phys. Chem. Chem. Phys. 8, 1057 (2006).

================================================================================
                                        WARNINGS
                       Please study these warnings very carefully!
================================================================================


WARNING: Geometry Optimization
  ===> : Switching off AutoStart
         For restart on a previous wavefunction, please use MOREAD

INFO   : the flag for use of LIBINT has been found!

================================================================================
                                       INPUT FILE
================================================================================
NAME = NH3.inp
|  1> ! revPBE D4 gCP(DFT/TZ) def2-TZVP Opt Freq TightOpt TightSCF Grid4 FinalGrid5 PrintBasis PrintMOs NBO
|  2> 
|  3> %pal
|  4>  nprocs 12
|  5> end
|  6> 
|  7> *xyzfile 0 1 init.xyz
|  8> 
|  9>                          ****END OF INPUT****
================================================================================

                       *****************************
                       * Geometry Optimization Run *
                       *****************************

Geometry optimization settings:
Update method            Update   .... BFGS
Choice of coordinates    CoordSys .... Z-matrix Internals
Initial Hessian          InHess   .... Almoef's Model

Convergence Tolerances:
Energy Change            TolE     ....  1.0000e-06 Eh
Max. Gradient            TolMAXG  ....  1.0000e-04 Eh/bohr
RMS Gradient             TolRMSG  ....  3.0000e-05 Eh/bohr
Max. Displacement        TolMAXD  ....  1.0000e-03 bohr
RMS Displacement         TolRMSD  ....  6.0000e-04 bohr
Strict Convergence                ....  False
------------------------------------------------------------------------------
                        ORCA OPTIMIZATION COORDINATE SETUP
------------------------------------------------------------------------------

The optimization will be done in new redundant internal coordinates
Making redundant internal coordinates   ...  (new redundants) done
Evaluating the initial hessian          ...  (Almloef) done
Evaluating the coordinates              ...  done
Calculating the B-matrix                .... done
Calculating the G-matrix                .... done
Diagonalizing the G-matrix              .... done
The first mode is                       ....    1
The number of degrees of freedom        ....    6

    -----------------------------------------------------------------
                    Redundant Internal Coordinates


    -----------------------------------------------------------------
         Definition                    Initial Value    Approx d2E/dq
    -----------------------------------------------------------------
      1. B(H   1,N   0)                  1.0126         0.428546   
      2. B(H   2,N   0)                  1.0126         0.428542   
      3. B(H   3,N   0)                  1.0126         0.428542   
      4. A(H   1,N   0,H   3)          107.6526         0.302321   
      5. A(H   2,N   0,H   3)          107.6501         0.302321   
      6. A(H   1,N   0,H   2)          107.6529         0.302321   
      7. I(H   1,H   3,H   2,N   0)    -59.0855         0.004189   
    -----------------------------------------------------------------

Number of atoms                         .... 4
Number of degrees of freedom            .... 7

         *************************************************************
         *                GEOMETRY OPTIMIZATION CYCLE   1            *
         *************************************************************
---------------------------------
CARTESIAN COORDINATES (ANGSTROEM)
---------------------------------
  N     -2.441431   -2.780736    0.008699
  H     -1.429279   -2.808405   -0.005619
  H     -2.764139   -3.603160    0.503575
  H     -2.764141   -2.852029   -0.948486

----------------------------
CARTESIAN COORDINATES (A.U.)
----------------------------
  NO LB      ZA    FRAG     MASS         X           Y           Z
   0 N     7.0000    0    14.007   -4.613635   -5.254829    0.016438
   1 H     1.0000    0     1.008   -2.700946   -5.307116   -0.010618
   2 H     1.0000    0     1.008   -5.223466   -6.808986    0.951620
   3 H     1.0000    0     1.008   -5.223470   -5.389554   -1.792378

--------------------------------
INTERNAL COORDINATES (ANGSTROEM)
--------------------------------
 N      0   0   0     0.000000000000     0.00000000     0.00000000
 H      1   0   0     1.012631124733     0.00000000     0.00000000
 H      1   2   0     1.012633276793   107.65288511     0.00000000
 H      1   2   3     1.012633505742   107.65262519   244.20312998

---------------------------
INTERNAL COORDINATES (A.U.)
---------------------------
 N      0   0   0     0.000000000000     0.00000000     0.00000000
 H      1   0   0     1.913595500431     0.00000000     0.00000000
 H      1   2   0     1.913599567234   107.65288511     0.00000000
 H      1   2   3     1.913599999885   107.65262519   244.20312998

---------------------
BASIS SET INFORMATION
---------------------
There are 2 groups of distinct atoms

 Group   1 Type N   : 11s6p2d1f contracted to 5s3p2d1f pattern {62111/411/11/1}
 Group   2 Type H   : 5s1p contracted to 3s1p pattern {311/1}

Atom   0N    basis set group =>   1
Atom   1H    basis set group =>   2
Atom   2H    basis set group =>   2
Atom   3H    basis set group =>   2

-------------------------
BASIS SET IN INPUT FORMAT
-------------------------

 # Basis set for element : H 
 NewGTO H 
 S 3 
   1      34.0613410000      0.0254393072
   2       5.1235746000      0.1900859489
   3       1.1646626000      0.8524411301
 S 1 
   1       0.3272304100      1.0000000000
 S 1 
   1       0.1030724100      1.0000000000
 P 1 
   1       0.8000000000      1.0000000000
  end;

 # Basis set for element : N 
 NewGTO N 
 S 6 
   1   19730.8006470000      0.0005862639
   2    2957.8958745000      0.0045428821
   3     673.2213359500      0.0235584136
   4     190.6824949400      0.0947091933
   5      62.2954418980      0.2971978492
   6      22.6541611820      0.6691624689
 S 2 
   1       8.9791477428      0.6459668363
   2       3.6863002370      0.3870057440
 S 1 
   1       0.8466007680      1.0000000000
 S 1 
   1       0.3364713377      1.0000000000
 S 1 
   1       0.1364765367      1.0000000000
 P 4 
   1      49.2003805100      0.0114488252
   2      11.3467905370      0.0784223379
   3       3.4273972411      0.3081809474
   4       1.1785525134      0.7202719637
 P 1 
   1       0.4164220497      1.0000000000
 P 1 
   1       0.1426082601      1.0000000000
 D 1 
   1       1.6540000000      1.0000000000
 D 1 
   1       0.4690000000      1.0000000000
 F 1 
   1       1.0930000000      1.0000000000
  end;

---------------------------------
AUXILIARY/J BASIS SET INFORMATION
---------------------------------
There are 2 groups of distinct atoms

 Group   1 Type N   : 12s5p4d2f1g contracted to 6s4p3d1f1g pattern {711111/2111/211/2/1}
 Group   2 Type H   : 5s2p1d contracted to 3s1p1d pattern {311/2/1}

Atom   0N    basis set group =>   1
Atom   1H    basis set group =>   2
Atom   2H    basis set group =>   2
Atom   3H    basis set group =>   2

-------------------------------------
AUXILIARY/J BASIS SET IN INPUT FORMAT
-------------------------------------

 # Auxiliary/J basis set for element : H 
 NewAuxJGTO H 
 S 3 
   1      15.6752927000      0.1007184237
   2       3.6063578000      0.3404257499
   3       1.2080016000      0.6491996172
 S 1 
   1       0.4726794000      1.0000000000
 S 1 
   1       0.2018100000      1.0000000000
 P 2 
   1       2.0281365000      0.5596620919
   2       0.5358730000      0.5596620919
 D 1 
   1       2.2165124000      1.0000000000
  end;

 # Auxiliary/J basis set for element : N 
 NewAuxJGTO N 
 S 7 
   1    2542.9401785000      0.0128431329
   2    1029.5472946000      0.0206655120
   3     424.9053546000      0.0652200677
   4     178.4573708000      0.1617388940
   5      76.1362742000      0.3094256941
   6      32.9338653000      0.3918849307
   7      14.4155436000      0.1822470660
 S 1 
   1       6.3718891000     -1.0000000000
 S 1 
   1       2.8381742000      1.0000000000
 S 1 
   1       1.2711793000      1.0000000000
 S 1 
   1       0.5712407000      1.0000000000
 S 1 
   1       0.2569887000      1.0000000000
 P 2 
   1      17.8975990000     -1.0974070137
   2       6.5346319000      0.1380055963
 P 1 
   1       2.3523645000      1.0000000000
 P 1 
   1       0.8397377000      1.0000000000
 P 1 
   1       0.2989335000      1.0000000000
 D 2 
   1       7.6909870000      0.1770780943
   2       2.3044972000      0.8918319220
 D 1 
   1       0.8403987000      1.0000000000
 D 1 
   1       0.3303797000      1.0000000000
 F 2 
   1       2.3331076000      0.6223178877
   2       0.8446137000      0.5036714203
 G 1 
   1       1.4037700000     -1.0000000000
  end;



           ************************************************************
           *        Program running with 12 parallel MPI-processes    *
           *              working on a common directory               *
           ************************************************************
------------------------------------------------------------------------------
                           ORCA GTO INTEGRAL CALCULATION
                           -- RI-GTO INTEGRALS CHOSEN --
------------------------------------------------------------------------------

                         BASIS SET STATISTICS AND STARTUP INFO

Gaussian basis set:
 # of primitive gaussian shells          ...   38
 # of primitive gaussian functions       ...   70
 # of contracted shells                  ...   23
 # of contracted basis functions         ...   49
 Highest angular momentum                ...    3
 Maximum contraction depth               ...    6
Auxiliary gaussian basis set:
 # of primitive gaussian shells          ...   48
 # of primitive gaussian functions       ...  118
 # of contracted shells                  ...   30
 # of contracted aux-basis functions     ...   82
 Highest angular momentum                ...    4
 Maximum contraction depth               ...    7
Ratio of auxiliary to basis functions    ...  1.67
Integral package used                  ... LIBINT
 One Electron integrals                  ... done
 Ordering auxiliary basis shells         ... done
 Integral threshhold             Thresh  ...  2.500e-11
 Primitive cut-off               TCut    ...  2.500e-12
 Pre-screening matrix                    ... done
 Shell pair data                         ... 
 Ordering of the shell pairs             ... done (   0.000 sec) 276 of 276 pairs
 Determination of significant pairs      ... done (   0.000 sec)
 Creation of shell pair data             ... done (   0.000 sec)
 Storage of shell pair data              ... done (   0.041 sec)
 Shell pair data done in (   0.041 sec)
 Computing two index integrals           ... done
 Cholesky decomposition of the V-matrix  ... done


Timings:
 Total evaluation time                   ...   0.238 sec (  0.004 min)
 One electron matrix time                ...   0.021 sec (  0.000 min) =  9.0%
 Schwartz matrix evaluation time         ...   0.144 sec (  0.002 min) = 60.6%
 Two index repulsion integral time       ...   0.002 sec (  0.000 min) =  0.8%
 Cholesky decomposition of V             ...   0.008 sec (  0.000 min) =  3.5%
 Three index repulsion integral time     ...   0.000 sec (  0.000 min) =  0.0%



           ************************************************************
           *        Program running with 12 parallel MPI-processes    *
           *              working on a common directory               *
           ************************************************************
-------------------------------------------------------------------------------
                                 ORCA SCF
-------------------------------------------------------------------------------

------------
SCF SETTINGS
------------
Hamiltonian:
 Density Functional     Method          .... DFT(GTOs)
 Exchange Functional    Exchange        .... PBE
   PBE kappa parameter   XKappa         ....  1.245000
   PBE mue parameter    XMuePBE         ....  0.219520
 Correlation Functional Correlation     .... PBE
   PBE beta parameter  CBetaPBE         ....  0.066725
 LDA part of GGA corr.  LDAOpt          .... PW91-LDA
 Gradients option       PostSCFGGA      .... off
   Density functional embedding theory  .... OFF
   NL short-range parameter             ....  3.700000
 RI-approximation to the Coulomb term is turned on
   Number of auxiliary basis functions  .... 82


General Settings:
 Integral files         IntName         .... NH3
 Hartree-Fock type      HFTyp           .... RHF
 Total Charge           Charge          ....    0
 Multiplicity           Mult            ....    1
 Number of Electrons    NEL             ....   10
 Basis Dimension        Dim             ....   49
 Nuclear Repulsion      ENuc            ....     11.9451460662 Eh

Convergence Acceleration:
 DIIS                   CNVDIIS         .... on
   Start iteration      DIISMaxIt       ....    12
   Startup error        DIISStart       ....  0.200000
   # of expansion vecs  DIISMaxEq       ....     5
   Bias factor          DIISBfac        ....   1.050
   Max. coefficient     DIISMaxC        ....  10.000
 Newton-Raphson         CNVNR           .... off
 SOSCF                  CNVSOSCF        .... on
   Start iteration      SOSCFMaxIt      ....   150
   Startup grad/error   SOSCFStart      ....  0.003300
 Level Shifting         CNVShift        .... on
   Level shift para.    LevelShift      ....    0.2500
   Turn off err/grad.   ShiftErr        ....    0.0010
 Zerner damping         CNVZerner       .... off
 Static damping         CNVDamp         .... on
   Fraction old density DampFac         ....    0.7000
   Max. Damping (<1)    DampMax         ....    0.9800
   Min. Damping (>=0)   DampMin         ....    0.0000
   Turn off err/grad.   DampErr         ....    0.1000
 Fernandez-Rico         CNVRico         .... off

SCF Procedure:
 Maximum # iterations   MaxIter         ....   125
 SCF integral mode      SCFMode         .... Direct
   Integral package                     .... LIBINT
 Reset frequency        DirectResetFreq ....    20
 Integral Threshold     Thresh          ....  2.500e-11 Eh
 Primitive CutOff       TCut            ....  2.500e-12 Eh

Convergence Tolerance:
 Convergence Check Mode ConvCheckMode   .... Total+1el-Energy
 Convergence forced     ConvForced      .... 0
 Energy Change          TolE            ....  1.000e-08 Eh
 1-El. energy change                    ....  1.000e-05 Eh
 Orbital Gradient       TolG            ....  1.000e-05
 Orbital Rotation angle TolX            ....  1.000e-05
 DIIS Error             TolErr          ....  5.000e-07


Diagonalization of the overlap matrix:
Smallest eigenvalue                        ... 4.958e-03
Time for diagonalization                   ...    0.018 sec
Threshold for overlap eigenvalues          ... 1.000e-08
Number of eigenvalues below threshold      ... 0
Time for construction of square roots      ...    0.010 sec
Total time needed                          ...    0.029 sec

-------------------
DFT GRID GENERATION
-------------------

General Integration Accuracy     IntAcc      ...  4.670
Radial Grid Type                 RadialGrid  ... Gauss-Chebyshev
Angular Grid (max. acc.)         AngularGrid ... Lebedev-302
Angular grid pruning method      GridPruning ... 3 (G Style)
Weight generation scheme         WeightScheme... Becke
Basis function cutoff            BFCut       ...    1.0000e-11
Integration weight cutoff        WCut        ...    1.0000e-14
Grids for H and He will be reduced by one unit

# of grid points (after initial pruning)     ...  16394 (   0.0 sec)
# of grid points (after weights+screening)   ...  16133 (   0.0 sec)
nearest neighbour list constructed           ...    0.0 sec
Grid point re-assignment to atoms done       ...    0.0 sec
Grid point division into batches done        ...    0.1 sec
Reduced shell lists constructed in    0.1 sec

Total number of grid points                  ...    16133
Total number of batches                      ...      254
Average number of points per batch           ...       63
Average number of grid points per atom       ...     4033
Average number of shells per batch           ...    19.30 (83.93%)
Average number of basis functions per batch  ...    41.30 (84.29%)
Average number of large shells per batch     ...    18.09 (93.69%)
Average number of large basis fcns per batch ...    39.39 (95.37%)
Maximum spatial batch extension              ...  12.17, 11.22, 13.38 au
Average spatial batch extension              ...   0.28,  0.27,  0.28 au

Time for grid setup =    0.150 sec

------------------------------
INITIAL GUESS: MODEL POTENTIAL
------------------------------
Loading Hartree-Fock densities                     ... done
Calculating cut-offs                               ... done
Setting up the integral package                    ... done
Initializing the effective Hamiltonian             ... done
Starting the Coulomb interaction                   ... done (   0.0 sec)
Reading the grid                                   ... done
Mapping shells                                     ... done
Starting the XC term evaluation                    ... done (   0.0 sec)
  promolecular density results
     # of electrons  =      9.998534917
     EX              =     -7.457897436
     EC              =     -0.305584493
     EX+EC           =     -7.763481929
Transforming the Hamiltonian                       ... done (   0.0 sec)
Diagonalizing the Hamiltonian                      ... done (   0.0 sec)
Back transforming the eigenvectors                 ... done (   0.0 sec)
Now organizing SCF variables                       ... done
                      ------------------
                      INITIAL GUESS DONE (   0.3 sec)
                      ------------------
--------------
SCF ITERATIONS
--------------
ITER       Energy         Delta-E        Max-DP      RMS-DP      [F,P]     Damp
               ***  Starting incremental Fock matrix formation  ***
  0    -56.4530515544   0.000000000000 0.05805181  0.00373959  0.3209971 0.7000
  1    -56.5121847890  -0.059133234617 0.03552251  0.00240110  0.1231330 0.7000
                               ***Turning on DIIS***
  2    -56.5282062697  -0.016021480733 0.03059128  0.00289820  0.0115089 0.0000
  3    -56.5577304788  -0.029524209053 0.02150342  0.00132464  0.0829022 0.0000
  4    -56.5644064185  -0.006675939720 0.00667484  0.00051082  0.0228380 0.0000
  5    -56.5649652756  -0.000558857147 0.00239919  0.00019240  0.0053726 0.0000
                      *** Initiating the SOSCF procedure ***
                           *** Shutting down DIIS ***
                      *** Re-Reading the Fockian *** 
                      *** Removing any level shift *** 
ITER      Energy       Delta-E        Grad      Rot      Max-DP    RMS-DP
  6    -56.56500236  -0.0000370837  0.000446  0.000446  0.001174  0.000082
               *** Restarting incremental Fock matrix formation ***
  7    -56.56500534  -0.0000029797  0.000235  0.001043  0.001371  0.000084
  8    -56.56500561  -0.0000002708  0.000204  0.000166  0.000266  0.000019
  9    -56.56500580  -0.0000001933  0.000082  0.000287  0.000384  0.000023
 10    -56.56500587  -0.0000000633  0.000014  0.000058  0.000068  0.000004
                  ***Gradient check signals convergence***
              ***Rediagonalizing the Fockian in SOSCF/NRSCF***

               *****************************************************
               *                     SUCCESS                       *
               *           SCF CONVERGED AFTER  11 CYCLES          *
               *****************************************************

Setting up the final grid:

General Integration Accuracy     IntAcc      ...  5.010
Radial Grid Type                 RadialGrid  ... Gauss-Chebyshev
Angular Grid (max. acc.)         AngularGrid ... Lebedev-434
Angular grid pruning method      GridPruning ... 3 (G Style)
Weight generation scheme         WeightScheme... Becke
Basis function cutoff            BFCut       ...    1.0000e-11
Integration weight cutoff        WCut        ...    1.0000e-14
Grids for H and He will be reduced by one unit

# of grid points (after initial pruning)     ...  30666 (   0.0 sec)
# of grid points (after weights+screening)   ...  30109 (   0.0 sec)
nearest neighbour list constructed           ...    0.0 sec
Grid point re-assignment to atoms done       ...    0.0 sec
Grid point division into batches done        ...    0.2 sec
Reduced shell lists constructed in    0.3 sec

Total number of grid points                  ...    30109
Total number of batches                      ...      472
Average number of points per batch           ...       63
Average number of grid points per atom       ...     7527
Average number of shells per batch           ...    18.90 (82.18%)
Average number of basis functions per batch  ...    40.80 (83.28%)
Average number of large shells per batch     ...    17.68 (93.55%)
Average number of large basis fcns per batch ...    38.46 (94.26%)
Maximum spatial batch extension              ...  13.82, 12.80, 13.82 au
Average spatial batch extension              ...   0.22,  0.22,  0.23 au

Final grid set up in    0.4 sec
Final integration                            ... done (   0.1 sec)
Change in XC energy                          ...     0.000012365
Integrated number of electrons               ...     9.999999506
Previous integrated no of electrons          ...     9.999986448

----------------
TOTAL SCF ENERGY
----------------

Total Energy       :          -56.56499350 Eh           -1539.21173 eV

Components:
Nuclear Repulsion  :           11.94514607 Eh             325.04395 eV
Electronic Energy  :          -68.51013957 Eh           -1864.25567 eV
One Electron Energy:          -99.68088736 Eh           -2712.45484 eV
Two Electron Energy:           31.17074779 Eh             848.19917 eV

Virial components:
Potential Energy   :         -112.92487611 Eh           -3072.84210 eV
Kinetic Energy     :           56.35988261 Eh            1533.63037 eV
Virial Ratio       :            2.00363931


DFT components:
N(Alpha)           :        4.999999753013 electrons
N(Beta)            :        4.999999753013 electrons
N(Total)           :        9.999999506026 electrons
E(X)               :       -7.701608763286 Eh       
E(C)               :       -0.315304936428 Eh       
E(XC)              :       -8.016913699714 Eh       
DFET-embed. en.    :        0.000000000000 Eh       

---------------
SCF CONVERGENCE
---------------

  Last Energy change         ...   -1.0798e-09  Tolerance :   1.0000e-08
  Last MAX-Density change    ...    3.9617e-06  Tolerance :   1.0000e-07
  Last RMS-Density change    ...    2.5308e-07  Tolerance :   5.0000e-09
  Last Orbital Gradient      ...    2.0270e-06  Tolerance :   1.0000e-05
  Last Orbital Rotation      ...    3.5433e-06  Tolerance :   1.0000e-05

             **** THE GBW FILE WAS UPDATED (NH3.gbw) ****
             **** DENSITY FILE WAS UPDATED (NH3.scfp) ****
             **** ENERGY FILE WAS UPDATED (NH3.en.tmp) ****
             **** THE GBW FILE WAS UPDATED (NH3.gbw) ****
             **** DENSITY FILE WAS UPDATED (NH3.scfp) ****
----------------
ORBITAL ENERGIES
----------------

  NO   OCC          E(Eh)            E(eV) 
   0   2.0000     -13.966358      -380.0439 
   1   2.0000      -0.773675       -21.0528 
   2   2.0000      -0.411694       -11.2028 
   3   2.0000      -0.411687       -11.2026 
   4   2.0000      -0.215605        -5.8669 
   5   0.0000       0.009933         0.2703 
   6   0.0000       0.090141         2.4529 
   7   0.0000       0.090149         2.4531 
   8   0.0000       0.276567         7.5258 
   9   0.0000       0.276571         7.5259 
  10   0.0000       0.329769         8.9735 
  11   0.0000       0.413396        11.2491 
  12   0.0000       0.471480        12.8296 
  13   0.0000       0.485553        13.2126 
  14   0.0000       0.485571        13.2131 
  15   0.0000       0.852718        23.2036 
  16   0.0000       0.852727        23.2039 
  17   0.0000       1.099421        29.9168 
  18   0.0000       1.196772        32.5658 
  19   0.0000       1.196804        32.5667 
  20   0.0000       1.534122        41.7456 
  21   0.0000       1.658636        45.1338 
  22   0.0000       1.658653        45.1343 
  23   0.0000       1.725778        46.9608 
  24   0.0000       1.893767        51.5320 
  25   0.0000       1.956188        53.2306 
  26   0.0000       1.956198        53.2308 
  27   0.0000       2.221240        60.4430 
  28   0.0000       2.291972        62.3677 
  29   0.0000       2.291985        62.3681 
  30   0.0000       2.327168        63.3255 
  31   0.0000       2.406765        65.4914 
  32   0.0000       2.406777        65.4917 
  33   0.0000       2.934742        79.8584 
  34   0.0000       3.134199        85.2859 
  35   0.0000       3.134222        85.2865 
  36   0.0000       3.959610       107.7465 
  37   0.0000       4.193341       114.1066 
  38   0.0000       4.193351       114.1069 
  39   0.0000       4.330634       117.8425 
  40   0.0000       4.483994       122.0157 
  41   0.0000       4.484001       122.0159 
  42   0.0000       4.509773       122.7172 
  43   0.0000       4.760671       129.5445 
  44   0.0000       4.760677       129.5446 
  45   0.0000       5.269882       143.4008 
  46   0.0000       5.269919       143.4018 
  47   0.0000       5.652235       153.8051 
  48   0.0000      31.174859       848.3110 
------------------
MOLECULAR ORBITALS
------------------
                      0         1         2         3         4         5   
                 -13.96636  -0.77368  -0.41169  -0.41169  -0.21560   0.00993
                   2.00000   2.00000   2.00000   2.00000   2.00000   0.00000
                  --------  --------  --------  --------  --------  --------
  0N   1s        -0.449276  0.095397 -0.000001 -0.000000  0.032740  0.042908
  0N   2s        -0.625721  0.213410 -0.000002 -0.000000  0.074696  0.103371
  0N   3s        -0.035818 -0.321412  0.000003  0.000001 -0.118862 -0.262922
  0N   4s         0.022598 -0.391391  0.000007  0.000001 -0.185364  0.136276
  0N   5s        -0.015910 -0.106350 -0.000036 -0.000020 -0.149678 -2.042744
  0N   1pz        0.000736  0.032764  0.043263  0.310538 -0.174522  0.049588
  0N   1px       -0.000566 -0.025210  0.327800  0.010601  0.134297 -0.038188
  0N   1py        0.001423  0.063337  0.108106 -0.156418 -0.337378  0.095886
  0N   2pz       -0.000409  0.026955  0.033244  0.238624 -0.144952  0.024071
  0N   2px        0.000315 -0.020746  0.251900  0.008143  0.111558 -0.018485
  0N   2py       -0.000790  0.052109  0.083075 -0.120194 -0.280214  0.046533
  0N   3pz        0.000828  0.005433  0.015287  0.109693 -0.150394  0.163993
  0N   3px       -0.000637 -0.004182  0.115763  0.003741  0.115727 -0.126283
  0N   3py        0.001600  0.010498  0.038188 -0.055251 -0.290753  0.317028
  0N   1dz2      -0.000037 -0.000854 -0.006456 -0.008974 -0.000893  0.000957
  0N   1dxz      -0.000043 -0.000978 -0.002290 -0.004105 -0.001022  0.001095
  0N   1dyz       0.000107  0.002455  0.001434 -0.007119  0.002568 -0.002751
  0N   1dx2y2    -0.000087 -0.001997  0.010134 -0.004733 -0.002088  0.002239
  0N   1dxy      -0.000083 -0.001889 -0.004746  0.001932 -0.001976  0.002118
  0N   2dz2      -0.000037 -0.000956 -0.002614 -0.014021 -0.006778  0.003195
  0N   2dxz      -0.000042 -0.001096 -0.007349  0.004949 -0.007753  0.003673
  0N   2dyz       0.000106  0.002755 -0.004409 -0.011534  0.019469 -0.009240
  0N   2dx2y2    -0.000086 -0.002245  0.012331 -0.007651 -0.015834  0.007526
  0N   2dxy      -0.000082 -0.002121 -0.013790 -0.003130 -0.014983  0.007106
  0N   1f0        0.000078  0.002555  0.000350  0.000219 -0.001846 -0.002168
  0N   1f+1       0.000091  0.002390 -0.000014  0.001092  0.000447 -0.003124
  0N   1f-1       0.000016  0.000454 -0.000179 -0.001933 -0.000087 -0.000506
  0N   1f+2       0.000052  0.001921  0.001279  0.000228 -0.002193 -0.001226
  0N   1f-2      -0.000027 -0.000181 -0.001123  0.000941 -0.002395  0.001425
  0N   1f+3       0.000087  0.002877 -0.001207 -0.000884 -0.002192 -0.002387
  0N   1f-3       0.000009 -0.000027 -0.001548  0.000458  0.001227 -0.000585
  1H   1s        -0.000138 -0.091735  0.177108  0.005728  0.042527  0.023080
  1H   2s         0.000305 -0.081205  0.226972  0.007348  0.043710  0.035771
  1H   3s         0.002719 -0.010331  0.100212  0.003245  0.032039  0.982305
  1H   1pz        0.000006  0.000868  0.001934  0.012933 -0.009139  0.000720
  1H   1px       -0.000612  0.015698 -0.019773 -0.000642 -0.000177  0.039373
  1H   1py        0.000011  0.001679  0.004754 -0.006504 -0.017667  0.001400
  2H   1s        -0.000138 -0.091737 -0.093515  0.150517  0.042526  0.023076
  2H   2s         0.000305 -0.081213 -0.119827  0.192886  0.043725  0.035857
  2H   3s         0.002719 -0.010335 -0.052904  0.085156  0.032005  0.981986
  2H   1pz       -0.000303  0.009193  0.010679 -0.001363 -0.012808  0.021022
  2H   1px        0.000198 -0.006125  0.007837  0.009795  0.009437 -0.013864
  2H   1py        0.000493 -0.011316 -0.009597  0.016182 -0.011939 -0.030282
  3H   1s        -0.000138 -0.091737 -0.083595 -0.156244  0.042527  0.023076
  3H   2s         0.000305 -0.081215 -0.107113 -0.200221  0.043736  0.035922
  3H   3s         0.002719 -0.010330 -0.047290 -0.088388  0.032009  0.981834
  3H   1pz        0.000577 -0.014548 -0.013069 -0.014869 -0.002342 -0.036853
  3H   1px        0.000198 -0.006124  0.008453 -0.009268  0.009437 -0.013859
  3H   1py        0.000037  0.000966  0.003698 -0.008014 -0.017353 -0.000339
                      6         7         8         9        10        11   
                   0.09014   0.09015   0.27657   0.27657   0.32977   0.41340
                   0.00000   0.00000   0.00000   0.00000   0.00000   0.00000
                  --------  --------  --------  --------  --------  --------
  0N   1s        -0.000006  0.000001  0.000001 -0.000005 -0.025310 -0.058183
  0N   2s        -0.000014  0.000003  0.000003 -0.000012 -0.052380 -0.123063
  0N   3s         0.000016 -0.000023 -0.000012  0.000027 -0.037284 -0.110055
  0N   4s         0.000086  0.000063  0.000042  0.000011  0.738254  2.273426
  0N   5s         0.000151 -0.000148 -0.000277  0.000308  0.047280 -2.396035
  0N   1pz       -0.068242  0.228911  0.009403  0.018773  0.124426 -0.078001
  0N   1px       -0.248086 -0.029657 -0.017688  0.013046 -0.095728  0.060067
  0N   1py       -0.063462 -0.130213 -0.011920 -0.004498  0.240554 -0.150775
  0N   2pz       -0.020413  0.068531  0.131922  0.263265  0.263537 -0.251228
  0N   2px       -0.074226 -0.008876 -0.247989  0.182914 -0.202688  0.193461
  0N   2py       -0.018995 -0.038981 -0.167004 -0.063318  0.509475 -0.485651
  0N   3pz       -0.237194  0.795574  0.612784  1.221591 -0.590990  0.170200
  0N   3px       -0.862194 -0.103053 -1.150495  0.848827  0.454432 -0.131291
  0N   3py       -0.220585 -0.452540 -0.774786 -0.294259 -1.142400  0.329033
  0N   1dz2      -0.004749  0.002133 -0.003526  0.029803  0.000913 -0.001998
  0N   1dxz      -0.000277  0.004869  0.005707  0.015228  0.001045 -0.002288
  0N   1dyz       0.002190  0.002469  0.015631  0.010703 -0.002630  0.005744
  0N   1dx2y2     0.004023  0.002040  0.029025 -0.005708  0.002141 -0.004672
  0N   1dxy       0.000881 -0.002430 -0.011723 -0.001408  0.002022 -0.004421
  0N   2dz2      -0.046045  0.028327  0.007601 -0.173394  0.002604 -0.000905
  0N   2dxz      -0.006892  0.039872 -0.013181 -0.077017  0.003006 -0.001026
  0N   2dyz       0.015631  0.029526 -0.084016 -0.075162 -0.007544  0.002574
  0N   2dx2y2     0.043789  0.024771 -0.172059  0.030053  0.006154 -0.002100
  0N   2dxy      -0.001574 -0.021238  0.076055 -0.011226  0.005817 -0.001985
  0N   1f0        0.005461 -0.001231 -0.008858  0.013648 -0.004648 -0.016424
  0N   1f+1      -0.001983 -0.004338  0.014086  0.008294 -0.006976 -0.020011
  0N   1f-1       0.001944 -0.002486 -0.003065  0.001409 -0.001116 -0.003433
  0N   1f+2       0.001253  0.003332 -0.012071 -0.000434 -0.002523 -0.010633
  0N   1f-2      -0.000241 -0.003700  0.012953  0.007176  0.003382  0.006561
  0N   1f+3      -0.004337  0.002657  0.005483 -0.018519 -0.005099 -0.018249
  0N   1f-3       0.003104  0.003033 -0.005176 -0.002234 -0.001412 -0.002412
  1H   1s         0.032576  0.003895  0.104710 -0.077251 -0.014938 -0.104260
  1H   2s        -0.086869 -0.010384  1.244117 -0.917872 -0.391473 -1.007016
  1H   3s         2.109697  0.252234 -0.087944  0.064822  0.000050  1.018050
  1H   1pz       -0.004436  0.008433  0.011759  0.024775 -0.000248 -0.008900
  1H   1px        0.070861  0.008476 -0.104995  0.077450  0.029012  0.062842
  1H   1py       -0.005981 -0.005352 -0.016444 -0.005173 -0.000465 -0.017190
  2H   1s        -0.012918 -0.030168 -0.119248 -0.052062 -0.014946 -0.104241
  2H   2s         0.034364  0.080286 -1.416637 -0.618505 -0.391488 -1.006897
  2H   3s        -0.836536 -1.953128  0.100195  0.043733 -0.000180  1.017607
  2H   1pz       -0.017736 -0.026733  0.060513  0.045485  0.014419  0.019589
  2H   1px        0.000473  0.021878 -0.054693  0.003128 -0.009425 -0.011821
  2H   1py        0.023824  0.056301 -0.088851 -0.037903 -0.023328 -0.061642
  3H   1s        -0.019665  0.026273  0.014544  0.129301 -0.014954 -0.104249
  3H   2s         0.052343 -0.069893  0.172730  1.536013 -0.391575 -1.006946
  3H   3s        -1.273375  1.701034 -0.012113 -0.108690 -0.000139  1.017669
  3H   1pz        0.043332 -0.052677  0.022926  0.119589 -0.027370 -0.061625
  3H   1px        0.005619 -0.021152 -0.019137  0.051341 -0.009421 -0.011815
  3H   1py        0.001834 -0.010580 -0.015119 -0.002628 -0.001709 -0.019622
                     12        13        14        15        16        17   
                   0.47148   0.48555   0.48557   0.85272   0.85273   1.09942
                   0.00000   0.00000   0.00000   0.00000   0.00000   0.00000
                  --------  --------  --------  --------  --------  --------
  0N   1s         0.030235 -0.000016 -0.000012 -0.000000  0.000000  0.003300
  0N   2s         0.055843 -0.000030 -0.000020  0.000000  0.000001  0.011922
  0N   3s         0.112810 -0.000077 -0.000063 -0.000019  0.000000 -0.197031
  0N   4s        -1.947399  0.001128  0.000990  0.000054 -0.000020  0.287200
  0N   5s         6.355054 -0.003506 -0.003755  0.000083  0.000028  2.838961
  0N   1pz        0.002237  0.333332 -0.010888  0.004385  0.040388 -0.049699
  0N   1px       -0.001331  0.070476  0.341689  0.042406  0.002662  0.038209
  0N   1py        0.003982 -0.144377  0.141638  0.014605 -0.019837 -0.096057
  0N   2pz       -0.044365  0.919005 -0.030003  0.005781  0.052646 -0.109721
  0N   2px        0.035339  0.194276  0.941920  0.055325  0.003435  0.084773
  0N   2py       -0.086718 -0.398002  0.390554  0.019023 -0.025856 -0.212079
  0N   3pz       -0.496024 -1.856038  0.060966  0.018509  0.170210 -0.367712
  0N   3px        0.379301 -0.392693 -1.903088  0.178814  0.011157  0.283187
  0N   3py       -0.956980  0.804539 -0.788160  0.061579 -0.083611 -0.710870
  0N   1dz2      -0.003337 -0.002114  0.002583 -0.000371 -0.001623 -0.002089
  0N   1dxz      -0.003820  0.004403 -0.003459 -0.000796  0.000362 -0.002395
  0N   1dyz       0.009589 -0.002731 -0.002737 -0.000357 -0.001329  0.006007
  0N   1dx2y2    -0.007801 -0.001274  0.001217  0.001498 -0.000830 -0.004887
  0N   1dxy      -0.007387 -0.003510 -0.004203 -0.001475 -0.000305 -0.004625
  0N   2dz2      -0.012137  0.006745  0.005320 -0.290032  0.246864  0.236668
  0N   2dxz      -0.013845  0.006012 -0.000652  0.317830 -0.582623  0.271097
  0N   2dyz       0.034806  0.003821 -0.003653  0.366960  0.239565 -0.680982
  0N   2dx2y2    -0.028276  0.001658 -0.007889 -0.074622  0.148300  0.554312
  0N   2dxy      -0.026790 -0.002815  0.001666  0.522492  0.344356  0.524029
  0N   1f0       -0.004724  0.002108  0.003187  0.005704  0.002599 -0.023730
  0N   1f+1      -0.007524  0.004041 -0.002144 -0.002753  0.006024 -0.018940
  0N   1f-1      -0.001184 -0.002319  0.000876  0.001180 -0.001228 -0.003851
  0N   1f+2      -0.002404 -0.000589  0.003674  0.004369 -0.002424 -0.019068
  0N   1f-2       0.003935  0.003330 -0.003316 -0.003218  0.005345 -0.002139
  0N   1f+3      -0.005169 -0.004267 -0.003851 -0.006089 -0.005173 -0.026915
  0N   1f-3      -0.001674 -0.000635 -0.001149  0.000318 -0.001521  0.002075
  1H   1s        -0.017388 -0.021005 -0.101892  0.012485  0.000778  0.003494
  1H   2s        -0.993199 -0.139365 -0.677528 -0.195933 -0.012212 -1.203681
  1H   3s        -1.091618  0.474535  2.298421 -0.026414 -0.001640 -0.300910
  1H   1pz       -0.011800  0.012932 -0.001214  0.085853 -0.135325  0.049368
  1H   1px        0.029903  0.004042  0.019590  0.017193  0.001054  0.088653
  1H   1py       -0.022798 -0.005975  0.004048  0.144494  0.081815  0.095459
  2H   1s        -0.017325 -0.077754  0.069201 -0.006923  0.010417  0.003416
  2H   2s        -0.992631 -0.517014  0.461071  0.108402 -0.163471 -1.202681
  2H   3s        -1.093514  1.753678 -1.558826  0.014660 -0.022036 -0.301046
  2H   1pz       -0.001213  0.014661 -0.001817 -0.140243  0.046410  0.113721
  2H   1px        0.002150  0.001800  0.014260 -0.060534 -0.142206 -0.080180
  2H   1py       -0.039273 -0.010215  0.009641 -0.052476  0.071393 -0.004894
  3H   1s        -0.017261  0.098793  0.032789 -0.005580 -0.011203  0.003409
  3H   2s        -0.992136  0.657965  0.218699  0.087364  0.175685 -1.202739
  3H   3s        -1.095192 -2.226407 -0.737896  0.011745  0.023662 -0.300989
  3H   1pz       -0.031335  0.018975  0.001527  0.041871 -0.026448 -0.069710
  3H   1px        0.002152  0.003976  0.013806 -0.077771  0.133546 -0.080171
  3H   1py       -0.023690 -0.003946  0.006146 -0.133809 -0.096565  0.089988
                     18        19        20        21        22        23   
                   1.19677   1.19680   1.53412   1.65864   1.65865   1.72578
                   0.00000   0.00000   0.00000   0.00000   0.00000   0.00000
                  --------  --------  --------  --------  --------  --------
  0N   1s        -0.000001 -0.000001 -0.000001 -0.000003  0.000008 -0.054278
  0N   2s        -0.000002 -0.000001 -0.000002 -0.000008  0.000027 -0.174253
  0N   3s        -0.000002  0.000010  0.000008  0.000066 -0.000280  1.757190
  0N   4s         0.000153 -0.000004  0.000019 -0.000161  0.000740 -4.639429
  0N   5s        -0.000768 -0.000175 -0.000027 -0.000001 -0.000125  0.963446
  0N   1pz       -0.005300  0.013977 -0.000001 -0.288540 -0.099386 -0.247457
  0N   1px       -0.015356 -0.002986 -0.000013  0.051205 -0.315110  0.190426
  0N   1py       -0.003354 -0.008414  0.000003  0.169628 -0.073922 -0.478480
  0N   2pz        0.398996 -1.052191 -0.000054  0.690960  0.238004  0.591002
  0N   2px        1.155634  0.224249  0.000019 -0.122637  0.754661 -0.454800
  0N   2py        0.253632  0.633568  0.000023 -0.406192  0.177041  1.142813
  0N   3pz        0.331995 -0.875266 -0.000049 -0.544988 -0.187785 -0.092287
  0N   3px        0.961249  0.186556 -0.000024  0.096710 -0.595192  0.071002
  0N   3py        0.211162  0.527082  0.000029  0.320425 -0.139748 -0.178510
  0N   1dz2      -0.001623  0.000563  0.000000  0.011268  0.008119 -0.004751
  0N   1dxz      -0.000198  0.001637  0.000001 -0.000164  0.004932 -0.005434
  0N   1dyz       0.000688  0.000856  0.000001  0.009827  0.002842  0.013660
  0N   1dx2y2     0.001271  0.000755  0.000003  0.009082 -0.011176 -0.011110
  0N   1dxy       0.000389 -0.000789 -0.000002 -0.001842  0.009289 -0.010508
  0N   2dz2      -1.180294  0.824699  0.000081 -0.365807 -0.325176 -0.126505
  0N   2dxz      -0.342894  0.734779  0.000048 -0.082029 -0.153614 -0.144814
  0N   2dyz       0.154736  0.891439  0.000046 -0.334724 -0.046385  0.363671
  0N   2dx2y2     1.142032  0.829985  0.000038 -0.306581  0.399080 -0.295776
  0N   2dxy      -0.295669 -0.471875 -0.000026  0.096861 -0.255447 -0.279972
  0N   1f0        0.061423 -0.009773 -0.003302  0.005849  0.028760  0.118176
  0N   1f+1      -0.015961 -0.055022  0.001619  0.029182 -0.006861  0.136445
  0N   1f-1       0.018100 -0.011503  0.002736 -0.003599  0.005197  0.023866
  0N   1f+2       0.019995  0.036609  0.003771 -0.015974  0.015512  0.079297
  0N   1f-2      -0.006065 -0.047673  0.001453  0.026385 -0.007719 -0.038469
  0N   1f+3      -0.057723  0.029024 -0.001259 -0.016610 -0.031558  0.131686
  0N   1f-3       0.020335  0.028746  0.001967 -0.008820  0.002499  0.013171
  1H   1s         0.191954  0.037247  0.000027 -0.013757  0.084523 -0.447041
  1H   2s        -2.741375 -0.531957 -0.000025  0.123054 -0.756866  1.967071
  1H   3s         0.434365  0.084276  0.000023 -0.103183  0.634886 -0.594862
  1H   1pz       -0.044418  0.040444 -0.544078  0.342758  0.395805  0.118054
  1H   1px        0.423558  0.082188  0.000009 -0.051216  0.315160 -0.505392
  1H   1py       -0.063347 -0.037668  0.281446 -0.309274  0.607201  0.228211
  2H   1s        -0.063701 -0.184853 -0.000032  0.079986 -0.030290 -0.447074
  2H   2s         0.910251  2.640308  0.000156 -0.716553  0.271505  1.967294
  2H   3s        -0.144036 -0.418238 -0.000037  0.601297 -0.227983 -0.595025
  2H   1pz       -0.084790 -0.150114  0.353260  0.681078  0.020761 -0.092948
  2H   1px       -0.006964  0.115559  0.500167 -0.290546  0.505254  0.047496
  2H   1py        0.125689  0.369084  0.016326  0.182431 -0.056372  0.557219
  3H   1s        -0.128216  0.147586  0.000017 -0.066311 -0.054060 -0.447035
  3H   2s         1.831733 -2.108153 -0.000157  0.593754  0.484438  1.967105
  3H   3s        -0.290014  0.334031  0.000037 -0.498160 -0.406649 -0.594911
  3H   1pz        0.285690 -0.303104  0.190783  0.250428  0.022435  0.508425
  3H   1px        0.036791 -0.109772 -0.500153  0.115601  0.571277  0.047461
  3H   1py        0.037088 -0.082901 -0.297770 -0.622329 -0.224237  0.246078
                     24        25        26        27        28        29   
                   1.89377   1.95619   1.95620   2.22124   2.29197   2.29199
                   0.00000   0.00000   0.00000   0.00000   0.00000   0.00000
                  --------  --------  --------  --------  --------  --------
  0N   1s         0.076203  0.000011 -0.000012 -0.050117 -0.000026 -0.000019
  0N   2s         0.245136  0.000038 -0.000039 -0.174301 -0.000090 -0.000059
  0N   3s        -1.875787 -0.000288  0.000294  1.331299  0.000619  0.000365
  0N   4s         3.512044  0.000462 -0.000501 -2.043431 -0.000726 -0.000386
  0N   5s        -1.426571 -0.000277  0.000184  2.488619  0.001030  0.000561
  0N   1pz       -0.294657 -0.482046 -0.601367  0.250549 -0.027066 -0.004607
  0N   1px        0.226663  0.534222 -0.603771 -0.192854 -0.009119  0.027016
  0N   1py       -0.569626  0.461947  0.070689  0.484481  0.010008  0.012755
  0N   2pz        0.167379  1.319844  1.646630 -0.492904  0.480344  0.079724
  0N   2px       -0.128594 -1.462821  1.653271  0.379286  0.167046 -0.480998
  0N   2py        0.323582 -1.264980 -0.193554 -0.953238 -0.181489 -0.232107
  0N   3pz       -0.235649 -0.547301 -0.682747 -0.117695  0.195312  0.032222
  0N   3px        0.181217  0.606556 -0.685550  0.090467  0.068291 -0.195731
  0N   3py       -0.455536  0.524528  0.080294 -0.227431 -0.074185 -0.094777
  0N   1dz2       0.002888 -0.002667 -0.015866  0.010271 -0.029262  0.014230
  0N   1dxz       0.003301 -0.002709 -0.006736  0.011750 -0.018987 -0.002363
  0N   1dyz      -0.008291 -0.009077 -0.005165 -0.029525 -0.015160 -0.013585
  0N   1dx2y2     0.006742 -0.015005  0.006062  0.024008 -0.003059 -0.031567
  0N   1dxy       0.006380  0.006671 -0.002473  0.022729  0.006601  0.010493
  0N   2dz2      -0.077512  0.204207 -0.154548 -0.128606  0.045604 -0.621987
  0N   2dxz      -0.088558 -0.404236 -0.170574 -0.146814  0.850531  0.677775
  0N   2dyz       0.222668 -0.132478  0.212004  0.369473 -0.326010  0.535733
  0N   2dx2y2    -0.181065 -0.034973  0.083508 -0.300427 -0.145407  0.135124
  0N   2dxy      -0.171239 -0.018377  0.345307 -0.284171 -0.730263  0.484449
  0N   1f0       -0.046007 -0.032770  0.083749 -0.033382  0.059248 -0.070178
  0N   1f+1      -0.071623  0.081293  0.022074 -0.088351  0.075253  0.062684
  0N   1f-1      -0.011340 -0.002029  0.027188 -0.012268 -0.015715 -0.021937
  0N   1f+2      -0.024019 -0.061326  0.000625 -0.003967 -0.015927 -0.072657
  0N   1f-2       0.036463  0.066608  0.026753  0.068801  0.063200  0.068278
  0N   1f+3      -0.050312  0.006616 -0.095729 -0.034566 -0.098385  0.066425
  0N   1f-3      -0.015401 -0.046866  0.002242 -0.031412 -0.020049 -0.007786
  1H   1s         0.227278 -0.338203  0.382231  0.308642  0.155219 -0.445800
  1H   2s        -0.784407  1.252669 -1.415695 -0.601215 -0.256906  0.737498
  1H   3s         0.344139 -0.868235  0.981307 -0.279198  0.065038 -0.187722
  1H   1pz        0.160408  0.212494 -0.084245  0.278610 -0.746752 -0.492279
  1H   1px        0.207519 -0.393966  0.445254  0.044161  0.071430 -0.204600
  1H   1py        0.310127  0.221138 -0.330573  0.538897  0.562896 -0.253807
  2H   1s         0.227257  0.500086  0.101739  0.308914  0.308691  0.357216
  2H   2s        -0.784197 -1.852460 -0.376800 -0.601691 -0.510598 -0.591062
  2H   3s         0.343978  1.284057  0.261201 -0.279032  0.129778  0.150264
  2H   1pz        0.328824  0.004971  0.069386  0.410509 -0.154297  0.682503
  2H   1px       -0.233748 -0.008119  0.095214 -0.300752 -0.797463  0.295908
  2H   1py        0.047531 -0.727268 -0.144822  0.333500  0.057587  0.106306
  3H   1s         0.227289 -0.161946 -0.484038  0.308770 -0.463492  0.088594
  3H   2s        -0.784235  0.599716  1.792898 -0.601434  0.766746 -0.146635
  3H   3s         0.343985 -0.415677 -1.242696 -0.279188 -0.195267  0.037133
  3H   1pz       -0.151209  0.229777  0.572715  0.034997  0.083893 -0.325676
  3H   1px       -0.233727 -0.093574  0.019687 -0.300566  0.441906  0.726965
  3H   1py        0.295796  0.077502  0.409734  0.527716 -0.311423  0.542382
                     30        31        32        33        34        35   
                   2.32717   2.40676   2.40678   2.93474   3.13420   3.13422
                   0.00000   0.00000   0.00000   0.00000   0.00000   0.00000
                  --------  --------  --------  --------  --------  --------
  0N   1s        -0.082490  0.000017  0.000005  0.027244  0.000001  0.000003
  0N   2s        -0.278872  0.000059  0.000015  0.053349  0.000001  0.000006
  0N   3s         1.911498 -0.000392 -0.000097  1.186727  0.000080  0.000200
  0N   4s        -2.288615  0.000438  0.000096 -5.944302 -0.000366 -0.000920
  0N   5s         3.459098 -0.000813 -0.000188  0.115439  0.000002 -0.000076
  0N   1pz       -0.297940 -0.099340  0.720667 -0.040756 -0.416577 -0.121929
  0N   1px        0.229555  0.725141  0.230543  0.031445  0.051627 -0.451089
  0N   1py       -0.575992  0.340245 -0.280951 -0.078839  0.236042 -0.116516
  0N   2pz        0.363595 -0.069366  0.502034  0.850974  3.004615  0.879501
  0N   2px       -0.279965  0.505304  0.160692 -0.655461 -0.372480  3.253444
  0N   2py        0.703413  0.236769 -0.195828  1.645527 -1.702395  0.840499
  0N   3pz       -0.365917 -0.075856  0.550324  0.046330 -0.001280 -0.000345
  0N   3px        0.281757  0.553687  0.176041 -0.035672  0.000130 -0.001404
  0N   3py       -0.707159  0.259899 -0.214537  0.089601  0.000735 -0.000325
  0N   1dz2       0.007669  0.017460  0.031718  0.024268  0.087759  0.158957
  0N   1dxz       0.008768 -0.003066  0.022258  0.027806  0.148762  0.017011
  0N   1dyz      -0.022006 -0.015303  0.016522 -0.069859  0.093786 -0.062730
  0N   1dx2y2     0.017913 -0.034750  0.004061  0.056854  0.077772 -0.145006
  0N   1dxy       0.016936  0.010514 -0.008677  0.053772 -0.076940 -0.008847
  0N   2dz2       0.068020 -0.408501 -0.502373 -0.154495 -1.047232 -1.037343
  0N   2dxz       0.077261  0.190079 -0.536997 -0.177001 -0.523898 -0.373551
  0N   2dyz      -0.195358  0.358022 -0.190694  0.444866 -0.960851  0.067714
  0N   2dx2y2     0.159026  0.573562 -0.032722 -0.362007 -0.815637  1.244141
  0N   2dxy       0.150470 -0.054918  0.291545 -0.342271  0.357801 -0.565248
  0N   1f0       -0.113921  0.099177  0.077435  0.022293 -0.041580 -0.160843
  0N   1f+1      -0.120043 -0.082083  0.089759  0.065589 -0.172214  0.042962
  0N   1f-1      -0.021712  0.023746  0.018433  0.008915  0.043726 -0.023162
  0N   1f+2      -0.080689  0.080030 -0.038767  0.000209  0.082785 -0.106430
  0N   1f-2       0.023585 -0.068057  0.082111 -0.053559 -0.156935  0.062083
  0N   1f+3      -0.127571 -0.080870 -0.115463  0.022721  0.108321  0.185865
  0N   1f-3      -0.006259  0.046462 -0.030180  0.024614  0.038405  0.003780
  1H   1s         0.414547  0.259597  0.082564  0.258368  0.094458 -0.825130
  1H   2s        -0.893277 -1.773776 -0.564014  2.140402  0.274093 -2.392385
  1H   3s        -0.473367  0.027562  0.008778 -0.275248 -0.056763  0.495644
  1H   1pz       -0.110617 -0.133769  0.213367 -0.048778 -0.431832 -0.037273
  1H   1px        0.320957  1.198650  0.381108 -1.408027 -0.163455  1.426809
  1H   1py       -0.214787 -0.077789 -0.157074 -0.094380  0.219995  0.048728
  2H   1s         0.414191 -0.201537  0.183645  0.258230 -0.761795  0.330830
  2H   2s        -0.892410  1.375805 -1.254350  2.140013 -2.209065  0.959531
  2H   3s        -0.473318 -0.021203  0.019472 -0.275177  0.457641 -0.198736
  2H   1pz        0.008430 -0.301241  0.489087 -0.783881  0.573459 -0.555865
  2H   1px        0.007319  0.413272 -0.073362  0.519422 -0.609190 -0.169634
  2H   1py       -0.401328  0.804367 -0.723488  1.053036 -1.036382  0.435964
  3H   1s         0.414573 -0.058371 -0.266277  0.258117  0.667355  0.494404
  3H   2s        -0.893043  0.398707  1.818536  2.139761  1.935405  1.433960
  3H   3s        -0.473144 -0.006038 -0.028171 -0.275151 -0.400939 -0.297010
  3H   1pz       -0.332406  0.173886  1.192466  1.312246  0.993951  0.925536
  3H   1px        0.006747  0.294892  0.298470  0.519338  0.631836 -0.027568
  3H   1py       -0.224910  0.167862  0.141809 -0.031357  0.173002 -0.167011
                     36        37        38        39        40        41   
                   3.95961   4.19334   4.19335   4.33063   4.48399   4.48400
                   0.00000   0.00000   0.00000   0.00000   0.00000   0.00000
                  --------  --------  --------  --------  --------  --------
  0N   1s        -0.002348 -0.000000  0.000000 -0.000001 -0.000000  0.000001
  0N   2s        -0.004603 -0.000000  0.000001 -0.000001 -0.000001  0.000001
  0N   3s        -0.085737 -0.000008 -0.000003  0.000005  0.000002  0.000026
  0N   4s         0.430709  0.000038 -0.000014  0.000019  0.000029 -0.000131
  0N   5s         0.330731 -0.000064  0.000021 -0.000012 -0.000050  0.000035
  0N   1pz        0.044042 -0.080445 -0.067767 -0.000005  0.014881 -0.018108
  0N   1px       -0.033870 -0.084160  0.070884 -0.000002 -0.016019 -0.018567
  0N   1py        0.085142  0.008115  0.063269  0.000008 -0.014081  0.001962
  0N   2pz       -0.193678  0.481988  0.406041 -0.000004 -0.152259  0.185347
  0N   2px        0.148899  0.504260 -0.424707 -0.000007  0.163985  0.189953
  0N   2py       -0.374418 -0.048609 -0.379089 -0.000028  0.144036 -0.020179
  0N   3pz       -0.057249  0.090725  0.076407  0.000025  0.003747 -0.004569
  0N   3px        0.044044  0.094893 -0.079940  0.000000 -0.004046 -0.004663
  0N   3py       -0.110665 -0.009135 -0.071353 -0.000008 -0.003538  0.000503
  0N   1dz2      -0.029577  0.139790  0.267451  0.000084 -0.529017  0.000936
  0N   1dxz      -0.033836 -0.038100 -0.369004 -0.000029  0.867684 -0.227243
  0N   1dyz       0.085043  0.319560  0.045726  0.000002  0.089472  0.605211
  0N   1dx2y2    -0.069147 -0.036613  0.253245  0.000055 -0.262549  0.050055
  0N   1dxy      -0.065381  0.410574 -0.138313  0.000028  0.184217  0.850419
  0N   2dz2      -0.023905 -0.307174 -0.090184 -0.000027  0.449197 -0.105207
  0N   2dxz      -0.027389 -0.117168 -0.005292  0.000029 -0.687434  0.140677
  0N   2dyz       0.068808 -0.131581 -0.174402  0.000018 -0.012518 -0.525679
  0N   2dx2y2    -0.056031  0.122382 -0.304520 -0.000027  0.312081  0.000486
  0N   2dxy      -0.052948 -0.100924  0.138777 -0.000024 -0.193680 -0.708686
  0N   1f0       -0.239698 -0.126095  0.076994 -0.581862  0.063987  0.123930
  0N   1f+1       0.381467  0.221015  0.050948  0.286407 -0.026633 -0.108469
  0N   1f-1       0.024478 -0.668331 -0.526671  0.482540 -0.284604  0.389731
  0N   1f+2      -0.404363  0.437620 -0.066646  0.664444  0.000345 -0.239858
  0N   1f-2      -0.686709 -0.169002  0.354712  0.256455  0.153020  0.107678
  0N   1f+3      -0.301401 -0.272364  0.045746 -0.221845  0.023527  0.087307
  0N   1f-3       0.338842 -0.352310  0.715197  0.346432  0.427253  0.191115
  1H   1s         0.000496 -0.135799  0.114370  0.000005 -0.053873 -0.062446
  1H   2s        -0.298215 -0.386706  0.325715  0.000006 -0.110887 -0.128417
  1H   3s        -0.017288  0.037549 -0.031615 -0.000003  0.026710  0.030901
  1H   1pz        0.126739 -0.205869  0.021845 -0.308463  0.224951  0.024736
  1H   1px        0.119435  0.156342 -0.131671 -0.000001  0.078681  0.091089
  1H   1py        0.244990 -0.214982  0.259482  0.159580  0.149188  0.294604
  2H   1s         0.000445 -0.031153 -0.174778  0.000004  0.081010 -0.015418
  2H   2s        -0.298347 -0.088684 -0.497755 -0.000017  0.166639 -0.031742
  2H   3s        -0.017262  0.008618  0.048316 -0.000006 -0.040104  0.007646
  2H   1pz        0.237118 -0.097797 -0.119420  0.200257 -0.305464 -0.043533
  2H   1px       -0.169844 -0.086021  0.124853  0.283539  0.179890 -0.178537
  2H   1py        0.072698 -0.071705 -0.382408  0.009242 -0.122340  0.018693
  3H   1s         0.000447  0.166922  0.060399  0.000006 -0.027118  0.077887
  3H   2s        -0.298344  0.475438  0.172046 -0.000015 -0.055742  0.160265
  3H   3s        -0.017266 -0.046143 -0.016716  0.000020  0.013418 -0.038579
  3H   1pz       -0.077674  0.239226  0.043322  0.108141  0.028769  0.081749
  3H   1px       -0.169842 -0.137683  0.063581 -0.283549 -0.202839  0.152029
  3H   1py        0.235543  0.293184  0.173583 -0.168764  0.022100 -0.320215
                     42        43        44        45        46        47   
                   4.50977   4.76067   4.76068   5.26988   5.26992   5.65223
                   0.00000   0.00000   0.00000   0.00000   0.00000   0.00000
                  --------  --------  --------  --------  --------  --------
  0N   1s         0.001607 -0.000000  0.000000  0.000001 -0.000000 -0.004840
  0N   2s         0.003273  0.000001  0.000001  0.000004 -0.000002 -0.046449
  0N   3s         0.152798 -0.000015 -0.000018 -0.000139  0.000058  1.774597
  0N   4s        -0.830463  0.000027  0.000061  0.000440 -0.000188 -5.723601
  0N   5s         0.771701  0.000020 -0.000038 -0.000057  0.000052  0.968334
  0N   1pz       -0.006313  0.000628  0.033745  0.037699 -0.335838 -0.066859
  0N   1px        0.004859 -0.034672  0.006643  0.352882 -0.020838  0.051474
  0N   1py       -0.012218 -0.014123 -0.014809  0.120979  0.165425 -0.129259
  0N   2pz        0.130080  0.008692  0.481372 -0.314999  2.806041  0.691301
  0N   2px       -0.100126 -0.494698  0.094534 -2.948482  0.174105 -0.532196
  0N   2py        0.251567 -0.201427 -0.211400 -1.010871 -1.382166  1.336511
  0N   3pz       -0.063683 -0.006163 -0.337271  0.013093 -0.116461 -0.049364
  0N   3px        0.048997  0.346594 -0.066302  0.122388 -0.007214  0.037994
  0N   3py       -0.123115  0.141149  0.148081  0.041943  0.057367 -0.095402
  0N   1dz2      -0.258087  0.600020 -0.818800  0.058540 -0.146325 -0.024453
  0N   1dxz      -0.295238 -0.022186 -0.644747  0.057882 -0.004295 -0.028014
  0N   1dyz       0.741801 -0.380662 -0.502735  0.010914 -0.117432  0.070348
  0N   1dx2y2    -0.603467 -0.950746 -0.224588 -0.145883 -0.073917 -0.057260
  0N   1dxy      -0.570949  0.250555  0.287757  0.112018 -0.006142 -0.054135
  0N   2dz2       0.160279 -0.378730  0.446075  1.154172 -1.165159 -0.170641
  0N   2dxz       0.183314  0.055571  0.428531  0.074540 -1.082294 -0.195400
  0N   2dyz      -0.460567  0.254826  0.256658 -0.532935 -0.865266  0.490938
  0N   2dx2y2     0.374706  0.534362  0.113407 -1.468415 -0.546607 -0.399446
  0N   2dxy       0.354518 -0.091216 -0.209674  0.299502  0.539858 -0.377824
  0N   1f0       -0.028020  0.165523 -0.094842 -0.727599  0.317917  0.704556
  0N   1f+1      -0.132757 -0.110283 -0.100821  0.365947  0.658924  0.858447
  0N   1f-1      -0.016833  0.036330 -0.151997 -0.178943  0.122625  0.147233
  0N   1f+2       0.018489  0.049640  0.110195 -0.404206 -0.372078  0.456146
  0N   1f-2       0.125847 -0.018475 -0.105654  0.264921  0.593745 -0.281491
  0N   1f+3      -0.025936 -0.093891  0.112416  0.654517 -0.565759  0.782880
  0N   1f-3      -0.058930  0.176919  0.074782 -0.277082 -0.269734  0.103454
  1H   1s         0.008125 -0.077870  0.014936  1.319652 -0.077920  0.851758
  1H   2s         0.030449  0.153489 -0.029289  2.062103 -0.121748  1.287357
  1H   3s        -0.133540 -0.224463  0.042926 -0.503293  0.029703 -0.301949
  1H   1pz       -0.064287  0.001645 -0.169486  0.020984  0.188882  0.040656
  1H   1px       -0.190562 -0.440654  0.084255 -1.366825  0.080683 -0.990668
  1H   1py       -0.124276  0.079678  0.072249  0.013129 -0.099109  0.078600
  2H   1s         0.008144  0.051852  0.059958 -0.727400 -1.103919  0.851638
  2H   2s         0.030447 -0.102122 -0.118296 -1.136686 -1.725029  1.287183
  2H   3s        -0.133540  0.149402  0.172927  0.277408  0.421014 -0.301892
  2H   1pz       -0.186361  0.200358  0.066934  0.272783  0.637950 -0.447241
  2H   1px        0.129499  0.040252 -0.187050 -0.391320 -0.276753  0.288464
  2H   1py        0.066282 -0.257991 -0.306244 -0.609996 -0.915392  0.840097
  3H   1s         0.008106  0.025971 -0.074917 -0.592406  1.181908  0.851581
  3H   2s         0.030394 -0.051392  0.147574 -0.925754  1.846892  1.287109
  3H   3s        -0.133524  0.075055 -0.215834  0.225952 -0.450756 -0.301890
  3H   1pz        0.161773 -0.196852  0.388643 -0.519627  1.185167  0.944040
  3H   1px        0.129413  0.106415  0.158957 -0.356019  0.320913  0.288457
  3H   1py       -0.113757  0.058605  0.108362 -0.127974  0.023453  0.120390
                     48   
                  31.17486
                   0.00000
                  --------
  0N   1s        -1.386667
  0N   2s         1.695930
  0N   3s        -1.512654
  0N   4s         1.533846
  0N   5s        -1.160400
  0N   1pz        0.008605
  0N   1px       -0.006621
  0N   1py        0.016635
  0N   2pz       -0.013256
  0N   2px        0.010199
  0N   2py       -0.025625
  0N   3pz        0.054406
  0N   3px       -0.041862
  0N   3py        0.105175
  0N   1dz2      -0.000942
  0N   1dxz      -0.001079
  0N   1dyz       0.002710
  0N   1dx2y2    -0.002205
  0N   1dxy      -0.002086
  0N   2dz2       0.000433
  0N   2dxz       0.000496
  0N   2dyz      -0.001245
  0N   2dx2y2     0.001013
  0N   2dxy       0.000958
  0N   1f0       -0.006000
  0N   1f+1      -0.008626
  0N   1f-1      -0.001400
  0N   1f+2      -0.003397
  0N   1f-2       0.003926
  0N   1f+3      -0.006597
  0N   1f-3      -0.001612
  1H   1s        -0.028514
  1H   2s         0.019064
  1H   3s         0.199373
  1H   1pz       -0.002513
  1H   1px       -0.035059
  1H   1py       -0.004859
  2H   1s        -0.028515
  2H   2s         0.019065
  2H   3s         0.199371
  2H   1pz       -0.021327
  2H   1px        0.014265
  2H   1py        0.024508
  3H   1s        -0.028515
  3H   2s         0.019066
  3H   3s         0.199371
  3H   1pz        0.032325
  3H   1px        0.014265
  3H   1py       -0.003246



                    ********************************
                    * MULLIKEN POPULATION ANALYSIS *
                    ********************************

-----------------------
MULLIKEN ATOMIC CHARGES
-----------------------
   0 N :   -0.665819
   1 H :    0.221930
   2 H :    0.221938
   3 H :    0.221951
Sum of atomic charges:   -0.0000000

--------------------------------
MULLIKEN REDUCED ORBITAL CHARGES
--------------------------------
  0 N s       :     3.566274  s :     3.566274
      pz      :     1.266864  p :     4.075769
      px      :     1.218663
      py      :     1.590242
      dz2     :     0.007282  d :     0.022408
      dxz     :    -0.000061
      dyz     :     0.004192
      dx2y2   :     0.008534
      dxy     :     0.002459
      f0      :     0.000299  f :     0.001369
      f+1     :     0.000280
      f-1     :     0.000013
      f+2     :     0.000217
      f-2     :     0.000107
      f+3     :     0.000481
      f-3     :    -0.000028
  1 H s       :     0.742276  s :     0.742276
      pz      :     0.007890  p :     0.035793
      px      :     0.016900
      py      :     0.011003
  2 H s       :     0.742269  s :     0.742269
      pz      :     0.010540  p :     0.035793
      px      :     0.008575
      py      :     0.016679
  3 H s       :     0.742256  s :     0.742256
      pz      :     0.016221  p :     0.035793
      px      :     0.008575
      py      :     0.010997


                     *******************************
                     * LOEWDIN POPULATION ANALYSIS *
                     *******************************

----------------------
LOEWDIN ATOMIC CHARGES
----------------------
   0 N :   -0.385901
   1 H :    0.128631
   2 H :    0.128635
   3 H :    0.128636

-------------------------------
LOEWDIN REDUCED ORBITAL CHARGES
-------------------------------
  0 N s       :     3.175605  s :     3.175605
      pz      :     1.302207  p :     4.141334
      px      :     1.261100
      py      :     1.578027
      dz2     :     0.022254  d :     0.063598
      dxz     :     0.005778
      dyz     :     0.009420
      dx2y2   :     0.022190
      dxy     :     0.003955
      f0      :     0.001184  f :     0.005364
      f+1     :     0.001344
      f-1     :     0.000057
      f+2     :     0.000567
      f-2     :     0.000581
      f+3     :     0.001499
      f-3     :     0.000132
  1 H s       :     0.758205  s :     0.758205
      pz      :     0.022454  p :     0.113165
      px      :     0.058296
      py      :     0.032416
  2 H s       :     0.758202  s :     0.758202
      pz      :     0.031743  p :     0.113163
      px      :     0.024939
      py      :     0.056481
  3 H s       :     0.758201  s :     0.758201
      pz      :     0.055695  p :     0.113163
      px      :     0.024939
      py      :     0.032529


                      *****************************
                      * MAYER POPULATION ANALYSIS *
                      *****************************

  NA   - Mulliken gross atomic population
  ZA   - Total nuclear charge
  QA   - Mulliken gross atomic charge
  VA   - Mayer's total valence
  BVA  - Mayer's bonded valence
  FA   - Mayer's free valence

  ATOM       NA         ZA         QA         VA         BVA        FA
  0 N      7.6658     7.0000    -0.6658     2.8449     2.8449    -0.0000
  1 H      0.7781     1.0000     0.2219     0.9501     0.9501    -0.0000
  2 H      0.7781     1.0000     0.2219     0.9502     0.9502    -0.0000
  3 H      0.7780     1.0000     0.2220     0.9501     0.9501    -0.0000

  Mayer bond orders larger than 0.100000
B(  0-N ,  1-H ) :   0.9483 B(  0-N ,  2-H ) :   0.9483 B(  0-N ,  3-H ) :   0.9483 


Now starting NBO....

 *********************************** NBO 7.0 ***********************************
             N A T U R A L   A T O M I C   O R B I T A L   A N D
          N A T U R A L   B O N D   O R B I T A L   A N A L Y S I S
 *********************** Giovanni  F. Caramori (I101916) ***********************
  (c) Copyright 1996-2020 Board of Regents of the University of Wisconsin System
      on behalf of the Theoretical Chemistry Institute.  All rights reserved.

          Cite this program [NBO 7.0.8 (11-Feb-2020)] as:

          NBO 7.0.  E. D. Glendening, J. K. Badenhoop, A. E. Reed,
          J. E. Carpenter, J. A. Bohmann, C. M. Morales, P. Karafiloglou,
          C. R. Landis, and F. Weinhold, Theoretical Chemistry Institute,
          University of Wisconsin, Madison, WI (2018)

       /NPA    / : Natural Population Analysis
       /NBO    / : Natural Bond Orbital Analysis
       /AONBO  / : Checkpoint the AO to NBO transformation
       /ARCHIVE/ : Write the archive file to lfn47

 Job title: ORCA Job: NH3


 NATURAL POPULATIONS:  Natural atomic orbital occupancies

  NAO Atom No lang   Type(AO)    Occupancy      Energy
 -------------------------------------------------------
   1    N  1  s      Cor( 1s)     1.99999     -16.64964
   2    N  1  s      Val( 2s)     1.50054      -1.21601
   3    N  1  s      Ryd( 3s)     0.00013       1.80100
   4    N  1  s      Ryd( 4s)     0.00000       2.91098
   5    N  1  s      Ryd( 5s)     0.00000      26.02284
   6    N  1  px     Val( 2p)     1.39654      -0.82396
   7    N  1  px     Ryd( 3p)     0.00252       0.21899
   8    N  1  px     Ryd( 4p)     0.00002       1.93738
   9    N  1  py     Val( 2p)     1.69278      -0.81560
  10    N  1  py     Ryd( 3p)     0.00551       0.10938
  11    N  1  py     Ryd( 4p)     0.00011       1.60115
  12    N  1  pz     Val( 2p)     1.43496      -0.82287
  13    N  1  pz     Ryd( 3p)     0.00290       0.20476
  14    N  1  pz     Ryd( 4p)     0.00003       1.89377
  15    N  1  dxy    Ryd( 3d)     0.00243       0.70500
  16    N  1  dxy    Ryd( 4d)     0.00001       3.72252
  17    N  1  dxz    Ryd( 3d)     0.00069       0.77063
  18    N  1  dxz    Ryd( 4d)     0.00001       3.75913
  19    N  1  dyz    Ryd( 3d)     0.00357       0.83796
  20    N  1  dyz    Ryd( 4d)     0.00001       3.77703
  21    N  1  dx2y2  Ryd( 3d)     0.00485       1.07478
  22    N  1  dx2y2  Ryd( 4d)     0.00001       3.86135
  23    N  1  dz2    Ryd( 3d)     0.00363       1.06842
  24    N  1  dz2    Ryd( 4d)     0.00001       3.85998
  25    N  1  f(0)   Ryd( 4f)     0.00013       3.89876
  26    N  1  f(c1)  Ryd( 4f)     0.00013       3.90750
  27    N  1  f(s1)  Ryd( 4f)     0.00002       3.56017
  28    N  1  f(c2)  Ryd( 4f)     0.00010       3.66061
  29    N  1  f(s2)  Ryd( 4f)     0.00008       3.54592
  30    N  1  f(c3)  Ryd( 4f)     0.00019       3.91335
  31    N  1  f(s3)  Ryd( 4f)     0.00002       3.57242

  32    H  2  s      Val( 1s)     0.64816      -0.40870
  33    H  2  s      Ryd( 2s)     0.00039       0.53709
  34    H  2  s      Ryd( 3s)     0.00004       1.27947
  35    H  2  px     Ryd( 2p)     0.00032       2.32505
  36    H  2  py     Ryd( 2p)     0.00030       1.53462
  37    H  2  pz     Ryd( 2p)     0.00015       1.56435

  38    H  3  s      Val( 1s)     0.64816      -0.40870
  39    H  3  s      Ryd( 2s)     0.00039       0.53740
  40    H  3  s      Ryd( 3s)     0.00004       1.27920
  41    H  3  px     Ryd( 2p)     0.00012       1.64691
  42    H  3  py     Ryd( 2p)     0.00048       2.02941
  43    H  3  pz     Ryd( 2p)     0.00016       1.74775

  44    H  4  s      Val( 1s)     0.64816      -0.40870
  45    H  4  s      Ryd( 2s)     0.00039       0.53743
  46    H  4  s      Ryd( 3s)     0.00004       1.27917
  47    H  4  px     Ryd( 2p)     0.00012       1.64691
  48    H  4  py     Ryd( 2p)     0.00030       1.53747
  49    H  4  pz     Ryd( 2p)     0.00033       2.23970


 Summary of Natural Population Analysis:

                                     Natural Population
             Natural    ---------------------------------------------
  Atom No    Charge        Core      Valence    Rydberg      Total
 --------------------------------------------------------------------
    N  1   -1.05196      1.99999     6.02482    0.02715     8.05196
    H  2    0.35065      0.00000     0.64816    0.00119     0.64935
    H  3    0.35065      0.00000     0.64816    0.00119     0.64935
    H  4    0.35065      0.00000     0.64816    0.00119     0.64935
 ====================================================================
 * Total *  0.00000      1.99999     7.96929    0.03072    10.00000

                                 Natural Population
 ---------------------------------------------------------
   Core                       1.99999 ( 99.9997% of    2)
   Valence                    7.96929 ( 99.6161% of    8)
   Natural Minimal Basis      9.96928 ( 99.6928% of   10)
   Natural Rydberg Basis      0.03072 (  0.3072% of   10)
 ---------------------------------------------------------

    Atom No         Natural Electron Configuration
 ----------------------------------------------------------------------------
      N  1      [core]2s( 1.50)2p( 4.52)3p( 0.01)3d( 0.02)
      H  2            1s( 0.65)
      H  3            1s( 0.65)
      H  4            1s( 0.65)


 NATURAL BOND ORBITAL ANALYSIS:

                            Occupancies       Lewis Structure    Low   High
         Max    Occ     -------------------  -----------------   occ   occ
  Cycle  Ctr   Thresh    Lewis   non-Lewis     CR  BD  nC  LP    (L)   (NL)
 ============================================================================
    1     2     1.90     9.99707   0.00293      1   3   0   1     0      0
 ----------------------------------------------------------------------------

 Structure accepted: No low occupancy Lewis orbitals

 -------------------------------------------------------
   Core                      1.99999 (100.000% of   2)
   Valence Lewis             7.99708 ( 99.963% of   8)
  ==================      =============================
   Total Lewis               9.99707 ( 99.971% of  10)
  -----------------------------------------------------
   Valence non-Lewis         0.00004 (  0.000% of  10)
   Rydberg non-Lewis         0.00289 (  0.029% of  10)
  ==================      =============================
   Total non-Lewis           0.00293 (  0.029% of  10)
 -------------------------------------------------------


     (Occupancy)   Bond orbital / Coefficients / Hybrids
 ------------------ Lewis ------------------------------------------------------
   1. (1.99999) CR ( 1) N  1            s(100.00%)
                                         1.0000  0.0000  0.0000  0.0000  0.0000
                                         0.0000  0.0000  0.0000  0.0000  0.0000
                                         0.0000  0.0000  0.0000  0.0000  0.0000
                                         0.0000  0.0000  0.0000  0.0000  0.0000
                                         0.0000  0.0000  0.0000  0.0000  0.0000
                                         0.0000  0.0000  0.0000  0.0000  0.0000
                                         0.0000
   2. (1.99799) LP ( 1) N  1            s( 22.82%)p 3.37( 76.96%)d 0.01(  0.22%)
                                                  f 0.00(  0.00%)
                                         0.0000  0.4776  0.0067  0.0000  0.0000
                                        -0.2918 -0.0198 -0.0004  0.7329  0.0497
                                         0.0011  0.3791  0.0257  0.0006  0.0226
                                        -0.0017  0.0117 -0.0009 -0.0293  0.0022
                                         0.0239 -0.0018  0.0102 -0.0008  0.0015
                                        -0.0028 -0.0002  0.0027  0.0048  0.0019
                                        -0.0023
   3. (1.99970) BD ( 1) N  1- H  2
               ( 67.58%)   0.8220* N  1 s( 25.65%)p 2.89( 74.07%)d 0.01(  0.27%)
                                                  f 0.00(  0.01%)
                                         0.0000  0.5064 -0.0031  0.0000  0.0000
                                         0.8600 -0.0297 -0.0007  0.0093 -0.0081
                                         0.0056  0.0048 -0.0042  0.0029 -0.0221
                                         0.0009 -0.0114  0.0005 -0.0067  0.0009
                                         0.0410  0.0019 -0.0182 -0.0018 -0.0031
                                        -0.0055 -0.0010 -0.0009 -0.0021 -0.0095
                                        -0.0021
               ( 32.42%)   0.5694* H  2 s( 99.97%)p 0.00(  0.03%)
                                         0.9998 -0.0001  0.0000 -0.0186 -0.0005
                                        -0.0003
   4. (1.99970) BD ( 1) N  1- H  3
               ( 67.58%)   0.8220* N  1 s( 25.65%)p 2.89( 74.07%)d 0.01(  0.27%)
                                                  f 0.00(  0.01%)
                                         0.0000  0.5064 -0.0031  0.0000  0.0000
                                        -0.2916  0.0142 -0.0028 -0.6764  0.0180
                                         0.0044  0.4441 -0.0210  0.0037  0.0187
                                         0.0010  0.0046 -0.0020 -0.0293 -0.0016
                                        -0.0326 -0.0010 -0.0196  0.0003 -0.0055
                                        -0.0016 -0.0037 -0.0059  0.0041 -0.0063
                                         0.0015
               ( 32.42%)   0.5694* H  3 s( 99.97%)p 0.00(  0.03%)
                                         0.9998 -0.0001  0.0000  0.0065  0.0144
                                        -0.0099
   5. (1.99970) BD ( 1) N  1- H  4
               ( 67.58%)   0.8220* N  1 s( 25.65%)p 2.89( 74.07%)d 0.01(  0.27%)
                                                  f 0.00(  0.01%)
                                         0.0000  0.5064 -0.0031  0.0000  0.0000
[...]
   22. RY (14) N  1             0.00000     0.81466
   23. RY (15) N  1             0.00000     3.74323
   24. RY (16) N  1             0.00000     1.03824
   25. RY (17) N  1             0.00000     3.83993
   26. RY (18) N  1             0.00000     1.04434
   27. RY (19) N  1             0.00000     3.86458
   28. RY (20) N  1             0.00000     3.93328
   29. RY (21) N  1             0.00000     3.92526
   30. RY (22) N  1             0.00000     3.56311
   31. RY (23) N  1             0.00000     3.66624
   32. RY (24) N  1             0.00000     3.52661
   33. RY (25) N  1             0.00000     3.93895
   34. RY (26) N  1             0.00000     3.58289
   35. RY ( 1) H  2             0.00074     0.86019
   36. RY ( 2) H  2             0.00021     1.70675
   37. RY ( 3) H  2             0.00010     1.55313
   38. RY ( 4) H  2             0.00000     1.29283
   39. RY ( 5) H  2             0.00000     1.77246
   40. RY ( 1) H  3             0.00074     0.86040
   41. RY ( 2) H  3             0.00021     1.70658
   42. RY ( 3) H  3             0.00010     1.55315
   43. RY ( 4) H  3             0.00000     1.77249
   44. RY ( 5) H  3             0.00000     1.29281
   45. RY ( 1) H  4             0.00074     0.86035
   46. RY ( 2) H  4             0.00021     1.70661
   47. RY ( 3) H  4             0.00010     1.55314
   48. RY ( 4) H  4             0.00000     1.29281
   49. RY ( 5) H  4             0.00000     1.77253
          -------------------------------
                 Total Lewis    9.99675  ( 99.9675%)
           Valence non-Lewis    0.00008  (  0.0008%)
           Rydberg non-Lewis    0.00317  (  0.0317%)
          -------------------------------
               Total unit  1   10.00000  (100.0000%)
              Charge unit  1    0.00000

 $CHOOSE
   LONE 1 1 END
   BOND S 1 2 S 1 3 S 1 4 END
 $END

 NBO analysis completed in 0.06 CPU seconds (0 wall seconds)
 Maximum scratch memory used by NBO was 424789 words (3.24 MB)
Stopping NBO...Storing NBOs: NH3.nbo

                                *** returned from  NBO  program ***

-------
TIMINGS
-------

Total SCF time: 0 days 0 hours 0 min 1 sec 

Total time                  ....       1.906 sec
Sum of individual times     ....       1.719 sec  ( 90.2%)

Fock matrix formation       ....       0.924 sec  ( 48.5%)
  Split-RI-J                ....       0.695 sec  ( 75.2% of F)
  XC integration            ....       0.197 sec  ( 21.3% of F)
    Basis function eval.    ....       0.015 sec  (  7.7% of XC)
    Density eval.           ....       0.012 sec  (  6.2% of XC)
    XC-Functional eval.     ....       0.008 sec  (  4.0% of XC)
    XC-Potential eval.      ....       0.011 sec  (  5.8% of XC)
Diagonalization             ....       0.001 sec  (  0.0%)
Density matrix formation    ....       0.007 sec  (  0.4%)
Population analysis         ....       0.195 sec  ( 10.3%)
Initial guess               ....       0.010 sec  (  0.5%)
Orbital Transformation      ....       0.000 sec  (  0.0%)
Orbital Orthonormalization  ....       0.002 sec  (  0.1%)
DIIS solution               ....       0.000 sec  (  0.0%)
SOSCF solution              ....       0.005 sec  (  0.3%)
Grid generation             ....       0.577 sec  ( 30.3%)


-------------------------------------------------------------------------------
                          DFT DISPERSION CORRECTION                            
                                                                               
                                 DFTD4 V2.0                                    
-------------------------------------------------------------------------------
The revPBE functional is recognized
Active option DFTDOPT                   ...         5   

-------------------------   ----------------
Dispersion correction           -0.002019136
-------------------------   ----------------

------------------   -----------------
gCP correction             0.002514903
------------------   -----------------

-------------------------   --------------------
FINAL SINGLE POINT ENERGY       -56.564796799369
-------------------------   --------------------

                                *** OPTIMIZATION RUN DONE ***

                            ***************************************
                            *     ORCA property calculations      *
                            ***************************************

                                    ---------------------
                                    Active property flags
                                    ---------------------
   (+) Dipole Moment


------------------------------------------------------------------------------
                       ORCA ELECTRIC PROPERTIES CALCULATION
------------------------------------------------------------------------------

Dipole Moment Calculation                       ... on
Quadrupole Moment Calculation                   ... off
Polarizability Calculation                      ... off
GBWName                                         ... NH3.gbw
Electron density file                           ... NH3.scfp
The origin for moment calculation is the CENTER OF MASS  = (-4.583019, -5.331778 -0.023368)

-------------
DIPOLE MOMENT
-------------
                                X             Y             Z
Electronic contribution:     -0.08408       0.21121       0.10926
Nuclear contribution   :      0.30510      -0.76647      -0.39649
                        -----------------------------------------
Total Dipole Moment    :      0.22101      -0.55526      -0.28723
                        -----------------------------------------
Magnitude (a.u.)       :      0.66307
Magnitude (Debye)      :      1.68539



--------------------
Rotational spectrum 
--------------------
 
Rotational constants in cm-1:     9.691099     9.691050     6.242103 
Rotational constants in MHz : 290531.847536 290530.371030 187133.535006 

 Dipole components along the rotational axes: 
x,y,z [a.u.] :     0.000005    -0.000011    -0.663071 
x,y,z [Debye]:     0.000011    -0.000028    -1.685393 

 


           ************************************************************
           *        Program running with 12 parallel MPI-processes    *
           *              working on a common directory               *
           ************************************************************

-------------------------------------------------------------------------------
                               ORCA SCF HESSIAN
-------------------------------------------------------------------------------

Hessian of the Kohn-Sham DFT energy:
Kohn-Sham wavefunction type                      ... RKS
Hartree-Fock exchange scaling                    ...    0.000
Number of operators                              ...    1
Number of atoms                                  ...    4
Basis set dimensions                             ...   49
Integral neglect threshold                       ... 2.5e-11
Integral primitive cutoff                        ... 2.5e-12

Setting up DFT Hessian calculations              ... 
Electron density on the grid                     ... found on disk
Electron density on the final grid               ... found on disk
Building xc-kernel on the grid                   ... done   (      0.0 sec)
Building xc-kernel on the final grid             ... done   (      0.0 sec)
                                                     done   (      0.1 sec)

Nuclear repulsion Hessian                        ... done   (      0.0 sec)

----------------------------------------------
Forming right-hand sides of CP-SCF equations     ...
----------------------------------------------
One electron integral derivatives                ... done   (      0.2 sec)
Transforming the overlap derivative matrices     ... done   (      0.0 sec)
Making the Q(x) pseudodensities                  ... done   (      0.0 sec)
Adding the E*S(x)*S(y) terms to the Hessian      ... done   (      0.0 sec)
Calculating energy weighted overlap derivatives  ... done   (      0.0 sec)
Two electron integral derivatives (RI)           ... done   (      0.3 sec)
Exchange-correlation integral derivatives        ... done   (      0.3 sec)
tr(F(y)Q(x)) contribution to the Hessian         ... done   (      0.0 sec)
Response fock operator R(S(x)) (RI)              ... done   (      0.2 sec)
XC Response fock operator R(S(x))                ... done   (      0.1 sec)
tr(F(y)S(x)) contribution to the Hessian         ... done   (      0.0 sec)
Transforming and finalizing RHSs                 ... done   (      0.0 sec)

----------------------------------------------
Solving the CP-SCF equations (RI)                ...
----------------------------------------------
     CP-SCF ITERATION   0: 
     CP-SCF ITERATION   1:      0.000403915116
     CP-SCF ITERATION   2:      0.000021175516
     CP-SCF ITERATION   3:      0.000000107829
     CP-SCF ITERATION   4:      0.000000002978

                                                 ... done   (      1.5 sec)
Forming perturbed density Hessian contributions  ... done   (      0.0 sec)
Making the perturbed densities                   ... done   (      0.0 sec)
2nd integral derivative contribs (RI)            ... done   (      0.5 sec)
Exchange-correlation Hessian                     ... done   (      0.6 sec)
Dispersion correction in the Hessian             ... 

------------------- 
Dispersion Gradient 
------------------- 
   1  :    0.000119363   -0.000299862   -0.000155113
   2  :   -0.000201273    0.000050551    0.000026149
   3  :    0.000040632    0.000193120   -0.000065352
   4  :    0.000040633    0.000058247    0.000195379

  |G| =    0.001445675



------------------- 
Dispersion Gradient 
------------------- 
   1  :    0.000119587   -0.000300429   -0.000155407
   2  :   -0.000199198    0.000050320    0.000026030
   3  :    0.000039318    0.000193787   -0.000065736
   4  :    0.000039319    0.000058318    0.000196146

  |G| =    0.001443595

done   (      0.1 sec)
gCP correction in the Hessian                    ... done   (      0.1 sec)
Dipol derivatives                                ... done   (      0.2 sec)

Total SCF Hessian time: 0 days 0 hours 0 min 4 sec 

Writing the Hessian file to the disk             ... done


Maximum memory used throughout the entire calculation: 181.4 MB

-----------------------
VIBRATIONAL FREQUENCIES
-----------------------

Scaling factor for frequencies =  1.000000000  (already applied!)

   0:         0.00 cm**-1
   1:         0.00 cm**-1
   2:         0.00 cm**-1
   3:         0.00 cm**-1
   4:         0.00 cm**-1
   5:         0.00 cm**-1
   6:      1040.67 cm**-1
   7:      1633.24 cm**-1
   8:      1633.25 cm**-1
   9:      3359.35 cm**-1
  10:      3479.61 cm**-1
  11:      3479.63 cm**-1


------------
NORMAL MODES
------------

These modes are the Cartesian displacements weighted by the diagonal matrix
M(i,i)=1/sqrt(m[i]) where m[i] is the mass of the displaced atom
Thus, these vectors are normalized but *not* orthogonal

                  0          1          2          3          4          5    
      0       0.000000   0.000000   0.000000   0.000000   0.000000   0.000000
      1       0.000000   0.000000   0.000000   0.000000   0.000000   0.000000
      2       0.000000   0.000000   0.000000   0.000000   0.000000   0.000000
      3       0.000000   0.000000   0.000000   0.000000   0.000000   0.000000
      4       0.000000   0.000000   0.000000   0.000000   0.000000   0.000000
      5       0.000000   0.000000   0.000000   0.000000   0.000000   0.000000
      6       0.000000   0.000000   0.000000   0.000000   0.000000   0.000000
      7       0.000000   0.000000   0.000000   0.000000   0.000000   0.000000
      8       0.000000   0.000000   0.000000   0.000000   0.000000   0.000000
      9       0.000000   0.000000   0.000000   0.000000   0.000000   0.000000
     10       0.000000   0.000000   0.000000   0.000000   0.000000   0.000000
     11       0.000000   0.000000   0.000000   0.000000   0.000000   0.000000
                  6          7          8          9         10         11    
      0      -0.038499  -0.051973   0.035290   0.012560  -0.031293  -0.067156
      1       0.096724  -0.033515  -0.014248  -0.031560   0.022903  -0.036338
      2       0.050035   0.024803   0.054693  -0.016332  -0.068348   0.018571
      3      -0.016372  -0.039634   0.026909  -0.576600   0.343327   0.736710
      4      -0.509153  -0.017839   0.433869  -0.016615  -0.002481  -0.033979
      5      -0.263383  -0.489523  -0.482939  -0.008596  -0.028163  -0.005054
      6       0.275673   0.132264  -0.624868   0.201016  -0.163387   0.195688
      7      -0.335271   0.133715   0.042215   0.446370  -0.383342   0.545848
      8      -0.374816   0.380169  -0.302590  -0.305233   0.211636  -0.328498
      9       0.275679   0.629583   0.107580   0.201053   0.254902   0.000786
     10      -0.499637   0.349848  -0.278096   0.008800   0.067563  -0.006923
     11      -0.057076  -0.235304   0.025519   0.540778   0.766274   0.075496


-----------
IR SPECTRUM
-----------

 Mode    freq (cm**-1)   T**2         TX         TY         TZ
-------------------------------------------------------------------
   6:      1040.67  143.540532  (  3.992974 -10.033326  -5.189322)
   7:      1633.24   17.818297  (  3.292239   2.123329  -1.571920)
   8:      1633.25   17.819045  ( -2.235391   0.902321  -3.465240)
   9:      3359.35    3.295350  (  0.605274  -1.520107  -0.786300)
  10:      3479.61    0.011974  (  0.043537  -0.032173   0.095097)
  11:      3479.63    0.011950  (  0.093423   0.050512  -0.025901)

The first frequency considered to be a vibration is 6
The total number of vibrations considered is 6


--------------------------
THERMOCHEMISTRY AT 298.15K
--------------------------

Temperature         ... 298.15 K
Pressure            ... 1.00 atm
Total Mass          ... 17.03 AMU

Throughout the following assumptions are being made:
  (1) The electronic state is orbitally nondegenerate
  (2) There are no thermally accessible electronically excited states
  (3) Hindered rotations indicated by low frequency modes are not
      treated as such but are treated as vibrations and this may
      cause some error
  (4) All equations used are the standard statistical mechanics
      equations for an ideal gas
  (5) All vibrations are strictly harmonic

freq.    1040.67  E(vib)   ...       0.02 
freq.    1633.24  E(vib)   ...       0.00 
freq.    1633.25  E(vib)   ...       0.00 
freq.    3359.35  E(vib)   ...       0.00 
freq.    3479.61  E(vib)   ...       0.00 
freq.    3479.63  E(vib)   ...       0.00 

------------
INNER ENERGY
------------

The inner energy is: U= E(el) + E(ZPE) + E(vib) + E(rot) + E(trans)
    E(el)   - is the total energy from the electronic structure calculation
              = E(kin-el) + E(nuc-el) + E(el-el) + E(nuc-nuc)
    E(ZPE)  - the the zero temperature vibrational energy from the frequency calculation
    E(vib)  - the the finite temperature correction to E(ZPE) due to population
              of excited vibrational states
    E(rot)  - is the rotational thermal energy
    E(trans)- is the translational thermal energy

Summary of contributions to the inner energy U:
Electronic energy                ...    -56.56479680 Eh
Zero point energy                ...      0.03331990 Eh      20.91 kcal/mol
Thermal vibrational correction   ...      0.00003709 Eh       0.02 kcal/mol
Thermal rotational correction    ...      0.00141627 Eh       0.89 kcal/mol
Thermal translational correction ...      0.00141627 Eh       0.89 kcal/mol
-----------------------------------------------------------------------
Total thermal energy                    -56.52860726 Eh


Summary of corrections to the electronic energy:
(perhaps to be used in another calculation)
Total thermal correction                  0.00286964 Eh       1.80 kcal/mol
Non-thermal (ZPE) correction              0.03331990 Eh      20.91 kcal/mol
-----------------------------------------------------------------------
Total correction                          0.03618954 Eh      22.71 kcal/mol


--------
ENTHALPY
--------

The enthalpy is H = U + kB*T
                kB is Boltzmann's constant
Total free energy                 ...    -56.52860726 Eh 
Thermal Enthalpy correction       ...      0.00094421 Eh       0.59 kcal/mol
-----------------------------------------------------------------------
Total Enthalpy                    ...    -56.52766305 Eh


Note: Only C1 symmetry has been detected, increase convergence thresholds 
      if your molecule has a higher symmetry. Symmetry factor of 1.0 is   
      used for the rotational entropy correction. 
 

Note: Rotational entropy computed according to Herzberg 
Infrared and Raman Spectra, Chapter V,1, Van Nostrand Reinhold, 1945 
Point Group:  C1, Symmetry Number:   1  
Rotational constants in cm-1:     9.691099     9.691050     6.242103 

Vibrational entropy computed according to the QRRHO of S. Grimme
Chem.Eur.J. 2012 18 9955


-------
ENTROPY
-------

The entropy contributions are T*S = T*(S(el)+S(vib)+S(rot)+S(trans))
     S(el)   - electronic entropy
     S(vib)  - vibrational entropy
     S(rot)  - rotational entropy
     S(trans)- translational entropy
The entropies will be listed as mutliplied by the temperature to get
units of energy

Electronic entropy                ...      0.00000000 Eh      0.00 kcal/mol
Vibrational entropy               ...      0.00004407 Eh      0.03 kcal/mol
Rotational entropy                ...      0.00650183 Eh      4.08 kcal/mol
Translational entropy             ...      0.01636425 Eh     10.27 kcal/mol
-----------------------------------------------------------------------
Final entropy term                ...      0.02291016 Eh     14.38 kcal/mol

In case the symmetry of your molecule has not been determined correctly
or in case you have a reason to use a different symmetry number we print 
out the resulting rotational entropy values for sn=1,12 :
 --------------------------------------------------------
|  sn= 1 | S(rot)=       0.00650183 Eh      4.08 kcal/mol|
|  sn= 2 | S(rot)=       0.00584738 Eh      3.67 kcal/mol|
|  sn= 3 | S(rot)=       0.00546455 Eh      3.43 kcal/mol|
|  sn= 4 | S(rot)=       0.00519292 Eh      3.26 kcal/mol|
|  sn= 5 | S(rot)=       0.00498223 Eh      3.13 kcal/mol|
|  sn= 6 | S(rot)=       0.00481009 Eh      3.02 kcal/mol|
|  sn= 7 | S(rot)=       0.00466454 Eh      2.93 kcal/mol|
|  sn= 8 | S(rot)=       0.00453846 Eh      2.85 kcal/mol|
|  sn= 9 | S(rot)=       0.00442726 Eh      2.78 kcal/mol|
|  sn=10 | S(rot)=       0.00432778 Eh      2.72 kcal/mol|
|  sn=11 | S(rot)=       0.00423779 Eh      2.66 kcal/mol|
|  sn=12 | S(rot)=       0.00415563 Eh      2.61 kcal/mol|
 --------------------------------------------------------


-------------------
GIBBS FREE ENERGY
-------------------

The Gibbs free energy is G = H - T*S

Total enthalpy                    ...    -56.52766305 Eh 
Total entropy correction          ...     -0.02291016 Eh    -14.38 kcal/mol
-----------------------------------------------------------------------
Final Gibbs free energy         ...    -56.55057320 Eh

For completeness - the Gibbs free energy minus the electronic energy
G-E(el)                           ...      0.01422359 Eh      8.93 kcal/mol


Timings for individual modules:

Sum of individual times         ...       31.966 sec (=   0.533 min)
GTO integral calculation        ...        3.825 sec (=   0.064 min)  12.0 %
SCF iterations                  ...       17.337 sec (=   0.289 min)  54.2 %
SCF Gradient evaluation         ...        4.772 sec (=   0.080 min)  14.9 %
Geometry relaxation             ...        0.099 sec (=   0.002 min)   0.3 %
Analytical frequency calculation...        5.934 sec (=   0.099 min)  18.6 %
                             ****ORCA TERMINATED NORMALLY****
TOTAL RUN TIME: 0 days 0 hours 0 minutes 32 seconds 826 msec
