
                                 *****************
                                 * O   R   C   A *
                                 *****************

           --- An Ab Initio, DFT and Semiempirical electronic structure package ---

                  #######################################################
                  #                        -***-                        #
                  #          Department of theory and spectroscopy      #
                  #               Directorship: Frank Neese             #
                  #        Max Planck Institute fuer Kohlenforschung    #
                  #                Kaiser Wilhelm Platz 1               #
                  #                 D-45470 Muelheim/Ruhr               #
                  #                      Germany                        #
                  #                                                     #
                  #                  All rights reserved                #
                  #                        -***-                        #
                  #######################################################


                         Program Version 4.2.1 -  RELEASE  -


 With contributions from (in alphabetic order):
   Daniel Aravena         : Magnetic Suceptibility
   Michael Atanasov       : Ab Initio Ligand Field Theory (pilot matlab implementation)
   Alexander A. Auer      : GIAO ZORA, VPT2
   Ute Becker             : Parallelization
   Giovanni Bistoni       : ED, misc. LED, open-shell LED, HFLD
   Martin Brehm           : Molecular dynamics
   Dmytro Bykov           : SCF Hessian
   Vijay G. Chilkuri      : MRCI spin determinant printing, contributions to CSF-ICE
   Dipayan Datta          : RHF DLPNO-CCSD density
   Achintya Kumar Dutta   : EOM-CC, STEOM-CC
   Dmitry Ganyushin       : Spin-Orbit,Spin-Spin,Magnetic field MRCI
   Miquel Garcia          : C-PCM Hessian, Gaussian charge scheme
   Yang Guo               : DLPNO-NEVPT2, CIM, IAO-localization
   Andreas Hansen         : Spin unrestricted coupled pair/coupled cluster methods
   Benjamin Helmich-Paris : CASSCF linear response (MC-RPA)
   Lee Huntington         : MR-EOM, pCC
   Robert Izsak           : Overlap fitted RIJCOSX, COSX-SCS-MP3, EOM
   Christian Kollmar      : KDIIS, OOCD, Brueckner-CCSD(T), CCSD density
   Simone Kossmann        : Meta GGA functionals, TD-DFT gradient, OOMP2, MP2 Hessian
   Martin Krupicka        : AUTO-CI
   Lucas Lang             : DCDCAS
   Dagmar Lenk            : GEPOL surface, SMD
   Dimitrios Liakos       : Extrapolation schemes; Compound Job, initial MDCI parallelization
   Dimitrios Manganas     : Further ROCIS development; embedding schemes
   Dimitrios Pantazis     : SARC Basis sets
   Taras Petrenko         : DFT Hessian,TD-DFT gradient, ASA, ECA, R-Raman, ABS, FL, XAS/XES, NRVS
   Peter Pinski           : DLPNO-MP2, DLPNO-MP2 Gradient
   Christoph Reimann      : Effective Core Potentials
   Marius Retegan         : Local ZFS, SOC
   Christoph Riplinger    : Optimizer, TS searches, QM/MM, DLPNO-CCSD(T), (RO)-DLPNO pert. Triples
   Tobias Risthaus        : Range-separated hybrids, TD-DFT gradient, RPA, STAB
   Michael Roemelt        : Original ROCIS implementation
   Masaaki Saitow         : Open-shell DLPNO-CCSD energy and density
   Barbara Sandhoefer     : DKH picture change effects
   Avijit Sen             : IP-ROCIS
   Kantharuban Sivalingam : CASSCF convergence, NEVPT2, FIC-MRCI
   Bernardo de Souza      : ESD, SOC TD-DFT
   Georgi Stoychev        : AutoAux, RI-MP2 NMR
   Willem Van den Heuvel  : Paramagnetic NMR
   Boris Wezisla          : Elementary symmetry handling
   Frank Wennmohs         : Technical directorship


 We gratefully acknowledge several colleagues who have allowed us to
 interface, adapt or use parts of their codes:
   Stefan Grimme, W. Hujo, H. Kruse,             : VdW corrections, initial TS optimization,
                  C. Bannwarth                     DFT functionals, gCP, sTDA/sTD-DF
   Ed Valeev, F. Pavosevic, A. Kumar             : LibInt (2-el integral package), F12 methods
   Garnet Chan, S. Sharma, J. Yang, R. Olivares  : DMRG
   Ulf Ekstrom                                   : XCFun DFT Library
   Mihaly Kallay                                 : mrcc  (arbitrary order and MRCC methods)
   Andreas Klamt, Michael Diedenhofen            : otool_cosmo (COSMO solvation model)
   Jiri Pittner, Ondrej Demel                    : Mk-CCSD
   Frank Weinhold                                : gennbo (NPA and NBO analysis)
   Christopher J. Cramer and Donald G. Truhlar   : smd solvation model
   Lars Goerigk                                  : TD-DFT with DH, B97 family of functionals
   V. Asgeirsson, H. Jonsson                     : NEB implementation
   FAccTs GmbH                                   : IRC, NEB, NEB-TS, Multilevel, MM, QM/MM, CI optimization
   S Lehtola, MJT Oliveira, MAL Marques          : LibXC Library


 Your calculation uses the libint2 library for the computation of 2-el integrals
 For citations please refer to: http://libint.valeyev.net

 Your ORCA version has been built with support for libXC version: 4.2.3
 For citations please refer to: https://tddft.org/programs/libxc/

 This ORCA versions uses:
   CBLAS   interface :  Fast vector & matrix operations
   LAPACKE interface :  Fast linear algebra routines
   SCALAPACK package :  Parallel linear algebra routines




***************************************
The coordinates will be read from file: init.xyz
***************************************


Your calculation utilizes the geometrical counterpoise correction gCP
Please cite in your paper:
H.Kruse, S. Grimme J.Chem.Phys., 136, (2012), 154101 
   

Your calculation utilizes the atom-pairwise dispersion correction
based on tight binding partial charges (D4)
Cite in your paper:
E.Caldeweyher, C.Bannwarth, S.Grimme, J.Chem.Phys., (2017), 147, 034112.
E.Caldeweyher, S.Ehlert, A.Hansen, H.Neugebauer, S.Grimme, J.Chem.Phys., (2018), in progress.
   

----- Orbital basis set information -----
Your calculation utilizes the basis: def2-TZVP
   F. Weigend and R. Ahlrichs, Phys. Chem. Chem. Phys. 7, 3297 (2005).

----- AuxJ basis set information -----
Your calculation utilizes the auxiliary basis: def2/J
   F. Weigend, Phys. Chem. Chem. Phys. 8, 1057 (2006).

================================================================================
                                        WARNINGS
                       Please study these warnings very carefully!
================================================================================


WARNING: The environment variable RSH_COMMAND is not set!
  ===> : All Displacements for the Numerical Hessian calculation
         will be started on localhost

WARNING: Geometry Optimization
  ===> : Switching off AutoStart
         For restart on a previous wavefunction, please use MOREAD

INFO   : the flag for use of LIBINT has been found!

================================================================================
                                       INPUT FILE
================================================================================
NAME = NH3‡.inp
|  1> ! revPBE D4 gCP(DFT/TZ) def2-TZVP OptTS Freq IRC TightOpt TightSCF Grid4 FinalGrid5 PrintBasis PrintMOs NBO
|  2> 
|  3> %geom
|  4>  ts_mode
|  5>   {D 1 2 3 0}
|  6>  end
|  7>  ts_active_atoms
|  8>   {0 1 2 3}
|  9>  end
| 10>  calc_hess true
| 11>  numhess true
| 12> end
| 13> 
| 14> %irc
| 15>  maxiter 1000
| 16>  de_init_displ 0.25
| 17>  TolMAXG 1e-3
| 18>  TolRMSG 2e-4
| 19> end
| 20> 
| 21> %pal
| 22>  nprocs 12
| 23> end
| 24> 
| 25> *xyzfile 0 1 init.xyz
| 26> 
| 27>                          ****END OF INPUT****
================================================================================

                       *****************************
                       * Geometry Optimization Run *
                       *****************************

Geometry optimization settings:
Update method            Update   .... Bofill
Choice of coordinates    CoordSys .... Z-matrix Internals
Initial Hessian          InHess   .... Almoef's Model

Convergence Tolerances:
Energy Change            TolE     ....  1.0000e-06 Eh
Max. Gradient            TolMAXG  ....  1.0000e-04 Eh/bohr
RMS Gradient             TolRMSG  ....  3.0000e-05 Eh/bohr
Max. Displacement        TolMAXD  ....  1.0000e-03 bohr
RMS Displacement         TolRMSD  ....  6.0000e-04 bohr
Strict Convergence                ....  False
------------------------------------------------------------------------------
                        ORCA OPTIMIZATION COORDINATE SETUP
------------------------------------------------------------------------------

The optimization will be done in new redundant internal coordinates
Making redundant internal coordinates   ...  (new redundants) done
Following TS mode number                ...    internal coordinate number:  7
TS-active-atoms for coordinate setup... 0 1 2 3 
Evaluating the initial hessian          ...  (Is done on the fly) done
Evaluating the coordinates              ...  done
Calculating the B-matrix                .... done
Calculating the G-matrix                .... done
Diagonalizing the G-matrix              .... done
The first mode is                       ....    2
The number of degrees of freedom        ....    6

    -----------------------------------------------------------------
                    Redundant Internal Coordinates


    -----------------------------------------------------------------
         Definition                    Initial Value    d2E/dq (diagonal element)
    -----------------------------------------------------------------
      1. B(H   1,N   0)                  0.9927         0.000000   
      2. B(H   2,N   0)                  0.9927         0.000000   
      3. B(H   3,N   0)                  0.9927         0.000000   
      4. A(H   1,N   0,H   3)          120.0000         0.000000   
      5. A(H   2,N   0,H   3)          120.0000         0.000000   
      6. A(H   1,N   0,H   2)          120.0000         0.000000   
      7. D(N   0,H   3,H   2,H   1)      0.0000         0.000000   
      8. I(H   1,H   3,H   2,N   0)      0.0000         0.000000   
    -----------------------------------------------------------------

Number of atoms                         .... 4
Number of degrees of freedom            .... 8

         *************************************************************
         *                GEOMETRY OPTIMIZATION CYCLE   1            *
         *************************************************************
---------------------------------
CARTESIAN COORDINATES (ANGSTROEM)
---------------------------------
  N     -0.000000    0.000000    0.000000
  H      0.992735   -0.000000   -0.000000
  H     -0.496367    0.859734   -0.000000
  H     -0.496367   -0.859734   -0.000000

----------------------------
CARTESIAN COORDINATES (A.U.)
----------------------------
  NO LB      ZA    FRAG     MASS         X           Y           Z
   0 N     7.0000    0    14.007   -0.000000    0.000000    0.000000
   1 H     1.0000    0     1.008    1.875997   -0.000000   -0.000000
   2 H     1.0000    0     1.008   -0.937998    1.624661   -0.000000
   3 H     1.0000    0     1.008   -0.937998   -1.624661   -0.000000

--------------------------------
INTERNAL COORDINATES (ANGSTROEM)
--------------------------------
 N      0   0   0     0.000000000000     0.00000000     0.00000000
 H      1   0   0     0.992734751715     0.00000000     0.00000000
 H      1   2   0     0.992734751503   119.99999998     0.00000000
 H      1   2   3     0.992734751503   119.99999998   180.00000000

---------------------------
INTERNAL COORDINATES (A.U.)
---------------------------
 N      0   0   0     0.000000000000     0.00000000     0.00000000
 H      1   0   0     1.875996804367     0.00000000     0.00000000
 H      1   2   0     1.875996803966   119.99999998     0.00000000
 H      1   2   3     1.875996803966   119.99999998   180.00000000

---------------------
BASIS SET INFORMATION
---------------------
There are 2 groups of distinct atoms

 Group   1 Type N   : 11s6p2d1f contracted to 5s3p2d1f pattern {62111/411/11/1}
 Group   2 Type H   : 5s1p contracted to 3s1p pattern {311/1}

Atom   0N    basis set group =>   1
Atom   1H    basis set group =>   2
Atom   2H    basis set group =>   2
Atom   3H    basis set group =>   2

-------------------------
BASIS SET IN INPUT FORMAT
-------------------------

 # Basis set for element : H 
 NewGTO H 
 S 3 
   1      34.0613410000      0.0254393072
   2       5.1235746000      0.1900859489
   3       1.1646626000      0.8524411301
 S 1 
   1       0.3272304100      1.0000000000
 S 1 
   1       0.1030724100      1.0000000000
 P 1 
   1       0.8000000000      1.0000000000
  end;

 # Basis set for element : N 
 NewGTO N 
 S 6 
   1   19730.8006470000      0.0005862639
   2    2957.8958745000      0.0045428821
   3     673.2213359500      0.0235584136
   4     190.6824949400      0.0947091933
   5      62.2954418980      0.2971978492
   6      22.6541611820      0.6691624689
 S 2 
   1       8.9791477428      0.6459668363
   2       3.6863002370      0.3870057440
 S 1 
   1       0.8466007680      1.0000000000
 S 1 
   1       0.3364713377      1.0000000000
 S 1 
   1       0.1364765367      1.0000000000
 P 4 
   1      49.2003805100      0.0114488252
   2      11.3467905370      0.0784223379
   3       3.4273972411      0.3081809474
   4       1.1785525134      0.7202719637
 P 1 
   1       0.4164220497      1.0000000000
 P 1 
   1       0.1426082601      1.0000000000
 D 1 
   1       1.6540000000      1.0000000000
 D 1 
   1       0.4690000000      1.0000000000
 F 1 
   1       1.0930000000      1.0000000000
  end;

---------------------------------
AUXILIARY/J BASIS SET INFORMATION
---------------------------------
There are 2 groups of distinct atoms

 Group   1 Type N   : 12s5p4d2f1g contracted to 6s4p3d1f1g pattern {711111/2111/211/2/1}
 Group   2 Type H   : 5s2p1d contracted to 3s1p1d pattern {311/2/1}

Atom   0N    basis set group =>   1
Atom   1H    basis set group =>   2
Atom   2H    basis set group =>   2
Atom   3H    basis set group =>   2

-------------------------------------
AUXILIARY/J BASIS SET IN INPUT FORMAT
-------------------------------------

 # Auxiliary/J basis set for element : H 
 NewAuxJGTO H 
 S 3 
   1      15.6752927000      0.1007184237
   2       3.6063578000      0.3404257499
   3       1.2080016000      0.6491996172
 S 1 
   1       0.4726794000      1.0000000000
 S 1 
   1       0.2018100000      1.0000000000
 P 2 
   1       2.0281365000      0.5596620919
   2       0.5358730000      0.5596620919
 D 1 
   1       2.2165124000      1.0000000000
  end;

 # Auxiliary/J basis set for element : N 
 NewAuxJGTO N 
 S 7 
   1    2542.9401785000      0.0128431329
   2    1029.5472946000      0.0206655120
   3     424.9053546000      0.0652200677
   4     178.4573708000      0.1617388940
   5      76.1362742000      0.3094256941
   6      32.9338653000      0.3918849307
   7      14.4155436000      0.1822470660
 S 1 
   1       6.3718891000     -1.0000000000
 S 1 
   1       2.8381742000      1.0000000000
 S 1 
   1       1.2711793000      1.0000000000
 S 1 
   1       0.5712407000      1.0000000000
 S 1 
   1       0.2569887000      1.0000000000
 P 2 
   1      17.8975990000     -1.0974070137
   2       6.5346319000      0.1380055963
 P 1 
   1       2.3523645000      1.0000000000
 P 1 
   1       0.8397377000      1.0000000000
 P 1 
   1       0.2989335000      1.0000000000
 D 2 
   1       7.6909870000      0.1770780943
   2       2.3044972000      0.8918319220
 D 1 
   1       0.8403987000      1.0000000000
 D 1 
   1       0.3303797000      1.0000000000
 F 2 
   1       2.3331076000      0.6223178877
   2       0.8446137000      0.5036714203
 G 1 
   1       1.4037700000     -1.0000000000
  end;



           ************************************************************
           *        Program running with 12 parallel MPI-processes    *
           *              working on a common directory               *
           ************************************************************
------------------------------------------------------------------------------
                           ORCA GTO INTEGRAL CALCULATION
                           -- RI-GTO INTEGRALS CHOSEN --
------------------------------------------------------------------------------

                         BASIS SET STATISTICS AND STARTUP INFO

Gaussian basis set:
 # of primitive gaussian shells          ...   38
 # of primitive gaussian functions       ...   70
 # of contracted shells                  ...   23
 # of contracted basis functions         ...   49
 Highest angular momentum                ...    3
 Maximum contraction depth               ...    6
Auxiliary gaussian basis set:
 # of primitive gaussian shells          ...   48
 # of primitive gaussian functions       ...  118
 # of contracted shells                  ...   30
 # of contracted aux-basis functions     ...   82
 Highest angular momentum                ...    4
 Maximum contraction depth               ...    7
Ratio of auxiliary to basis functions    ...  1.67
Integral package used                  ... LIBINT
 One Electron integrals                  ... done
 Ordering auxiliary basis shells         ... done
 Integral threshhold             Thresh  ...  2.500e-11
 Primitive cut-off               TCut    ...  2.500e-12
 Pre-screening matrix                    ... done
 Shell pair data                         ... 
 Ordering of the shell pairs             ... done (   0.001 sec) 276 of 276 pairs
 Determination of significant pairs      ... done (   0.000 sec)
 Creation of shell pair data             ... done (   0.001 sec)
 Storage of shell pair data              ... done (   0.011 sec)
 Shell pair data done in (   0.017 sec)
 Computing two index integrals           ... done
 Cholesky decomposition of the V-matrix  ... done


Timings:
 Total evaluation time                   ...   0.218 sec (  0.004 min)
 One electron matrix time                ...   0.014 sec (  0.000 min) =  6.3%
 Schwartz matrix evaluation time         ...   0.145 sec (  0.002 min) = 66.5%
 Two index repulsion integral time       ...   0.003 sec (  0.000 min) =  1.3%
 Cholesky decomposition of V             ...   0.005 sec (  0.000 min) =  2.3%
 Three index repulsion integral time     ...   0.000 sec (  0.000 min) =  0.0%



           ************************************************************
           *        Program running with 12 parallel MPI-processes    *
           *              working on a common directory               *
           ************************************************************
-------------------------------------------------------------------------------
                                 ORCA SCF
-------------------------------------------------------------------------------

------------
SCF SETTINGS
------------
Hamiltonian:
 Density Functional     Method          .... DFT(GTOs)
 Exchange Functional    Exchange        .... PBE
   PBE kappa parameter   XKappa         ....  1.245000
   PBE mue parameter    XMuePBE         ....  0.219520
 Correlation Functional Correlation     .... PBE
   PBE beta parameter  CBetaPBE         ....  0.066725
 LDA part of GGA corr.  LDAOpt          .... PW91-LDA
 Gradients option       PostSCFGGA      .... off
   Density functional embedding theory  .... OFF
   NL short-range parameter             ....  3.700000
 RI-approximation to the Coulomb term is turned on
   Number of auxiliary basis functions  .... 82


General Settings:
 Integral files         IntName         .... NH3‡
 Hartree-Fock type      HFTyp           .... RHF
 Total Charge           Charge          ....    0
 Multiplicity           Mult            ....    1
 Number of Electrons    NEL             ....   10
 Basis Dimension        Dim             ....   49
 Nuclear Repulsion      ENuc            ....     12.1173185146 Eh

Convergence Acceleration:
 DIIS                   CNVDIIS         .... on
   Start iteration      DIISMaxIt       ....    12
   Startup error        DIISStart       ....  0.200000
   # of expansion vecs  DIISMaxEq       ....     5
   Bias factor          DIISBfac        ....   1.050
   Max. coefficient     DIISMaxC        ....  10.000
 Newton-Raphson         CNVNR           .... off
 SOSCF                  CNVSOSCF        .... on
   Start iteration      SOSCFMaxIt      ....   150
   Startup grad/error   SOSCFStart      ....  0.003300
 Level Shifting         CNVShift        .... on
   Level shift para.    LevelShift      ....    0.2500
   Turn off err/grad.   ShiftErr        ....    0.0010
 Zerner damping         CNVZerner       .... off
 Static damping         CNVDamp         .... on
   Fraction old density DampFac         ....    0.7000
   Max. Damping (<1)    DampMax         ....    0.9800
   Min. Damping (>=0)   DampMin         ....    0.0000
   Turn off err/grad.   DampErr         ....    0.1000
 Fernandez-Rico         CNVRico         .... off

SCF Procedure:
 Maximum # iterations   MaxIter         ....   125
 SCF integral mode      SCFMode         .... Direct
   Integral package                     .... LIBINT
 Reset frequency        DirectResetFreq ....    20
 Integral Threshold     Thresh          ....  2.500e-11 Eh
 Primitive CutOff       TCut            ....  2.500e-12 Eh

Convergence Tolerance:
 Convergence Check Mode ConvCheckMode   .... Total+1el-Energy
 Convergence forced     ConvForced      .... 0
 Energy Change          TolE            ....  1.000e-08 Eh
 1-El. energy change                    ....  1.000e-05 Eh
 Orbital Gradient       TolG            ....  1.000e-05
 Orbital Rotation angle TolX            ....  1.000e-05
 DIIS Error             TolErr          ....  5.000e-07


Diagonalization of the overlap matrix:
Smallest eigenvalue                        ... 4.732e-03
Time for diagonalization                   ...    0.005 sec
Threshold for overlap eigenvalues          ... 1.000e-08
Number of eigenvalues below threshold      ... 0
Time for construction of square roots      ...    0.005 sec
Total time needed                          ...    0.010 sec

-------------------
DFT GRID GENERATION
-------------------

General Integration Accuracy     IntAcc      ...  4.670
Radial Grid Type                 RadialGrid  ... Gauss-Chebyshev
Angular Grid (max. acc.)         AngularGrid ... Lebedev-302
Angular grid pruning method      GridPruning ... 3 (G Style)
Weight generation scheme         WeightScheme... Becke
Basis function cutoff            BFCut       ...    1.0000e-11
Integration weight cutoff        WCut        ...    1.0000e-14
Grids for H and He will be reduced by one unit

# of grid points (after initial pruning)     ...  16394 (   0.0 sec)
# of grid points (after weights+screening)   ...  16135 (   0.0 sec)
nearest neighbour list constructed           ...    0.0 sec
Grid point re-assignment to atoms done       ...    0.0 sec
Grid point division into batches done        ...    0.1 sec
Reduced shell lists constructed in    0.1 sec

Total number of grid points                  ...    16135
Total number of batches                      ...      254
Average number of points per batch           ...       63
Average number of grid points per atom       ...     4034
Average number of shells per batch           ...    21.48 (93.38%)
Average number of basis functions per batch  ...    46.35 (94.59%)
Average number of large shells per batch     ...    20.96 (97.57%)
Average number of large basis fcns per batch ...    45.83 (98.87%)
Maximum spatial batch extension              ...   2.66,  2.57, 15.64 au
Average spatial batch extension              ...   0.11,  0.12,  0.22 au

Time for grid setup =    0.164 sec

------------------------------
INITIAL GUESS: MODEL POTENTIAL
------------------------------
Loading Hartree-Fock densities                     ... done
Calculating cut-offs                               ... done
Setting up the integral package                    ... done
Initializing the effective Hamiltonian             ... done
Starting the Coulomb interaction                   ... done (   0.0 sec)
Reading the grid                                   ... done
Mapping shells                                     ... done
Starting the XC term evaluation                    ... done (   0.0 sec)
  promolecular density results
     # of electrons  =      9.998561099
     EX              =     -7.466629528
     EC              =     -0.305799867
     EX+EC           =     -7.772429394
Transforming the Hamiltonian                       ... done (   0.0 sec)
Diagonalizing the Hamiltonian                      ... done (   0.0 sec)
Back transforming the eigenvectors                 ... done (   0.0 sec)
Now organizing SCF variables                       ... done
                      ------------------
                      INITIAL GUESS DONE (   0.3 sec)
                      ------------------
--------------
SCF ITERATIONS
--------------
ITER       Energy         Delta-E        Max-DP      RMS-DP      [F,P]     Damp
               ***  Starting incremental Fock matrix formation  ***
  0    -56.4347075068   0.000000000000 0.10571365  0.00399298  0.3495859 0.7000
  1    -56.4985036081  -0.063796101362 0.06935290  0.00250339  0.1370553 0.7000
                               ***Turning on DIIS***
  2    -56.5161806200  -0.017677011850 0.06227104  0.00276464  0.0147439 0.0000
  3    -56.5486802712  -0.032499651185 0.04307051  0.00141448  0.0939635 0.0000
  4    -56.5558340948  -0.007153823623 0.01463863  0.00049621  0.0258898 0.0000
  5    -56.5563917112  -0.000557616465 0.00421297  0.00015425  0.0061103 0.0000
                      *** Initiating the SOSCF procedure ***
                           *** Shutting down DIIS ***
                      *** Re-Reading the Fockian *** 
                      *** Removing any level shift *** 
ITER      Energy       Delta-E        Grad      Rot      Max-DP    RMS-DP
  6    -56.55642366  -0.0000319514  0.000422  0.000422  0.001094  0.000045
               *** Restarting incremental Fock matrix formation ***
  7    -56.55642518  -0.0000015213  0.000134  0.000257  0.000503  0.000021
  8    -56.55642519  -0.0000000097  0.000121  0.000069  0.000109  0.000005
  9    -56.55642526  -0.0000000665  0.000023  0.000024  0.000058  0.000004
 10    -56.55642526  -0.0000000037  0.000004  0.000007  0.000016  0.000001
                 **** Energy Check signals convergence ****
              ***Rediagonalizing the Fockian in SOSCF/NRSCF***

               *****************************************************
               *                     SUCCESS                       *
               *           SCF CONVERGED AFTER  11 CYCLES          *
               *****************************************************

Setting up the final grid:

General Integration Accuracy     IntAcc      ...  5.010
Radial Grid Type                 RadialGrid  ... Gauss-Chebyshev
Angular Grid (max. acc.)         AngularGrid ... Lebedev-434
Angular grid pruning method      GridPruning ... 3 (G Style)
Weight generation scheme         WeightScheme... Becke
Basis function cutoff            BFCut       ...    1.0000e-11
Integration weight cutoff        WCut        ...    1.0000e-14
Grids for H and He will be reduced by one unit

# of grid points (after initial pruning)     ...  30666 (   0.0 sec)
# of grid points (after weights+screening)   ...  30107 (   0.0 sec)
nearest neighbour list constructed           ...    0.0 sec
Grid point re-assignment to atoms done       ...    0.0 sec
Grid point division into batches done        ...    0.2 sec
Reduced shell lists constructed in    0.2 sec

Total number of grid points                  ...    30107
Total number of batches                      ...      473
Average number of points per batch           ...       63
Average number of grid points per atom       ...     7527
Average number of shells per batch           ...    21.61 (93.96%)
Average number of basis functions per batch  ...    46.78 (95.47%)
Average number of large shells per batch     ...    21.17 (97.97%)
Average number of large basis fcns per batch ...    45.66 (97.60%)
Maximum spatial batch extension              ...   2.67,  2.74, 15.10 au
Average spatial batch extension              ...   0.09,  0.10,  0.15 au

Final grid set up in    0.4 sec
Final integration                            ... done (   0.0 sec)
Change in XC energy                          ...     0.000018445
Integrated number of electrons               ...    10.000001976
Previous integrated no of electrons          ...    10.000012121

----------------
TOTAL SCF ENERGY
----------------

Total Energy       :          -56.55640682 Eh           -1538.97807 eV

Components:
Nuclear Repulsion  :           12.11731851 Eh             329.72900 eV
Electronic Energy  :          -68.67372533 Eh           -1868.70707 eV
One Electron Energy:         -100.04414119 Eh           -2722.33948 eV
Two Electron Energy:           31.37041586 Eh             853.63241 eV

Virial components:
Potential Energy   :         -112.93028886 Eh           -3072.98939 eV
Kinetic Energy     :           56.37388204 Eh            1534.01132 eV
Virial Ratio       :            2.00323775


DFT components:
N(Alpha)           :        5.000000987762 electrons
N(Beta)            :        5.000000987762 electrons
N(Total)           :       10.000001975525 electrons
E(X)               :       -7.716347627090 Eh       
E(C)               :       -0.316309888263 Eh       
E(XC)              :       -8.032657515353 Eh       
DFET-embed. en.    :        0.000000000000 Eh       

---------------
SCF CONVERGENCE
---------------

  Last Energy change         ...    6.7670e-10  Tolerance :   1.0000e-08
  Last MAX-Density change    ...    4.6506e-07  Tolerance :   1.0000e-07
  Last RMS-Density change    ...    1.7372e-08  Tolerance :   5.0000e-09
  Last Orbital Gradient      ...    2.7833e-07  Tolerance :   1.0000e-05
  Last Orbital Rotation      ...    2.3901e-07  Tolerance :   1.0000e-05

             **** THE GBW FILE WAS UPDATED (NH3‡.gbw) ****
             **** DENSITY FILE WAS UPDATED (NH3‡.scfp) ****
             **** ENERGY FILE WAS UPDATED (NH3‡.en.tmp) ****
             **** THE GBW FILE WAS UPDATED (NH3‡.gbw) ****
             **** DENSITY FILE WAS UPDATED (NH3‡.scfp) ****
----------------
ORBITAL ENERGIES
----------------

  NO   OCC          E(Eh)            E(eV) 
   0   2.0000     -13.951396      -379.6368 
   1   2.0000      -0.758757       -20.6468 
   2   2.0000      -0.429105       -11.6765 
   3   2.0000      -0.429104       -11.6765 
   4   2.0000      -0.187795        -5.1102 
   5   0.0000       0.017259         0.4696 
   6   0.0000       0.095318         2.5937 
   7   0.0000       0.095330         2.5941 
   8   0.0000       0.285409         7.7664 
   9   0.0000       0.285410         7.7664 
  10   0.0000       0.336136         9.1467 
  11   0.0000       0.359643         9.7864 
  12   0.0000       0.458030        12.4636 
  13   0.0000       0.499216        13.5843 
  14   0.0000       0.499247        13.5852 
  15   0.0000       0.891629        24.2625 
  16   0.0000       0.891647        24.2630 
  17   0.0000       1.154627        31.4190 
  18   0.0000       1.154661        31.4199 
  19   0.0000       1.202735        32.7281 
  20   0.0000       1.474566        40.1250 
  21   0.0000       1.697866        46.2013 
  22   0.0000       1.731370        47.1130 
  23   0.0000       1.731373        47.1130 
  24   0.0000       1.817711        49.4624 
  25   0.0000       1.940575        52.8057 
  26   0.0000       1.940592        52.8062 
  27   0.0000       2.103779        57.2467 
  28   0.0000       2.222580        60.4795 
  29   0.0000       2.318653        63.0938 
  30   0.0000       2.318712        63.0954 
  31   0.0000       2.554453        69.5102 
  32   0.0000       2.554481        69.5110 
  33   0.0000       2.890166        78.6454 
  34   0.0000       3.174512        86.3829 
  35   0.0000       3.174523        86.3832 
  36   0.0000       4.136078       112.5484 
  37   0.0000       4.136098       112.5489 
  38   0.0000       4.243939       115.4835 
  39   0.0000       4.475278       121.7785 
  40   0.0000       4.475320       121.7796 
  41   0.0000       4.538763       123.5060 
  42   0.0000       4.606186       125.3407 
  43   0.0000       4.700816       127.9157 
  44   0.0000       4.700822       127.9159 
  45   0.0000       5.185944       141.1167 
  46   0.0000       5.186014       141.1186 
  47   0.0000       5.869979       159.7302 
  48   0.0000      31.217361       849.4676 
------------------
MOLECULAR ORBITALS
------------------
                      0         1         2         3         4         5   
                 -13.95140  -0.75876  -0.42910  -0.42910  -0.18780   0.01726
                   2.00000   2.00000   2.00000   2.00000   2.00000   0.00000
                  --------  --------  --------  --------  --------  --------
  0N   1s         0.449281 -0.097845 -0.000000  0.000000  0.000000 -0.048346
  0N   2s         0.625644 -0.218863 -0.000000  0.000001  0.000000 -0.115826
  0N   3s         0.035897  0.328787  0.000000 -0.000005 -0.000000  0.284823
  0N   4s        -0.021962  0.397995  0.000000  0.000004 -0.000000 -0.118214
  0N   5s         0.015215  0.113582 -0.000000  0.000024  0.000000  2.079046
  0N   1pz        0.000000  0.000000 -0.000000 -0.000000  0.430551  0.000000
  0N   1px       -0.000000 -0.000001  0.000017 -0.349102  0.000000  0.000005
  0N   1py        0.000000  0.000000  0.349105  0.000017  0.000000 -0.000000
  0N   2pz       -0.000000  0.000000 -0.000000  0.000000  0.362527  0.000000
  0N   2px        0.000000  0.000014  0.000013 -0.258770 -0.000000  0.000018
  0N   2py       -0.000000 -0.000000  0.258750  0.000013  0.000000  0.000000
  0N   3pz        0.000000 -0.000000 -0.000000 -0.000000  0.394213 -0.000000
  0N   3px        0.000000  0.000004  0.000006 -0.122890  0.000000 -0.000108
  0N   3py        0.000000  0.000000  0.122922  0.000006  0.000000 -0.000000
  0N   1dz2      -0.000356 -0.007751 -0.000000  0.000000  0.000000  0.004556
  0N   1dxz       0.000000 -0.000000  0.000000  0.000000  0.000000  0.000000
  0N   1dyz      -0.000000  0.000000  0.000000 -0.000000 -0.000000  0.000000
  0N   1dx2y2    -0.000000 -0.000001  0.000000 -0.009918 -0.000000  0.000001
  0N   1dxy      -0.000000 -0.000000 -0.009916 -0.000000  0.000000 -0.000000
  0N   2dz2      -0.000290 -0.012538  0.000000 -0.000004 -0.000000  0.023277
  0N   2dxz      -0.000000  0.000000 -0.000000 -0.000000 -0.000003  0.000000
  0N   2dyz       0.000000 -0.000000 -0.000000  0.000000  0.000000 -0.000000
  0N   2dx2y2    -0.000000  0.000013  0.000000 -0.000704 -0.000000 -0.000007
  0N   2dxy       0.000000  0.000000 -0.000708 -0.000000 -0.000000 -0.000000
  0N   1f0        0.000000  0.000000  0.000000  0.000000 -0.007908 -0.000000
  0N   1f+1       0.000000 -0.000001 -0.000000  0.005281  0.000000  0.000000
  0N   1f-1       0.000000  0.000000 -0.005281 -0.000000 -0.000000 -0.000000
  0N   1f+2      -0.000000  0.000000 -0.000000  0.000000  0.000001  0.000000
  0N   1f-2       0.000000  0.000000  0.000000 -0.000000 -0.000000  0.000000
  0N   1f+3      -0.000271 -0.004601  0.000000 -0.000002 -0.000000  0.006248
  0N   1f-3      -0.000000  0.000000 -0.000000 -0.000000 -0.000000 -0.000000
  1H   1s        -0.000051  0.091208  0.000009 -0.183132 -0.000000 -0.033917
  1H   2s        -0.000146  0.079860  0.000011 -0.223591  0.000000 -0.015522
  1H   3s        -0.002648  0.010740  0.000004 -0.080688 -0.000000 -1.003091
  1H   1pz       -0.000000  0.000000  0.000000  0.000000  0.024680 -0.000000
  1H   1px        0.000772 -0.015319 -0.000001  0.021374 -0.000000 -0.041439
  1H   1py       -0.000000 -0.000000  0.012831  0.000001 -0.000000  0.000000
  2H   1s        -0.000051  0.091211  0.158592  0.091572  0.000000 -0.033917
  2H   2s        -0.000146  0.079892  0.193626  0.111798 -0.000000 -0.015609
  2H   3s        -0.002648  0.010731  0.069850  0.040338  0.000000 -1.003120
  2H   1pz       -0.000000  0.000000 -0.000000 -0.000000  0.024678  0.000000
  2H   1px       -0.000386  0.007666  0.014812 -0.004278 -0.000000  0.020718
  2H   1py        0.000669 -0.013273 -0.012822 -0.014807  0.000000 -0.035884
  3H   1s        -0.000051  0.091211 -0.158601  0.091556 -0.000000 -0.033917
  3H   2s        -0.000146  0.079892 -0.193637  0.111779 -0.000000 -0.015609
  3H   3s        -0.002648  0.010731 -0.069854  0.040331  0.000000 -1.003121
  3H   1pz        0.000000  0.000000 -0.000000 -0.000000  0.024678  0.000000
  3H   1px       -0.000386  0.007666 -0.014812 -0.004279 -0.000000  0.020718
  3H   1py       -0.000669  0.013273 -0.012824  0.014806 -0.000000  0.035884
                      6         7         8         9        10        11   
                   0.09532   0.09533   0.28541   0.28541   0.33614   0.35964
                   0.00000   0.00000   0.00000   0.00000   0.00000   0.00000
                  --------  --------  --------  --------  --------  --------
  0N   1s        -0.000000  0.000000 -0.000000 -0.000005  0.000000  0.035076
  0N   2s        -0.000002  0.000000 -0.000000 -0.000018  0.000000  0.078913
  0N   3s         0.000021  0.000000  0.000000  0.000089  0.000000  0.028819
  0N   4s        -0.000087 -0.000000 -0.000001 -0.000295 -0.000000 -0.973135
  0N   5s         0.000359  0.000000  0.000003  0.001723 -0.000000 -1.097923
  0N   1pz       -0.000000  0.000000  0.000000  0.000000 -0.326934  0.000000
  0N   1px       -0.250228  0.000031  0.000009  0.005194  0.000000 -0.000005
  0N   1py       -0.000031 -0.250233 -0.005095  0.000008 -0.000000  0.000000
  0N   2pz       -0.000000  0.000000  0.000000  0.000000 -0.770043  0.000000
  0N   2px       -0.036396  0.000004  0.000629  0.376753  0.000000  0.000143
  0N   2py       -0.000004 -0.036506 -0.376555  0.000629 -0.000000  0.000000
  0N   3pz        0.000000 -0.000000 -0.000000 -0.000000  1.246827 -0.000000
  0N   3px       -0.997899  0.000122  0.003188  1.909246  0.000000  0.000565
  0N   3py       -0.000123 -0.998219 -1.909557  0.003189 -0.000000 -0.000000
  0N   1dz2       0.000003  0.000000  0.000000  0.000011 -0.000000 -0.022560
  0N   1dxz      -0.000000  0.000000  0.000000  0.000000  0.000001  0.000000
  0N   1dyz      -0.000000 -0.000000  0.000000 -0.000000  0.000000  0.000000
  0N   1dx2y2     0.006678 -0.000001 -0.000059 -0.035266 -0.000000 -0.000013
  0N   1dxy      -0.000001 -0.006687 -0.035272  0.000059 -0.000000  0.000000
  0N   2dz2      -0.000022  0.000000 -0.000000 -0.000040  0.000000  0.075285
  0N   2dxz       0.000000  0.000000 -0.000000 -0.000000 -0.000010  0.000000
  0N   2dyz       0.000000 -0.000000 -0.000000  0.000000 -0.000000 -0.000000
  0N   2dx2y2     0.073845 -0.000009  0.000361  0.216096  0.000000  0.000054
  0N   2dxy      -0.000009 -0.073740  0.216172 -0.000361  0.000000  0.000000
  0N   1f0        0.000000  0.000000 -0.000000 -0.000000  0.004809 -0.000000
  0N   1f+1      -0.004212  0.000001 -0.000047 -0.028321 -0.000000 -0.000009
  0N   1f-1      -0.000001 -0.004204  0.028327 -0.000047  0.000000 -0.000000
  0N   1f+2      -0.000000 -0.000000 -0.000000 -0.000000  0.000004 -0.000000
  0N   1f-2       0.000000  0.000000 -0.000000 -0.000000  0.000000 -0.000000
  0N   1f+3      -0.000003  0.000000 -0.000000 -0.000010  0.000000  0.035985
  0N   1f-3      -0.000000 -0.000000  0.000001 -0.000000 -0.000000  0.000000
  1H   1s         0.016493 -0.000002 -0.000193 -0.115756  0.000000  0.114714
  1H   2s        -0.115870  0.000014 -0.002789 -1.669926  0.000000  1.272543
  1H   3s         2.184601 -0.000268 -0.000468 -0.280494 -0.000000 -0.314653
  1H   1pz        0.000000  0.000000  0.000000  0.000000 -0.002774 -0.000000
  1H   1px        0.076923 -0.000009  0.000250  0.149518 -0.000000 -0.072152
  1H   1py       -0.000001 -0.005633 -0.073799  0.000123 -0.000000  0.000000
  2H   1s        -0.008246  0.014296  0.100328  0.057676  0.000000  0.114798
  2H   2s         0.057824 -0.099994  1.447093  0.831823  0.000000  1.273371
  2H   3s        -1.092168  1.892144  0.243124  0.139532 -0.000000 -0.314685
  2H   1pz        0.000000  0.000000 -0.000000 -0.000000 -0.002774  0.000000
  2H   1px        0.015011 -0.035723  0.032942  0.092655  0.000000  0.036137
  2H   1py       -0.035724  0.056247 -0.130640 -0.032546 -0.000000 -0.062534
  3H   1s        -0.008249 -0.014294 -0.100135  0.058011  0.000000  0.114798
  3H   2s         0.057848  0.099980 -1.444307  0.836651  0.000000  1.273371
  3H   3s        -1.092632 -1.891875 -0.242657  0.140343 -0.000000 -0.314685
  3H   1pz       -0.000000 -0.000000 -0.000000 -0.000000 -0.002774 -0.000000
  3H   1px        0.015020  0.035719 -0.032633  0.092764  0.000000  0.036137
  3H   1py        0.035738  0.056239 -0.130530  0.032982  0.000000  0.062534
                     12        13        14        15        16        17   
                   0.45803   0.49922   0.49925   0.89163   0.89165   1.15463
                   0.00000   0.00000   0.00000   0.00000   0.00000   0.00000
                  --------  --------  --------  --------  --------  --------
  0N   1s        -0.062596 -0.000000 -0.000008 -0.000000 -0.000000 -0.000000
  0N   2s        -0.126089 -0.000000 -0.000016 -0.000000 -0.000000 -0.000000
  0N   3s        -0.165610 -0.000000 -0.000050  0.000000  0.000000  0.000000
  0N   4s         3.024897  0.000001  0.000511 -0.000000 -0.000000 -0.000000
  0N   5s        -6.263564 -0.000003 -0.000893 -0.000000 -0.000000 -0.000000
  0N   1pz        0.000000 -0.000000  0.000000 -0.000006 -0.000000  0.000000
  0N   1px       -0.000068  0.000029  0.373680  0.000000  0.000000 -0.000001
  0N   1py       -0.000000  0.373671 -0.000029 -0.000000  0.000000  0.022948
  0N   2pz        0.000000 -0.000000  0.000000 -0.000005  0.000000 -0.000000
  0N   2px       -0.000163  0.000088  1.120105 -0.000000 -0.000000 -0.000032
  0N   2py       -0.000001  1.120084 -0.000088  0.000000 -0.000000  1.294522
  0N   3pz       -0.000000  0.000000 -0.000000  0.000009 -0.000000 -0.000000
  0N   3px        0.000534 -0.000163 -2.073062 -0.000000 -0.000000 -0.000036
  0N   3py        0.000001 -2.072792  0.000163  0.000000 -0.000000  1.439335
  0N   1dz2      -0.013762 -0.000000 -0.000001 -0.000000  0.000000  0.000000
  0N   1dxz       0.000000 -0.000000  0.000000 -0.004996 -0.000000 -0.000000
  0N   1dyz      -0.000000 -0.000000 -0.000000 -0.000000  0.004987 -0.000000
  0N   1dx2y2    -0.000005 -0.000000 -0.004973  0.000000  0.000000 -0.000000
  0N   1dxy      -0.000000  0.004974 -0.000000 -0.000000 -0.000000 -0.003315
  0N   2dz2      -0.022533 -0.000000 -0.000024  0.000000  0.000000  0.000000
  0N   2dxz      -0.000000  0.000000  0.000000  0.818255  0.000000 -0.000000
  0N   2dyz      -0.000000 -0.000000  0.000000  0.000000 -0.818229 -0.000000
  0N   2dx2y2    -0.000035  0.000001  0.008246 -0.000000 -0.000000 -0.000040
  0N   2dxy       0.000000 -0.008157  0.000001 -0.000000  0.000000 -1.600013
  0N   1f0       -0.000000  0.000000 -0.000000  0.000002 -0.000000 -0.000000
  0N   1f+1       0.000002 -0.000001 -0.014518  0.000000  0.000000  0.000002
  0N   1f-1       0.000000 -0.014510  0.000001 -0.000000  0.000000 -0.072312
  0N   1f+2      -0.000000  0.000000 -0.000000 -0.007886 -0.000000  0.000000
  0N   1f-2      -0.000000  0.000000 -0.000000  0.000000 -0.007888  0.000000
  0N   1f+3      -0.014893 -0.000000 -0.000007  0.000000  0.000000  0.000000
  0N   1f-3      -0.000000  0.000002 -0.000000 -0.000000 -0.000000 -0.000004
  1H   1s        -0.044630 -0.000009 -0.111289 -0.000000 -0.000000 -0.000004
  1H   2s         0.020452 -0.000064 -0.817532  0.000000  0.000000  0.000070
  1H   3s         1.452898  0.000188  2.382722 -0.000000  0.000000 -0.000003
  1H   1pz        0.000000  0.000000  0.000000  0.210670  0.000000 -0.000000
  1H   1px        0.022316  0.000003  0.042938 -0.000000 -0.000000 -0.000010
  1H   1py       -0.000000  0.022087 -0.000002 -0.000000 -0.000000 -0.112043
  2H   1s        -0.044594 -0.096379  0.055634  0.000000 -0.000000  0.121825
  2H   2s         0.020505 -0.708038  0.408753 -0.000000  0.000000 -2.430809
  2H   3s         1.453375  2.063152 -1.191177  0.000000 -0.000000  0.098256
  2H   1pz       -0.000000  0.000000  0.000000 -0.105329 -0.182462  0.000000
  2H   1px       -0.011157 -0.009019  0.027277 -0.000000  0.000000 -0.225434
  2H   1py        0.019342  0.037701 -0.009022  0.000000 -0.000000  0.278450
  3H   1s        -0.044594  0.096388  0.055618 -0.000000  0.000000 -0.121821
  3H   2s         0.020504  0.708103  0.408642  0.000000 -0.000000  2.430739
  3H   3s         1.453376 -2.063338 -1.190853  0.000000  0.000000 -0.098253
  3H   1pz       -0.000000  0.000000 -0.000000 -0.105329  0.182462  0.000000
  3H   1px       -0.011157  0.009023  0.027275  0.000000 -0.000000  0.225433
  3H   1py       -0.019342  0.037702  0.009016  0.000000 -0.000000  0.278439
                     18        19        20        21        22        23   
                   1.15466   1.20274   1.47457   1.69787   1.73137   1.73137
                   0.00000   0.00000   0.00000   0.00000   0.00000   0.00000
                  --------  --------  --------  --------  --------  --------
  0N   1s        -0.000001 -0.006091 -0.000000  0.000000  0.000004 -0.000000
  0N   2s         0.000001 -0.023365 -0.000000  0.000000  0.000013 -0.000000
  0N   3s        -0.000140  0.489314  0.000000 -0.000000 -0.000140  0.000000
  0N   4s         0.000593 -1.618943 -0.000000  0.000000  0.000365 -0.000001
  0N   5s         0.000237 -2.050321  0.000000 -0.000000 -0.000239  0.000000
  0N   1pz       -0.000000  0.000000  0.000000 -0.591500  0.000000  0.000000
  0N   1px        0.022918 -0.000004 -0.000000 -0.000000 -0.653114  0.000289
  0N   1py        0.000001 -0.000000 -0.000023 -0.000000 -0.000289 -0.653144
  0N   2pz        0.000000  0.000000  0.000000  0.344870  0.000000 -0.000000
  0N   2px        1.294435  0.000354  0.000000  0.000000  2.373358 -0.001050
  0N   2py        0.000032 -0.000000  0.000070  0.000000  0.001050  2.373459
  0N   3pz       -0.000000 -0.000000  0.000000 -0.549307  0.000000  0.000000
  0N   3px        1.439504  0.000364 -0.000000 -0.000000 -0.872339  0.000386
  0N   3py        0.000036 -0.000000  0.000001 -0.000000 -0.000386 -0.872297
  0N   1dz2      -0.000002 -0.003704  0.000000 -0.000000  0.000001  0.000000
  0N   1dxz       0.000000 -0.000000  0.000000 -0.000002  0.000000 -0.000000
  0N   1dyz      -0.000000  0.000000 -0.000000 -0.000000 -0.000000 -0.000000
  0N   1dx2y2     0.003323 -0.000001 -0.000000  0.000000  0.016387 -0.000007
  0N   1dxy      -0.000000  0.000000 -0.000005 -0.000000 -0.000007 -0.016392
  0N   2dz2      -0.000385  1.476406  0.000000  0.000000 -0.000017  0.000000
  0N   2dxz       0.000000 -0.000000 -0.000000  0.000024 -0.000000  0.000000
  0N   2dyz      -0.000000 -0.000000  0.000000 -0.000000 -0.000000  0.000000
  0N   2dx2y2     1.599996  0.000412 -0.000000  0.000000  0.909023 -0.000402
  0N   2dxy      -0.000040  0.000000 -0.000004 -0.000000 -0.000402 -0.909042
  0N   1f0       -0.000000 -0.000000 -0.000000 -0.007342  0.000000 -0.000000
  0N   1f+1      -0.072304 -0.000013 -0.000000 -0.000000 -0.148534  0.000066
  0N   1f-1      -0.000002  0.000000 -0.000003 -0.000000 -0.000066 -0.148538
  0N   1f+2      -0.000000 -0.000000 -0.000000 -0.000002  0.000000  0.000000
  0N   1f-2      -0.000000 -0.000000 -0.000000 -0.000000 -0.000000  0.000000
  0N   1f+3      -0.000038  0.105110  0.000000 -0.000000 -0.000015  0.000000
  0N   1f-3      -0.000000  0.000000  0.037708  0.000000  0.000000  0.000002
  1H   1s         0.140731 -0.081733 -0.000000  0.000000  0.492001 -0.000218
  1H   2s        -2.807219  1.671193  0.000000 -0.000000 -2.463823  0.001090
  1H   3s         0.113308  0.017509  0.000000  0.000000  1.407234 -0.000623
  1H   1pz        0.000000 -0.000000  0.000000  0.575863 -0.000000 -0.000000
  1H   1px        0.408655 -0.234218 -0.000000  0.000000  0.822851 -0.000364
  1H   1py       -0.000003  0.000000  0.613610  0.000000  0.000243  0.548561
  2H   1s        -0.070325 -0.081759  0.000016  0.000000 -0.245814  0.426201
  2H   2s         1.402900  1.672291 -0.000061  0.000000  1.230870 -2.134321
  2H   3s        -0.056573  0.017411  0.000021 -0.000000 -0.702990  1.218983
  2H   1pz       -0.000000 -0.000000 -0.000000  0.575906 -0.000000  0.000000
  2H   1px        0.018088  0.117163 -0.531436  0.000000  0.617088 -0.119029
  2H   1py       -0.225349 -0.202986 -0.306806  0.000000 -0.118376  0.754326
  3H   1s        -0.070331 -0.081759 -0.000016 -0.000000 -0.246191 -0.425983
  3H   2s         1.403022  1.672291  0.000061  0.000000  1.232759  2.133232
  3H   3s        -0.056578  0.017411 -0.000021 -0.000000 -0.704069 -1.218360
  3H   1pz       -0.000000 -0.000000 -0.000000  0.575906 -0.000000  0.000000
  3H   1px        0.018099  0.117163  0.531436  0.000000  0.617194  0.118483
  3H   1py        0.225363  0.202986 -0.306806  0.000000  0.119044  0.754221
                     24        25        26        27        28        29   
                   1.81771   1.94057   1.94059   2.10378   2.22258   2.31865
                   0.00000   0.00000   0.00000   0.00000   0.00000   0.00000
                  --------  --------  --------  --------  --------  --------
  0N   1s         0.078198  0.000000 -0.000000 -0.000000 -0.106526 -0.000001
  0N   2s         0.245556  0.000000 -0.000000 -0.000000 -0.366349 -0.000001
  0N   3s        -2.208107 -0.000000  0.000000  0.000000  2.757410 -0.000034
  0N   4s         5.596913  0.000000 -0.000000 -0.000000 -4.036410  0.000163
  0N   5s        -2.350151 -0.000000  0.000000  0.000000  3.687920 -0.000089
  0N   1pz       -0.000000  0.000091 -0.000000  1.109457 -0.000000  0.000000
  0N   1px        0.000018 -0.000000 -0.000000 -0.000000  0.000031  1.060758
  0N   1py       -0.000000  0.000000  0.000000  0.000000 -0.000000  0.000010
  0N   2pz        0.000000 -0.000132  0.000000 -1.770712  0.000000 -0.000000
  0N   2px       -0.000080  0.000000 -0.000000  0.000000  0.000002 -1.478498
  0N   2py        0.000000 -0.000000 -0.000000 -0.000000  0.000000 -0.000014
  0N   3pz        0.000000  0.000056 -0.000000  0.544602 -0.000000  0.000000
  0N   3px        0.000017 -0.000000 -0.000000 -0.000000 -0.000024  0.836453
  0N   3py       -0.000000  0.000000  0.000000 -0.000000  0.000000  0.000008
  0N   1dz2      -0.045494 -0.000000  0.000000 -0.000000 -0.067479  0.000004
  0N   1dxz       0.000000 -0.025476  0.000000  0.000002 -0.000000  0.000000
  0N   1dyz      -0.000000 -0.000000 -0.025464  0.000000  0.000000  0.000000
  0N   1dx2y2    -0.000006  0.000000  0.000000  0.000000  0.000010 -0.007339
  0N   1dxy      -0.000000  0.000000  0.000000  0.000000  0.000000  0.000000
  0N   2dz2      -0.175332  0.000000  0.000000  0.000000  0.142305 -0.000022
  0N   2dxz      -0.000000  1.021310 -0.000001 -0.000067 -0.000000  0.000000
  0N   2dyz       0.000000  0.000001  1.021317  0.000000 -0.000000  0.000000
  0N   2dx2y2    -0.000020  0.000000  0.000000  0.000000 -0.000099  0.674438
  0N   2dxy      -0.000000  0.000000  0.000000  0.000000  0.000000 -0.000006
  0N   1f0        0.000000  0.000004 -0.000000 -0.036149  0.000000 -0.000000
  0N   1f+1       0.000008 -0.000000  0.000000 -0.000000 -0.000016 -0.079376
  0N   1f-1      -0.000000  0.000000  0.000000 -0.000000  0.000000 -0.000001
  0N   1f+2       0.000000 -0.047417  0.000000  0.000004  0.000000 -0.000000
  0N   1f-2      -0.000000  0.000000  0.047422  0.000000  0.000000  0.000000
  0N   1f+3      -0.282104 -0.000000  0.000000 -0.000000 -0.197117 -0.000010
  0N   1f-3      -0.000000 -0.000000  0.000000 -0.000000 -0.000000  0.000000
  1H   1s         0.508414  0.000000 -0.000000  0.000000  0.459596  0.063988
  1H   2s        -1.781854 -0.000000  0.000000 -0.000000 -0.468854 -0.087852
  1H   3s         0.791354  0.000000 -0.000000  0.000000 -0.527083 -0.573319
  1H   1pz        0.000000 -1.038266  0.000001  0.392071 -0.000000  0.000000
  1H   1px        0.538897  0.000000 -0.000000 -0.000000  0.145444  0.299806
  1H   1py        0.000000 -0.000000 -0.000000 -0.000000 -0.000000  0.000007
  2H   1s         0.508460  0.000000 -0.000000  0.000000  0.459473 -0.032020
  2H   2s        -1.782004 -0.000000  0.000000 -0.000000 -0.468798  0.043891
  2H   3s         0.791420 -0.000000 -0.000000 -0.000000 -0.527104  0.286679
  2H   1pz       -0.000000  0.519152 -0.899170  0.391967 -0.000000  0.000000
  2H   1px       -0.269471 -0.000000  0.000000  0.000000 -0.072738  0.620011
  2H   1py        0.466733  0.000000 -0.000000  0.000000  0.125885  0.184924
  3H   1s         0.508460  0.000000 -0.000000  0.000000  0.459473 -0.032021
  3H   2s        -1.782004 -0.000000  0.000000 -0.000000 -0.468798  0.043893
  3H   3s         0.791420  0.000000 -0.000000 -0.000000 -0.527104  0.286688
  3H   1pz       -0.000000  0.519153  0.899169  0.391967 -0.000000  0.000000
  3H   1px       -0.269471  0.000000  0.000000  0.000000 -0.072738  0.620008
  3H   1py       -0.466733 -0.000000 -0.000000 -0.000000 -0.125885 -0.184916
                     30        31        32        33        34        35   
                   2.31871   2.55445   2.55448   2.89017   3.17451   3.17452
                   0.00000   0.00000   0.00000   0.00000   0.00000   0.00000
                  --------  --------  --------  --------  --------  --------
  0N   1s        -0.000000  0.000009  0.000000  0.036457 -0.000004  0.000000
  0N   2s        -0.000000  0.000027  0.000000  0.088098 -0.000012  0.000000
  0N   3s         0.000000 -0.000166 -0.000000  0.917854  0.000140 -0.000000
  0N   4s        -0.000000  0.000135  0.000000 -5.914031 -0.000350  0.000000
  0N   5s         0.000000 -0.000315 -0.000000  0.083625  0.000186 -0.000000
  0N   1pz       -0.000000  0.000000 -0.000000 -0.000000  0.000000 -0.000000
  0N   1px       -0.000010  0.292910 -0.000001  0.000021 -0.259967  0.000023
  0N   1py        1.060795  0.000001  0.292692  0.000000 -0.000023 -0.259966
  0N   2pz        0.000000 -0.000000  0.000000  0.000000 -0.000000  0.000000
  0N   2px        0.000014  2.060277 -0.000006 -0.000185  2.813239 -0.000251
  0N   2py       -1.477984  0.000006  2.060687 -0.000000  0.000251  2.813070
  0N   3pz       -0.000000  0.000000 -0.000000 -0.000000  0.000000 -0.000000
  0N   3px       -0.000008  0.480080 -0.000001 -0.000003 -0.211915  0.000019
  0N   3py        0.836467  0.000001  0.479906  0.000000 -0.000019 -0.211973
  0N   1dz2      -0.000000  0.000003 -0.000000 -0.148847 -0.000023  0.000000
  0N   1dxz      -0.000000  0.000000 -0.000000 -0.000000  0.000000 -0.000000
  0N   1dyz      -0.000000 -0.000000 -0.000000  0.000000  0.000000 -0.000000
  0N   1dx2y2     0.000000 -0.055760  0.000000  0.000015 -0.160591  0.000014
  0N   1dxy       0.007337  0.000000  0.055783  0.000000  0.000014  0.160581
  0N   2dz2      -0.000000  0.000037  0.000000  1.349926  0.000037 -0.000000
  0N   2dxz      -0.000000  0.000000 -0.000000 -0.000000  0.000000 -0.000000
  0N   2dyz      -0.000000  0.000000 -0.000000  0.000000  0.000000 -0.000000
  0N   2dx2y2    -0.000006  0.118577 -0.000000 -0.000068  1.957132 -0.000175
  0N   2dxy      -0.674491 -0.000000 -0.118531 -0.000000 -0.000175 -1.957062
  0N   1f0        0.000000 -0.000000  0.000000  0.000000 -0.000000  0.000000
  0N   1f+1       0.000001 -0.167946  0.000001 -0.000004  0.397905 -0.000035
  0N   1f-1      -0.079423 -0.000001 -0.167933  0.000000  0.000036  0.397940
  0N   1f+2       0.000000 -0.000000  0.000000  0.000000  0.000000  0.000000
  0N   1f-2      -0.000000  0.000000  0.000000  0.000000 -0.000000  0.000000
  0N   1f+3      -0.000000  0.000023  0.000000  0.130782 -0.000017  0.000000
  0N   1f-3      -0.000000  0.000000 -0.000001  0.000000 -0.000000 -0.000003
  1H   1s        -0.000001  0.257912 -0.000001  0.289729 -0.962781  0.000086
  1H   2s         0.000001 -2.311450  0.000007  2.176815 -1.920579  0.000171
  1H   3s         0.000005  0.231056 -0.000001 -0.274730  0.475573 -0.000042
  1H   1pz        0.000000  0.000000  0.000000  0.000000  0.000000  0.000000
  1H   1px       -0.000003  1.377723 -0.000004 -1.423123  1.233486 -0.000110
  1H   1py        0.726652 -0.000002 -0.735907  0.000000  0.000043  0.483743
  2H   1s         0.055480 -0.128977  0.223302  0.289655  0.481337 -0.833824
  2H   2s        -0.076533  1.155863 -2.001894  2.176650  0.960207 -1.663248
  2H   3s        -0.496401 -0.115467  0.200178 -0.274715 -0.237800  0.411909
  2H   1pz        0.000000  0.000000 -0.000000 -0.000000  0.000000 -0.000000
  2H   1px        0.184689 -0.207366 -0.915235  0.711518  0.671155 -0.324691
  2H   1py        0.406718 -0.915233  0.849352 -1.232354 -0.324615  1.046042
  3H   1s        -0.055479 -0.128978 -0.223301  0.289655  0.481486  0.833738
  3H   2s         0.076532  1.155875  2.001887  2.176649  0.960504  1.663077
  3H   3s         0.496395 -0.115468 -0.200177 -0.274714 -0.237874 -0.411866
  3H   1pz       -0.000000  0.000000 -0.000000  0.000000  0.000000 -0.000000
  3H   1px       -0.184700 -0.207361  0.915236  0.711518  0.671213  0.324571
  3H   1py        0.406722  0.915238  0.849347  1.232354  0.324801  1.045984
                     36        37        38        39        40        41   
                   4.13608   4.13610   4.24394   4.47528   4.47532   4.53876
                   0.00000   0.00000   0.00000   0.00000   0.00000   0.00000
                  --------  --------  --------  --------  --------  --------
  0N   1s        -0.000000 -0.000000 -0.000000  0.000000  0.000000 -0.000000
  0N   2s        -0.000000 -0.000000 -0.000000  0.000000  0.000000 -0.000000
  0N   3s         0.000000  0.000000  0.000000 -0.000000 -0.000000 -0.000000
  0N   4s        -0.000000 -0.000000 -0.000000  0.000000  0.000000  0.000000
  0N   5s         0.000000  0.000000  0.000000 -0.000000 -0.000000  0.000000
  0N   1pz        0.000025  0.000000 -0.118001 -0.000001 -0.000000  0.000000
  0N   1px        0.000000  0.000000 -0.000000  0.000000  0.000000 -0.000000
  0N   1py        0.000000  0.000000  0.000000 -0.000000 -0.000000  0.000020
  0N   2pz       -0.000083 -0.000000  0.392689  0.000004  0.000000 -0.000000
  0N   2px       -0.000000 -0.000000 -0.000000  0.000000  0.000000  0.000000
  0N   2py        0.000000  0.000000 -0.000000  0.000000  0.000000 -0.000107
  0N   3pz       -0.000005  0.000000  0.051694 -0.000000 -0.000000  0.000000
  0N   3px        0.000000  0.000000 -0.000000  0.000000 -0.000000  0.000000
  0N   3py        0.000000 -0.000000  0.000000 -0.000000 -0.000000 -0.000018
  0N   1dz2      -0.000000 -0.000000 -0.000000  0.000000  0.000000  0.000000
  0N   1dxz      -0.546324 -0.000000 -0.000102 -1.050646 -0.000000 -0.000000
  0N   1dyz      -0.000000  0.546328 -0.000000 -0.000000  1.050644  0.000000
  0N   1dx2y2    -0.000000 -0.000000 -0.000000  0.000000  0.000000 -0.000000
  0N   1dxy      -0.000000  0.000000 -0.000000  0.000000 -0.000000 -0.000073
  0N   2dz2      -0.000000  0.000000  0.000000 -0.000000 -0.000000 -0.000000
  0N   2dxz      -0.059132 -0.000000 -0.000011  0.857479  0.000000  0.000000
  0N   2dyz      -0.000000  0.059127 -0.000000  0.000000 -0.857496 -0.000000
  0N   2dx2y2    -0.000000  0.000000 -0.000000 -0.000000 -0.000000  0.000000
  0N   2dxy      -0.000000 -0.000000  0.000000 -0.000000 -0.000000  0.000122
  0N   1f0        0.000223 -0.000000 -1.106985 -0.000009 -0.000000  0.000000
  0N   1f+1       0.000000 -0.000000 -0.000000  0.000000  0.000000 -0.000000
  0N   1f-1       0.000000  0.000000  0.000000 -0.000000  0.000000  0.000050
  0N   1f+2      -0.945375 -0.000000 -0.000196  0.573155  0.000000  0.000000
  0N   1f-2       0.000000 -0.945373  0.000000 -0.000000  0.573158  0.000000
  0N   1f+3      -0.000000 -0.000000 -0.000000  0.000000  0.000000 -0.000000
  0N   1f-3       0.000000  0.000000  0.000000 -0.000000 -0.000000  1.225977
  1H   1s         0.000000 -0.000000 -0.000000  0.000000  0.000000 -0.000000
  1H   2s        -0.000000  0.000000 -0.000000 -0.000000 -0.000000 -0.000000
  1H   3s        -0.000000 -0.000000 -0.000000  0.000000  0.000000  0.000000
  1H   1pz        0.414274  0.000000 -0.352929 -0.395501 -0.000000 -0.000000
  1H   1px        0.000000 -0.000000  0.000000  0.000000  0.000000  0.000000
  1H   1py       -0.000000 -0.000000 -0.000000  0.000000 -0.000000  0.408019
  2H   1s         0.000000  0.000000  0.000000 -0.000000 -0.000000  0.000046
  2H   2s        -0.000000 -0.000000 -0.000000  0.000000 -0.000000  0.000072
  2H   3s        -0.000000  0.000000 -0.000000  0.000000  0.000000 -0.000009
  2H   1pz       -0.207031 -0.358709 -0.353051  0.197745  0.342521  0.000000
  2H   1px       -0.000000 -0.000000 -0.000000  0.000000  0.000000 -0.353368
  2H   1py        0.000000  0.000000  0.000000  0.000000  0.000000 -0.204043
  3H   1s        -0.000000 -0.000000 -0.000000  0.000000  0.000000 -0.000046
  3H   2s         0.000000  0.000000 -0.000000  0.000000  0.000000 -0.000072
  3H   3s        -0.000000 -0.000000 -0.000000  0.000000 -0.000000  0.000009
  3H   1pz       -0.207031  0.358709 -0.353051  0.197746 -0.342521 -0.000000
  3H   1px        0.000000  0.000000 -0.000000 -0.000000 -0.000000  0.353368
  3H   1py        0.000000  0.000000 -0.000000  0.000000  0.000000 -0.204043
                     42        43        44        45        46        47   
                   4.60619   4.70082   4.70082   5.18594   5.18601   5.86998
                   0.00000   0.00000   0.00000   0.00000   0.00000   0.00000
                  --------  --------  --------  --------  --------  --------
  0N   1s         0.005484 -0.000000 -0.000001 -0.000000 -0.000001  0.001384
  0N   2s         0.017375  0.000000 -0.000001 -0.000000 -0.000001  0.038702
  0N   3s         0.015800 -0.000000 -0.000006 -0.000000 -0.000025 -1.757127
  0N   4s        -0.745670  0.000000  0.000013  0.000000  0.000122  5.980537
  0N   5s         0.871568 -0.000000  0.000057  0.000000  0.000008 -1.009511
  0N   1pz       -0.000000  0.000000  0.000000  0.000000  0.000000  0.000000
  0N   1px       -0.000000  0.000001 -0.174509  0.000007 -0.371903  0.000017
  0N   1py        0.000000  0.174538  0.000001  0.371908  0.000007 -0.000000
  0N   2pz        0.000000 -0.000000 -0.000000 -0.000000 -0.000000 -0.000000
  0N   2px        0.000041 -0.000002  0.510362 -0.000067  3.764931 -0.000170
  0N   2py        0.000000 -0.510609 -0.000002 -3.764935 -0.000067  0.000000
  0N   3pz        0.000000  0.000000  0.000000  0.000000  0.000000  0.000000
  0N   3px       -0.000027 -0.000002  0.467766  0.000003 -0.168789  0.000003
  0N   3py        0.000000 -0.467701 -0.000002  0.168877  0.000003 -0.000000
  0N   1dz2       1.179749 -0.000000  0.000049 -0.000000 -0.000023 -0.271086
  0N   1dxz       0.000000 -0.000000 -0.000000 -0.000000 -0.000000 -0.000000
  0N   1dyz      -0.000000 -0.000000  0.000000 -0.000000  0.000000  0.000000
  0N   1dx2y2     0.000060  0.000005 -1.189533 -0.000007  0.401640  0.000018
  0N   1dxy      -0.000000 -1.189507 -0.000005  0.401719  0.000007 -0.000000
  0N   2dz2      -0.669970  0.000000 -0.000051 -0.000000 -0.000024 -1.221738
  0N   2dxz      -0.000000  0.000000  0.000000  0.000000  0.000000  0.000000
  0N   2dyz       0.000000  0.000000 -0.000000 -0.000000  0.000000 -0.000000
  0N   2dx2y2    -0.000032 -0.000005  1.383288 -0.000031  1.748599 -0.000131
  0N   2dxy       0.000000  1.383425  0.000005  1.748522  0.000031 -0.000000
  0N   1f0       -0.000000  0.000000  0.000000  0.000000 -0.000000  0.000000
  0N   1f+1       0.000013  0.000002 -0.401847  0.000019 -1.068083  0.000041
  0N   1f-1      -0.000000  0.401911  0.000002  1.068043  0.000019 -0.000000
  0N   1f+2      -0.000000  0.000000  0.000000  0.000000 -0.000000  0.000000
  0N   1f-2      -0.000000 -0.000000  0.000000  0.000000  0.000000  0.000000
  0N   1f+3      -0.268283  0.000000 -0.000050 -0.000000 -0.000048 -1.504006
  0N   1f-3      -0.000000 -0.000084 -0.000000 -0.000024 -0.000000  0.000000
  1H   1s        -0.076460  0.000002 -0.418065  0.000024 -1.372797 -0.959829
  1H   2s         0.022024  0.000002 -0.630232  0.000042 -2.363074 -1.320982
  1H   3s        -0.146260  0.000000 -0.109308 -0.000011  0.595429  0.305279
  1H   1pz        0.000000 -0.000000  0.000000 -0.000000  0.000000 -0.000000
  1H   1px       -0.228902  0.000000 -0.028289 -0.000027  1.525552  0.997674
  1H   1py       -0.000000 -0.249178 -0.000001 -0.078830 -0.000001  0.000000
  2H   1s        -0.076454  0.362129  0.208999  1.188841  0.686382 -0.959927
  2H   2s         0.022034  0.545888  0.315098  2.046370  1.181517 -1.321174
  2H   3s        -0.146279  0.094599  0.054642 -0.515677 -0.297718  0.305328
  2H   1pz       -0.000000  0.000000  0.000000  0.000000  0.000000  0.000000
  2H   1px        0.114465 -0.120068  0.179762  0.626442  0.440499 -0.498905
  2H   1py       -0.198272 -0.041125  0.120121 -1.163836 -0.626436  0.864084
  3H   1s        -0.076454 -0.362131  0.208996 -1.188866  0.686340 -0.959927
  3H   2s         0.022034 -0.545891  0.315094 -2.046412  1.181445 -1.321174
  3H   3s        -0.146279 -0.094599  0.054641  0.515688 -0.297700  0.305328
  3H   1pz        0.000000  0.000000  0.000000  0.000000 -0.000000  0.000000
  3H   1px        0.114465  0.120066  0.179763 -0.626458  0.440477 -0.498905
  3H   1py        0.198272 -0.041124 -0.120122 -1.163859  0.626394 -0.864084
                     48   
                  31.21736
                   0.00000
                  --------
  0N   1s        -1.387061
  0N   2s         1.698001
  0N   3s        -1.511907
  0N   4s         1.492212
  0N   5s        -1.107324
  0N   1pz        0.000000
  0N   1px        0.000000
  0N   1py       -0.000000
  0N   2pz       -0.000000
  0N   2px       -0.000002
  0N   2py        0.000000
  0N   3pz       -0.000000
  0N   3px        0.000001
  0N   3py       -0.000000
  0N   1dz2       0.013005
  0N   1dxz      -0.000000
  0N   1dyz       0.000000
  0N   1dx2y2     0.000000
  0N   1dxy      -0.000000
  0N   2dz2       0.001042
  0N   2dxz       0.000000
  0N   2dyz      -0.000000
  0N   2dx2y2    -0.000002
  0N   2dxy      -0.000000
  0N   1f0        0.000000
  0N   1f+1       0.000000
  0N   1f-1      -0.000000
  0N   1f+2       0.000000
  0N   1f-2       0.000000
  0N   1f+3      -0.008335
  0N   1f-3      -0.000000
  1H   1s        -0.016975
  1H   2s         0.000277
  1H   3s         0.197314
  1H   1pz       -0.000000
  1H   1px       -0.048705
  1H   1py        0.000000
  2H   1s        -0.016976
  2H   2s         0.000275
  2H   3s         0.197314
  2H   1pz        0.000000
  2H   1px        0.024351
  2H   1py       -0.042179
  3H   1s        -0.016976
  3H   2s         0.000275
  3H   3s         0.197314
  3H   1pz        0.000000
  3H   1px        0.024351
  3H   1py        0.042179



                    ********************************
                    * MULLIKEN POPULATION ANALYSIS *
                    ********************************

-----------------------
MULLIKEN ATOMIC CHARGES
-----------------------
   0 N :   -0.707343
   1 H :    0.235783
   2 H :    0.235780
   3 H :    0.235780
Sum of atomic charges:   -0.0000000

--------------------------------
MULLIKEN REDUCED ORBITAL CHARGES
--------------------------------
  0 N s       :     3.447852  s :     3.447852
      pz      :     1.951754  p :     4.248979
      px      :     1.148605
      py      :     1.148620
      dz2     :     0.003975  d :     0.007905
      dxz     :     0.000000
      dyz     :     0.000000
      dx2y2   :     0.001965
      dxy     :     0.001966
      f0      :     0.000363  f :     0.002606
      f+1     :     0.000744
      f-1     :     0.000744
      f+2     :     0.000000
      f-2     :    -0.000000
      f+3     :     0.000755
      f-3     :     0.000000
  1 H s       :     0.724994  s :     0.724994
      pz      :     0.015962  p :     0.039223
      px      :     0.017565
      py      :     0.005696
  2 H s       :     0.724994  s :     0.724994
      pz      :     0.015961  p :     0.039226
      px      :     0.008665
      py      :     0.014600
  3 H s       :     0.724994  s :     0.724994
      pz      :     0.015961  p :     0.039226
      px      :     0.008665
      py      :     0.014600


                     *******************************
                     * LOEWDIN POPULATION ANALYSIS *
                     *******************************

----------------------
LOEWDIN ATOMIC CHARGES
----------------------
   0 N :   -0.371160
   1 H :    0.123718
   2 H :    0.123721
   3 H :    0.123721

-------------------------------
LOEWDIN REDUCED ORBITAL CHARGES
-------------------------------
  0 N s       :     3.064633  s :     3.064633
      pz      :     1.865640  p :     4.254278
      px      :     1.194318
      py      :     1.194321
      dz2     :     0.003121  d :     0.047654
      dxz     :     0.000000
      dyz     :     0.000000
      dx2y2   :     0.022266
      dxy     :     0.022267
      f0      :     0.000002  f :     0.004594
      f+1     :     0.001683
      f-1     :     0.001683
      f+2     :     0.000000
      f-2     :     0.000000
      f+3     :     0.001226
      f-3     :     0.000000
  1 H s       :     0.754444  s :     0.754444
      pz      :     0.044786  p :     0.121838
      px      :     0.059217
      py      :     0.017834
  2 H s       :     0.754443  s :     0.754443
      pz      :     0.044786  p :     0.121836
      px      :     0.028180
      py      :     0.048871
  3 H s       :     0.754443  s :     0.754443
      pz      :     0.044786  p :     0.121836
      px      :     0.028180
      py      :     0.048871


                      *****************************
                      * MAYER POPULATION ANALYSIS *
                      *****************************

  NA   - Mulliken gross atomic population
  ZA   - Total nuclear charge
  QA   - Mulliken gross atomic charge
  VA   - Mayer's total valence
  BVA  - Mayer's bonded valence
  FA   - Mayer's free valence

  ATOM       NA         ZA         QA         VA         BVA        FA
  0 N      7.7073     7.0000    -0.7073     2.8424     2.8424     0.0000
  1 H      0.7642     1.0000     0.2358     0.9555     0.9555    -0.0000
  2 H      0.7642     1.0000     0.2358     0.9555     0.9555    -0.0000
  3 H      0.7642     1.0000     0.2358     0.9555     0.9555    -0.0000

  Mayer bond orders larger than 0.100000
B(  0-N ,  1-H ) :   0.9475 B(  0-N ,  2-H ) :   0.9475 B(  0-N ,  3-H ) :   0.9475 


Now starting NBO....

 *********************************** NBO 7.0 ***********************************
             N A T U R A L   A T O M I C   O R B I T A L   A N D
          N A T U R A L   B O N D   O R B I T A L   A N A L Y S I S
 *********************** Giovanni  F. Caramori (I101916) ***********************
  (c) Copyright 1996-2020 Board of Regents of the University of Wisconsin System
      on behalf of the Theoretical Chemistry Institute.  All rights reserved.

          Cite this program [NBO 7.0.8 (11-Feb-2020)] as:

          NBO 7.0.  E. D. Glendening, J. K. Badenhoop, A. E. Reed,
          J. E. Carpenter, J. A. Bohmann, C. M. Morales, P. Karafiloglou,
          C. R. Landis, and F. Weinhold, Theoretical Chemistry Institute,
          University of Wisconsin, Madison, WI (2018)

       /NPA    / : Natural Population Analysis
       /NBO    / : Natural Bond Orbital Analysis
       /AONBO  / : Checkpoint the AO to NBO transformation
       /ARCHIVE/ : Write the archive file to lfn47

 Job title: ORCA Job: NH3‡


 NATURAL POPULATIONS:  Natural atomic orbital occupancies

  NAO Atom No lang   Type(AO)    Occupancy      Energy
 -------------------------------------------------------
   1    N  1  s      Cor( 1s)     1.99999     -16.63509
   2    N  1  s      Val( 2s)     1.37457      -1.19272
   3    N  1  s      Ryd( 4s)     0.00000       4.73996
   4    N  1  s      Ryd( 3s)     0.00000       0.35572
   5    N  1  s      Ryd( 5s)     0.00000      25.63624
   6    N  1  px     Val( 2p)     1.36521      -0.83865
   7    N  1  px     Ryd( 3p)     0.00216       0.25786
   8    N  1  px     Ryd( 4p)     0.00000       2.05892
   9    N  1  py     Val( 2p)     1.36521      -0.83865
  10    N  1  py     Ryd( 3p)     0.00216       0.25786
  11    N  1  py     Ryd( 4p)     0.00000       2.05896
  12    N  1  pz     Val( 2p)     1.99186      -0.78991
  13    N  1  pz     Ryd( 3p)     0.00592      -0.00480
  14    N  1  pz     Ryd( 4p)     0.00000       1.36355
  15    N  1  dxy    Ryd( 3d)     0.00232       1.31049
  16    N  1  dxy    Ryd( 4d)     0.00000       3.93678
  17    N  1  dxz    Ryd( 3d)     0.00000       0.65815
  18    N  1  dxz    Ryd( 4d)     0.00000       3.59155
  19    N  1  dyz    Ryd( 3d)     0.00000       0.65817
  20    N  1  dyz    Ryd( 4d)     0.00000       3.59160
  21    N  1  dx2y2  Ryd( 3d)     0.00232       1.31051
  22    N  1  dx2y2  Ryd( 4d)     0.00000       3.93678
  23    N  1  dz2    Ryd( 3d)     0.00252       1.00043
  24    N  1  dz2    Ryd( 4d)     0.00000       3.77331
  25    N  1  f(0)   Ryd( 4f)     0.00054       3.47260
  26    N  1  f(c1)  Ryd( 4f)     0.00035       3.71777
  27    N  1  f(s1)  Ryd( 4f)     0.00035       3.71767
  28    N  1  f(c2)  Ryd( 4f)     0.00000       3.41593
  29    N  1  f(s2)  Ryd( 4f)     0.00000       3.41595
  30    N  1  f(c3)  Ryd( 4f)     0.00048       4.31269
  31    N  1  f(s3)  Ryd( 4f)     0.00000       3.68387

  32    H  2  s      Val( 1s)     0.62697      -0.38184
  33    H  2  s      Ryd( 3s)     0.00026       1.55060
  34    H  2  s      Ryd( 2s)     0.00000       0.26323
  35    H  2  px     Ryd( 2p)     0.00020       2.36603
  36    H  2  py     Ryd( 2p)     0.00003       1.67024
  37    H  2  pz     Ryd( 2p)     0.00056       1.56498

  38    H  3  s      Val( 1s)     0.62697      -0.38184
  39    H  3  s      Ryd( 3s)     0.00026       1.55054
  40    H  3  s      Ryd( 2s)     0.00000       0.26329
  41    H  3  px     Ryd( 2p)     0.00007       1.84414
  42    H  3  py     Ryd( 2p)     0.00016       2.19206
  43    H  3  pz     Ryd( 2p)     0.00056       1.56497

  44    H  4  s      Val( 1s)     0.62697      -0.38184
  45    H  4  s      Ryd( 3s)     0.00026       1.55054
  46    H  4  s      Ryd( 2s)     0.00000       0.26329
  47    H  4  px     Ryd( 2p)     0.00007       1.84414
  48    H  4  py     Ryd( 2p)     0.00016       2.19206
  49    H  4  pz     Ryd( 2p)     0.00056       1.56497


 Summary of Natural Population Analysis:

                                     Natural Population
             Natural    ---------------------------------------------
  Atom No    Charge        Core      Valence    Rydberg      Total
 --------------------------------------------------------------------
    N  1   -1.11594      1.99999     6.09685    0.01910     8.11594
    H  2    0.37198      0.00000     0.62697    0.00105     0.62802
    H  3    0.37198      0.00000     0.62697    0.00105     0.62802
    H  4    0.37198      0.00000     0.62697    0.00105     0.62802
 ====================================================================
 * Total *  0.00000      1.99999     7.97776    0.02225    10.00000

                                 Natural Population
 ---------------------------------------------------------
   Core                       1.99999 ( 99.9997% of    2)
   Valence                    7.97776 ( 99.7220% of    8)
   Natural Minimal Basis      9.97775 ( 99.7775% of   10)
   Natural Rydberg Basis      0.02225 (  0.2225% of   10)
 ---------------------------------------------------------

    Atom No         Natural Electron Configuration
 ----------------------------------------------------------------------------
      N  1      [core]2s( 1.37)2p( 4.72)3p( 0.01)3d( 0.01)
      H  2            1s( 0.63)
      H  3            1s( 0.63)
      H  4            1s( 0.63)


 NATURAL BOND ORBITAL ANALYSIS:

                            Occupancies       Lewis Structure    Low   High
         Max    Occ     -------------------  -----------------   occ   occ
  Cycle  Ctr   Thresh    Lewis   non-Lewis     CR  BD  nC  LP    (L)   (NL)
 ============================================================================
    1     2     1.90     9.99742   0.00258      1   3   0   1     0      0
 ----------------------------------------------------------------------------

 Structure accepted: No low occupancy Lewis orbitals

 -------------------------------------------------------
   Core                      1.99999 (100.000% of   2)
   Valence Lewis             7.99743 ( 99.968% of   8)
  ==================      =============================
   Total Lewis               9.99742 ( 99.974% of  10)
  -----------------------------------------------------
   Valence non-Lewis         0.00002 (  0.000% of  10)
   Rydberg non-Lewis         0.00256 (  0.026% of  10)
  ==================      =============================
   Total non-Lewis           0.00258 (  0.026% of  10)
 -------------------------------------------------------


     (Occupancy)   Bond orbital / Coefficients / Hybrids
 ------------------ Lewis ------------------------------------------------------
   1. (1.99999) CR ( 1) N  1            s(100.00%)
                                         1.0000  0.0000  0.0000  0.0000  0.0000
                                         0.0000  0.0000  0.0000  0.0000  0.0000
                                         0.0000  0.0000  0.0000  0.0000  0.0000
                                         0.0000  0.0000  0.0000  0.0000  0.0000
                                         0.0000  0.0000  0.0000  0.0000  0.0000
                                         0.0000  0.0000  0.0000  0.0000  0.0000
                                         0.0000
   2. (1.99832) LP ( 1) N  1            s(  0.00%)p 1.00( 99.97%)d 0.00(  0.00%)
                                                  f 0.00(  0.03%)
                                         0.0000  0.0000  0.0000  0.0000  0.0000
                                         0.0000  0.0000  0.0000  0.0000  0.0000
                                         0.0000  0.9984  0.0544  0.0000  0.0000
                                         0.0000  0.0000  0.0000  0.0000  0.0000
                                         0.0000  0.0000  0.0000  0.0000 -0.0165
                                         0.0000  0.0000  0.0000  0.0000  0.0000
                                         0.0000
   3. (1.99970) BD ( 1) N  1- H  2
               ( 68.64%)   0.8285* N  1 s( 33.26%)p 2.00( 66.54%)d 0.01(  0.17%)
                                                  f 0.00(  0.03%)
                                         0.0000  0.5767  0.0000  0.0000  0.0000
                                         0.8151 -0.0324  0.0000  0.0000  0.0000
                                         0.0000  0.0000  0.0000  0.0000  0.0000
                                         0.0000  0.0000  0.0000  0.0000  0.0000
                                         0.0336  0.0003 -0.0247  0.0004  0.0000
                                        -0.0130  0.0000  0.0000  0.0000 -0.0108
                                         0.0000
               ( 31.36%)   0.5600* H  2 s( 99.97%)p 0.00(  0.03%)
                                         0.9998  0.0001  0.0000 -0.0177  0.0000
                                         0.0000
   4. (1.99970) BD ( 1) N  1- H  3
               ( 68.64%)   0.8285* N  1 s( 33.26%)p 2.00( 66.54%)d 0.01(  0.17%)
                                                  f 0.00(  0.03%)
                                         0.0000  0.5767  0.0000  0.0000  0.0000
                                        -0.4075  0.0162  0.0000  0.7059 -0.0281
                                         0.0000  0.0000  0.0000  0.0000 -0.0291
                                        -0.0002  0.0000  0.0000  0.0000  0.0000
[...]
The origin for moment calculation is the CENTER OF MASS  = ( 0.000004, -0.000000 -0.000000)

-------------
DIPOLE MOMENT
-------------
                                X             Y             Z
Electronic contribution:     -0.00000      -0.00000      -0.00000
Nuclear contribution   :     -0.00001       0.00000       0.00000
                        -----------------------------------------
Total Dipole Moment    :     -0.00001       0.00000       0.00000
                        -----------------------------------------
Magnitude (a.u.)       :      0.00001
Magnitude (Debye)      :      0.00003



--------------------
Rotational spectrum 
--------------------
 
Rotational constants in cm-1:    11.035059    11.034974     5.517508 
Rotational constants in MHz : 330822.743176 330820.189690 165410.733214 

 Dipole components along the rotational axes: 
x,y,z [a.u.] :     0.000010    -0.000000     0.000000 
x,y,z [Debye]:     0.000025    -0.000000     0.000000 

 


           ************************************************************
           *        Program running with 12 parallel MPI-processes    *
           *              working on a common directory               *
           ************************************************************

-------------------------------------------------------------------------------
                               ORCA SCF HESSIAN
-------------------------------------------------------------------------------

Hessian of the Kohn-Sham DFT energy:
Kohn-Sham wavefunction type                      ... RKS
Hartree-Fock exchange scaling                    ...    0.000
Number of operators                              ...    1
Number of atoms                                  ...    4
Basis set dimensions                             ...   49
Integral neglect threshold                       ... 2.5e-11
Integral primitive cutoff                        ... 2.5e-12

Setting up DFT Hessian calculations              ... 
Electron density on the grid                     ... found on disk
Electron density on the final grid               ... found on disk
Building xc-kernel on the grid                   ... done   (      0.0 sec)
Building xc-kernel on the final grid             ... done   (      0.0 sec)
                                                     done   (      0.3 sec)

Nuclear repulsion Hessian                        ... done   (      0.0 sec)

----------------------------------------------
Forming right-hand sides of CP-SCF equations     ...
----------------------------------------------
One electron integral derivatives                ... done   (      0.1 sec)
Transforming the overlap derivative matrices     ... done   (      0.0 sec)
Making the Q(x) pseudodensities                  ... done   (      0.0 sec)
Adding the E*S(x)*S(y) terms to the Hessian      ... done   (      0.0 sec)
Calculating energy weighted overlap derivatives  ... done   (      0.0 sec)
Two electron integral derivatives (RI)           ... done   (      0.3 sec)
Exchange-correlation integral derivatives        ... done   (      0.3 sec)
tr(F(y)Q(x)) contribution to the Hessian         ... done   (      0.0 sec)
Response fock operator R(S(x)) (RI)              ... done   (      0.2 sec)
XC Response fock operator R(S(x))                ... done   (      0.1 sec)
tr(F(y)S(x)) contribution to the Hessian         ... done   (      0.0 sec)
Transforming and finalizing RHSs                 ... done   (      0.0 sec)

----------------------------------------------
Solving the CP-SCF equations (RI)                ...
----------------------------------------------
     CP-SCF ITERATION   0: 
     CP-SCF ITERATION   1:      0.000049776504
     CP-SCF ITERATION   2:      0.000000177365
     CP-SCF ITERATION   3:      0.000000003280

                                                 ... done   (      1.4 sec)
Forming perturbed density Hessian contributions  ... done   (      0.0 sec)
Making the perturbed densities                   ... done   (      0.0 sec)
2nd integral derivative contribs (RI)            ... done   (      0.6 sec)
Exchange-correlation Hessian                     ... done   (      0.5 sec)
Dispersion correction in the Hessian             ... 

------------------- 
Dispersion Gradient 
------------------- 
   1  :    0.000000171    0.000000000    0.000000000
   2  :   -0.000220497   -0.000000000   -0.000000000
   3  :    0.000110227   -0.000189421   -0.000000000
   4  :    0.000110227    0.000189421   -0.000000000

  |G| =    0.000819964



------------------- 
Dispersion Gradient 
------------------- 
   1  :   -0.000000168    0.000000000    0.000000000
   2  :   -0.000218713   -0.000000000   -0.000000000
   3  :    0.000109375   -0.000190943   -0.000000000
   4  :    0.000109375    0.000190943   -0.000000000

  |G| =    0.000819518

done   (      0.1 sec)
gCP correction in the Hessian                    ... done   (      0.1 sec)
Dipol derivatives                                ... done   (      0.2 sec)

Total SCF Hessian time: 0 days 0 hours 0 min 4 sec 

Writing the Hessian file to the disk             ... done


Maximum memory used throughout the entire calculation: 181.4 MB

-----------------------
VIBRATIONAL FREQUENCIES
-----------------------

Scaling factor for frequencies =  1.000000000  (already applied!)

   0:         0.00 cm**-1
   1:         0.00 cm**-1
   2:         0.00 cm**-1
   3:         0.00 cm**-1
   4:         0.00 cm**-1
   5:         0.00 cm**-1
   6:      -815.46 cm**-1 ***imaginary mode***
   7:      1532.18 cm**-1
   8:      1532.18 cm**-1
   9:      3543.77 cm**-1
  10:      3739.41 cm**-1
  11:      3739.42 cm**-1


------------
NORMAL MODES
------------

These modes are the Cartesian displacements weighted by the diagonal matrix
M(i,i)=1/sqrt(m[i]) where m[i] is the mass of the displaced atom
Thus, these vectors are normalized but *not* orthogonal

                  0          1          2          3          4          5    
      0       0.000000   0.000000   0.000000   0.000000   0.000000   0.000000
      1       0.000000   0.000000   0.000000   0.000000   0.000000   0.000000
      2       0.000000   0.000000   0.000000   0.000000   0.000000   0.000000
      3       0.000000   0.000000   0.000000   0.000000   0.000000   0.000000
      4       0.000000   0.000000   0.000000   0.000000   0.000000   0.000000
      5       0.000000   0.000000   0.000000   0.000000   0.000000   0.000000
      6       0.000000   0.000000   0.000000   0.000000   0.000000   0.000000
      7       0.000000   0.000000   0.000000   0.000000   0.000000   0.000000
      8       0.000000   0.000000   0.000000   0.000000   0.000000   0.000000
      9       0.000000   0.000000   0.000000   0.000000   0.000000   0.000000
     10       0.000000   0.000000   0.000000   0.000000   0.000000   0.000000
     11       0.000000   0.000000   0.000000   0.000000   0.000000   0.000000
                  6          7          8          9         10         11    
      0       0.000000   0.080973   0.000004   0.000007  -0.000007   0.085863
      1       0.000000  -0.000004   0.080973  -0.000000   0.085863   0.000007
      2      -0.123688   0.000000   0.000000  -0.000000   0.000000   0.000000
      3      -0.000000   0.061366   0.000003   0.577294   0.000066  -0.813329
      4      -0.000000   0.000045  -0.811498   0.000000   0.017858   0.000001
      5       0.572921  -0.000000  -0.000000   0.000000  -0.000000  -0.000000
      6       0.000000  -0.593258  -0.377997  -0.288692   0.359914  -0.189872
      7      -0.000000  -0.377958  -0.156865   0.500023  -0.605527   0.359810
      8       0.572915   0.000000  -0.000000   0.000000  -0.000000   0.000000
      9       0.000000  -0.593300   0.377931  -0.288692  -0.359883  -0.189931
     10       0.000000   0.377975  -0.156823  -0.500023  -0.605468  -0.359909
     11       0.572915   0.000000   0.000000   0.000000   0.000000   0.000000


-----------
IR SPECTRUM
-----------

 Mode    freq (cm**-1)   T**2         TX         TY         TZ
-------------------------------------------------------------------
   7:      1532.18   37.622255  ( -6.133698   0.000338  -0.000000)
   8:      1532.18   37.645256  ( -0.000338  -6.135573  -0.000000)
   9:      3543.77    0.000000  ( -0.000691   0.000000   0.000000)
  10:      3739.41   33.644842  (  0.000473  -5.800417  -0.000000)
  11:      3739.42   33.651069  ( -5.800954  -0.000473   0.000000)

The first frequency considered to be a vibration is 7
The total number of vibrations considered is 5


--------------------------
THERMOCHEMISTRY AT 298.15K
--------------------------

Temperature         ... 298.15 K
Pressure            ... 1.00 atm
Total Mass          ... 17.03 AMU

Throughout the following assumptions are being made:
  (1) The electronic state is orbitally nondegenerate
  (2) There are no thermally accessible electronically excited states
  (3) Hindered rotations indicated by low frequency modes are not
      treated as such but are treated as vibrations and this may
      cause some error
  (4) All equations used are the standard statistical mechanics
      equations for an ideal gas
  (5) All vibrations are strictly harmonic

freq.    1532.18  E(vib)   ...       0.00 
freq.    1532.18  E(vib)   ...       0.00 
freq.    3543.77  E(vib)   ...       0.00 
freq.    3739.41  E(vib)   ...       0.00 
freq.    3739.42  E(vib)   ...       0.00 

------------
INNER ENERGY
------------

The inner energy is: U= E(el) + E(ZPE) + E(vib) + E(rot) + E(trans)
    E(el)   - is the total energy from the electronic structure calculation
              = E(kin-el) + E(nuc-el) + E(el-el) + E(nuc-nuc)
    E(ZPE)  - the the zero temperature vibrational energy from the frequency calculation
    E(vib)  - the the finite temperature correction to E(ZPE) due to population
              of excited vibrational states
    E(rot)  - is the rotational thermal energy
    E(trans)- is the translational thermal energy

Summary of contributions to the inner energy U:
Electronic energy                ...    -56.55631687 Eh
Zero point energy                ...      0.03209245 Eh      20.14 kcal/mol
Thermal vibrational correction   ...      0.00000860 Eh       0.01 kcal/mol
Thermal rotational correction    ...      0.00141627 Eh       0.89 kcal/mol
Thermal translational correction ...      0.00141627 Eh       0.89 kcal/mol
-----------------------------------------------------------------------
Total thermal energy                    -56.52138328 Eh


Summary of corrections to the electronic energy:
(perhaps to be used in another calculation)
Total thermal correction                  0.00284114 Eh       1.78 kcal/mol
Non-thermal (ZPE) correction              0.03209245 Eh      20.14 kcal/mol
-----------------------------------------------------------------------
Total correction                          0.03493359 Eh      21.92 kcal/mol


--------
ENTHALPY
--------

The enthalpy is H = U + kB*T
                kB is Boltzmann's constant
Total free energy                 ...    -56.52138328 Eh 
Thermal Enthalpy correction       ...      0.00094421 Eh       0.59 kcal/mol
-----------------------------------------------------------------------
Total Enthalpy                    ...    -56.52043907 Eh


Note: Rotational entropy computed according to Herzberg 
Infrared and Raman Spectra, Chapter V,1, Van Nostrand Reinhold, 1945 
Point Group:  C2v, Symmetry Number:   2  
Rotational constants in cm-1:    11.035059    11.034974     5.517508 

Vibrational entropy computed according to the QRRHO of S. Grimme
Chem.Eur.J. 2012 18 9955


-------
ENTROPY
-------

The entropy contributions are T*S = T*(S(el)+S(vib)+S(rot)+S(trans))
     S(el)   - electronic entropy
     S(vib)  - vibrational entropy
     S(rot)  - rotational entropy
     S(trans)- translational entropy
The entropies will be listed as mutliplied by the temperature to get
units of energy

Electronic entropy                ...      0.00000000 Eh      0.00 kcal/mol
Vibrational entropy               ...      0.00000976 Eh      0.01 kcal/mol
Rotational entropy                ...      0.00578301 Eh      3.63 kcal/mol
Translational entropy             ...      0.01636425 Eh     10.27 kcal/mol
-----------------------------------------------------------------------
Final entropy term                ...      0.02215702 Eh     13.90 kcal/mol

In case the symmetry of your molecule has not been determined correctly
or in case you have a reason to use a different symmetry number we print 
out the resulting rotational entropy values for sn=1,12 :
 --------------------------------------------------------
|  sn= 1 | S(rot)=       0.00643747 Eh      4.04 kcal/mol|
|  sn= 2 | S(rot)=       0.00578301 Eh      3.63 kcal/mol|
|  sn= 3 | S(rot)=       0.00540018 Eh      3.39 kcal/mol|
|  sn= 4 | S(rot)=       0.00512855 Eh      3.22 kcal/mol|
|  sn= 5 | S(rot)=       0.00491787 Eh      3.09 kcal/mol|
|  sn= 6 | S(rot)=       0.00474572 Eh      2.98 kcal/mol|
|  sn= 7 | S(rot)=       0.00460018 Eh      2.89 kcal/mol|
|  sn= 8 | S(rot)=       0.00447410 Eh      2.81 kcal/mol|
|  sn= 9 | S(rot)=       0.00436289 Eh      2.74 kcal/mol|
|  sn=10 | S(rot)=       0.00426341 Eh      2.68 kcal/mol|
|  sn=11 | S(rot)=       0.00417342 Eh      2.62 kcal/mol|
|  sn=12 | S(rot)=       0.00409127 Eh      2.57 kcal/mol|
 --------------------------------------------------------


-------------------
GIBBS FREE ENERGY
-------------------

The Gibbs free energy is G = H - T*S

Total enthalpy                    ...    -56.52043907 Eh 
Total entropy correction          ...     -0.02215702 Eh    -13.90 kcal/mol
-----------------------------------------------------------------------
Final Gibbs free energy         ...    -56.54259609 Eh

For completeness - the Gibbs free energy minus the electronic energy
G-E(el)                           ...      0.01372078 Eh      8.61 kcal/mol




------------------------------------------------------------------------------- 
                    Intrinsic Reaction Coordinate Calculation                  
------------------------------------------------------------------------------- 

System:
Nr. of atoms                        .... 4
Algorithm: SD (steepest descent step) plus correction
Settings:
Max. no of cycles        MaxIter    .... 1000
Direction                           .... Forward and backward
Initial displacement Hessian type   .... Read
Hessian Filename                    .... NH3‡.hess
Following Hessian mode              .... 0
Initial displacement type           .... Energy
  Initial displacement energy change.... 0.250 mEh
Coordinate system following type    .... Cartesian
Length of steepest descent step     .... 0.150 bohr
Do parabolic fit 
  if SD step is uphill              .... YES
Do Correction to SD step            .... YES
Scaling for length of correction
  compared to SD step               .... 0.333
Do parabolic fit to SD correction   .... YES
Only interpolate for parabolic fit  .... YES
Do update to length of
  SD step and correction            .... YES
Convergence Tolerances:
  Max. Gradient            TolMAXG  ....  1.0000e-03 Eh/bohr
  RMS Gradient             TolRMSG  ....  2.0000e-04 Eh/bohr
Storing full IRC trajectory in      .... NH3‡_IRC_Full_trj.xyz
Storing forward trajectory in       .... NH3‡_IRC_F_trj.xyz
Storing backward trajectory in      .... NH3‡_IRC_B_trj.xyz


 ...good, the file NH3‡.hess exists
Reading the hessian file           ...... done
Determining length of initial displacement:
  Requested energy change (quadratic behavior): 0.250 mEh
  Resulting scaling factor for initial displacement along normalized TS mode: 0.1283

         *************************************************************
         *                          FORWARD IRC                      *
         *************************************************************

Iteration    E(Eh)      dE(kcal/mol)  max(|G|)   RMS(G) 
Convergence thresholds                0.001000  0.000200            
    0       -56.556563   -0.154159    0.005409  0.001849
    1       -56.559121   -1.759889    0.014552  0.008113
    2       -56.561558   -3.289056    0.015207  0.005396
    3       -56.563899   -4.757893    0.008128  0.003963
    4       -56.564373   -5.055527    0.006640  0.003343
    5       -56.564518   -5.146457    0.005072  0.002292
    6       -56.564704   -5.263011    0.002998  0.001248
    7       -56.564792   -5.318403    0.000613  0.000302
    8       -56.564794   -5.319594    0.000457  0.000230
    9       -56.564795   -5.320156    0.000335  0.000165

                      ***********************HURRAY********************
                      ***            THE IRC HAS CONVERGED          ***
                      *************************************************


         *************************************************************
         *                          BACKWARD IRC                     *
         *************************************************************

Iteration    E(Eh)      dE(kcal/mol)  max(|G|)   RMS(G) 
Convergence thresholds                0.001000  0.000200            
    0       -56.556563   -0.154159    0.005409  0.001849
    1       -56.559121   -1.759889    0.014552  0.008113
    2       -56.561558   -3.289056    0.015207  0.005396
    3       -56.563899   -4.757889    0.008128  0.003964
    4       -56.564373   -5.055486    0.006640  0.003343
    5       -56.564518   -5.146435    0.005073  0.002292
    6       -56.564704   -5.263000    0.002998  0.001248
    7       -56.564792   -5.318400    0.000613  0.000302
    8       -56.564794   -5.319593    0.000458  0.000230
    9       -56.564795   -5.320156    0.000335  0.000165

                      ***********************HURRAY********************
                      ***            THE IRC HAS CONVERGED          ***
                      *************************************************


---------------------------------------------------------------
                       IRC PATH SUMMARY              
---------------------------------------------------------------
All gradients are in Eh/Bohr.

Step        E(Eh)      dE(kcal/mol)  max(|G|)   RMS(G) 
   1       -56.564795   -5.320156    0.000335  0.000165
   2       -56.564794   -5.319593    0.000458  0.000230
   3       -56.564792   -5.318400    0.000613  0.000302
   4       -56.564704   -5.263000    0.002998  0.001248
   5       -56.564518   -5.146435    0.005073  0.002292
   6       -56.564373   -5.055486    0.006640  0.003343
   7       -56.563899   -4.757889    0.008128  0.003964
   8       -56.561558   -3.289056    0.015207  0.005396
   9       -56.559121   -1.759889    0.014552  0.008113
  10       -56.556563   -0.154159    0.005409  0.001849
  11       -56.556317    0.000000    0.000018  0.000009 <= TS
  12       -56.556563   -0.154159    0.005409  0.001849
  13       -56.559121   -1.759889    0.014552  0.008113
  14       -56.561558   -3.289056    0.015207  0.005396
  15       -56.563899   -4.757893    0.008128  0.003963
  16       -56.564373   -5.055527    0.006640  0.003343
  17       -56.564518   -5.146457    0.005072  0.002292
  18       -56.564704   -5.263011    0.002998  0.001248
  19       -56.564792   -5.318403    0.000613  0.000302
  20       -56.564794   -5.319594    0.000457  0.000230
  21       -56.564795   -5.320156    0.000335  0.000165

Timings for individual modules:

Sum of individual times         ...      365.201 sec (=   6.087 min)
GTO integral calculation        ...       51.359 sec (=   0.856 min)  14.1 %
SCF iterations                  ...      274.187 sec (=   4.570 min)  75.1 %
SCF Gradient evaluation         ...       34.272 sec (=   0.571 min)   9.4 %
Geometry relaxation             ...        0.102 sec (=   0.002 min)   0.0 %
Analytical frequency calculation...        5.281 sec (=   0.088 min)   1.4 %
                             ****ORCA TERMINATED NORMALLY****
TOTAL RUN TIME: 0 days 0 hours 6 minutes 25 seconds 712 msec
