(SLURM) JOB ID:         148

                                 *****************
                                 * O   R   C   A *
                                 *****************

           --- An Ab Initio, DFT and Semiempirical electronic structure package ---

                  #######################################################
                  #                        -***-                        #
                  #          Department of theory and spectroscopy      #
                  #               Directorship: Frank Neese             #
                  #        Max Planck Institute fuer Kohlenforschung    #
                  #                Kaiser Wilhelm Platz 1               #
                  #                 D-45470 Muelheim/Ruhr               #
                  #                      Germany                        #
                  #                                                     #
                  #                  All rights reserved                #
                  #                        -***-                        #
                  #######################################################


                         Program Version 4.2.1 -  RELEASE  -


 With contributions from (in alphabetic order):
   Daniel Aravena         : Magnetic Suceptibility
   Michael Atanasov       : Ab Initio Ligand Field Theory (pilot matlab implementation)
   Alexander A. Auer      : GIAO ZORA, VPT2
   Ute Becker             : Parallelization
   Giovanni Bistoni       : ED, misc. LED, open-shell LED, HFLD
   Martin Brehm           : Molecular dynamics
   Dmytro Bykov           : SCF Hessian
   Vijay G. Chilkuri      : MRCI spin determinant printing, contributions to CSF-ICE
   Dipayan Datta          : RHF DLPNO-CCSD density
   Achintya Kumar Dutta   : EOM-CC, STEOM-CC
   Dmitry Ganyushin       : Spin-Orbit,Spin-Spin,Magnetic field MRCI
   Miquel Garcia          : C-PCM Hessian, Gaussian charge scheme
   Yang Guo               : DLPNO-NEVPT2, CIM, IAO-localization
   Andreas Hansen         : Spin unrestricted coupled pair/coupled cluster methods
   Benjamin Helmich-Paris : CASSCF linear response (MC-RPA)
   Lee Huntington         : MR-EOM, pCC
   Robert Izsak           : Overlap fitted RIJCOSX, COSX-SCS-MP3, EOM
   Christian Kollmar      : KDIIS, OOCD, Brueckner-CCSD(T), CCSD density
   Simone Kossmann        : Meta GGA functionals, TD-DFT gradient, OOMP2, MP2 Hessian
   Martin Krupicka        : AUTO-CI
   Lucas Lang             : DCDCAS
   Dagmar Lenk            : GEPOL surface, SMD
   Dimitrios Liakos       : Extrapolation schemes; Compound Job, initial MDCI parallelization
   Dimitrios Manganas     : Further ROCIS development; embedding schemes
   Dimitrios Pantazis     : SARC Basis sets
   Taras Petrenko         : DFT Hessian,TD-DFT gradient, ASA, ECA, R-Raman, ABS, FL, XAS/XES, NRVS
   Peter Pinski           : DLPNO-MP2, DLPNO-MP2 Gradient
   Christoph Reimann      : Effective Core Potentials
   Marius Retegan         : Local ZFS, SOC
   Christoph Riplinger    : Optimizer, TS searches, QM/MM, DLPNO-CCSD(T), (RO)-DLPNO pert. Triples
   Tobias Risthaus        : Range-separated hybrids, TD-DFT gradient, RPA, STAB
   Michael Roemelt        : Original ROCIS implementation
   Masaaki Saitow         : Open-shell DLPNO-CCSD energy and density
   Barbara Sandhoefer     : DKH picture change effects
   Avijit Sen             : IP-ROCIS
   Kantharuban Sivalingam : CASSCF convergence, NEVPT2, FIC-MRCI
   Bernardo de Souza      : ESD, SOC TD-DFT
   Georgi Stoychev        : AutoAux, RI-MP2 NMR
   Willem Van den Heuvel  : Paramagnetic NMR
   Boris Wezisla          : Elementary symmetry handling
   Frank Wennmohs         : Technical directorship


 We gratefully acknowledge several colleagues who have allowed us to
 interface, adapt or use parts of their codes:
   Stefan Grimme, W. Hujo, H. Kruse,             : VdW corrections, initial TS optimization,
                  C. Bannwarth                     DFT functionals, gCP, sTDA/sTD-DF
   Ed Valeev, F. Pavosevic, A. Kumar             : LibInt (2-el integral package), F12 methods
   Garnet Chan, S. Sharma, J. Yang, R. Olivares  : DMRG
   Ulf Ekstrom                                   : XCFun DFT Library
   Mihaly Kallay                                 : mrcc  (arbitrary order and MRCC methods)
   Andreas Klamt, Michael Diedenhofen            : otool_cosmo (COSMO solvation model)
   Jiri Pittner, Ondrej Demel                    : Mk-CCSD
   Frank Weinhold                                : gennbo (NPA and NBO analysis)
   Christopher J. Cramer and Donald G. Truhlar   : smd solvation model
   Lars Goerigk                                  : TD-DFT with DH, B97 family of functionals
   V. Asgeirsson, H. Jonsson                     : NEB implementation
   FAccTs GmbH                                   : IRC, NEB, NEB-TS, Multilevel, MM, QM/MM, CI optimization
   S Lehtola, MJT Oliveira, MAL Marques          : LibXC Library


 Your calculation uses the libint2 library for the computation of 2-el integrals
 For citations please refer to: http://libint.valeyev.net

 Your ORCA version has been built with support for libXC version: 4.2.3
 For citations please refer to: https://tddft.org/programs/libxc/

 This ORCA versions uses:
   CBLAS   interface :  Fast vector & matrix operations
   LAPACKE interface :  Fast linear algebra routines
   SCALAPACK package :  Parallel linear algebra routines




***************************************
The coordinates will be read from file: init.xyz
***************************************


Your calculation utilizes the SMD solvation module
Please cite in your paper:
A.V. Marenich, C.J. Cramer, D.G. Truhlar J. Phys. Chem. B, 113, (2009), 6378 

Your calculation utilizes the semiempirical GFN2-xTB method
Please cite in your paper:
C. Bannwarth, Ehlert S., S. Grimme,  J. Chem. Theory Comput., 15, (2019), 1652.
   

----- Orbital basis set information -----
Your calculation utilizes the basis: def2-SVP
   F. Weigend and R. Ahlrichs, Phys. Chem. Chem. Phys. 7, 3297 (2005).

================================================================================
                                        WARNINGS
                       Please study these warnings very carefully!
================================================================================

WARNING: Gradients needed for Numerical Frequencies
  ===> : Setting RunTyp to EnGrad

WARNING: The environment variable RSH_COMMAND is not set!
  ===> : All Displacements for the Numerical Hessian calculation
         will be started on localhost

WARNING: Found dipole moment calculation with XTB calculation
  ===> : Switching off dipole moment calculation


INFO   : the flag for use of LIBINT has been found!

================================================================================
                                       INPUT FILE
================================================================================
NAME = /tmp/slurm-scratch/freq.148/freq.inp
|  1> ! XTB2 NumFreq
|  2> %maxcore 1450
|  3> 
|  4> * xyzfile 0 1 init.xyz
|  5> 
|  6> %cpcm
|  7>  smd true
|  8>  smdsolvent "ch2cl2"
|  9> end
| 10> %pal nprocs 8 end
| 11> 
| 12>                          ****END OF INPUT****
================================================================================

                     *******************************
                     * Energy+Gradient Calculation *
                     *******************************

      -----------------------------------------------------------      
     |                   =====================                   |     
     |                           x T B                           |     
     |                   =====================                   |     
     |                         S. Grimme                         |     
     |          Mulliken Center for Theoretical Chemistry        |     
     |                    University of Bonn                     |     
      -----------------------------------------------------------      

   * xtb version 6.3.0 (preview) compiled by 'ehlert@majestix' on 2020-01-15

   This program is distributed in the hope that it will be useful,
   but WITHOUT ANY WARRANTY; without even the implied warranty of
   MERCHANTABILITY or FITNESS FOR A PARTICULAR PURPOSE.
   
   FOR NON-COMMERCIAL, ACADEMIA USE ONLY.
   
   Cite this work as:
   * S. Grimme, C. Bannwarth, P. Shushkov, J. Chem. Theory Comput., 2017,
     13, 1989-2009. DOI: 10.1021/acs.jctc.7b00118
   * C. Bannwarth, S. Ehlert and S. Grimme., J. Chem. Theory Comput., 2019,
     15, 1652-1671. DOI: 10.1021/acs.jctc.8b01176
   * P. Pracht, E. Caldeweyher, S. Ehlert, S. Grimme, ChemRxiv, 2019, preprint.
     DOI: 10.26434/chemrxiv.8326202.v1
   * S. Grimme, S. Spicher unpublished
   
   for DFT-D4:
   * E. Caldeweyher, C. Bannwarth and S. Grimme, J. Chem. Phys., 2017,
     147, 034112. DOI: 10.1063/1.4993215
   * E. Caldeweyher, S. Ehlert, A. Hansen, H. Neugebauer, S. Spicher,
     C. Bannwarth and S. Grimme, J. Chem. Phys., 2019, 150, 154122.
     DOI: 10.1063/1.5090222
   
   for sTDA-xTB:
   * S. Grimme and C. Bannwarth, J. Chem. Phys., 2016, 145, 054103.
     DOI: 10.1063/1.4959605
   
   in the mass-spec context:
   * V. Asgeirsson, C. Bauer and S. Grimme, Chem. Sci., 2017, 8, 4879.
     DOI: 10.1039/c7sc00601b
   
   for metadynamics refer to:
   * S. Grimme, J. Chem. Theory Comput., 2019, 155, 2847-2862
     DOI: 10.1021/acs.jctc.9b00143
   
   with help from (in alphabetical order)
   C. Bannwarth, F. Bohle, G. Brandenburg, E. Caldeweyher, M. Checinski,
   S. Dohm, S. Ehlert, S. Ehrlich, F. März, H. Neugebauer, J. Pisarek,
   P. Pracht, P. Shushkov, and S. Spicher.
   
 * started run on 2020/08/26 at 04:39:12.778     

           -------------------------------------------------
          |                Calculation Setup                |
           -------------------------------------------------

          program call               : /opt/orca/otool_xtb /tmp/slurm-scratch/freq.148/freq_XTB.xyz --grad -c 0 -u 0 -P 8 --namespace /tmp/slurm-scratch/freq.148/freq --gbsa CH2Cl2
          hostname                   : headnode-pbs
          calculation namespace      : /tmp/slurm-scratch/freq.148/freq
          coordinate file            : /tmp/slurm-scratch/freq.148/freq_XTB.xyz
          omp threads                :                     8
          number of atoms            :                    30
          number of electrons        :                    72
          charge                     :                     0
          spin                       :                   0.0
          first test random number   :      0.62451825993324


########################################################################
# WARNING! Please study the warnings concerning your input carefully
#  - Process number higher than OMP_NUM_THREADS, I hope you know what you are doing.
########################################################################

           ------------------------------------------------- 
          |                 G F N 2 - x T B                 |
          | Geometry, Frequencies, Noncovalent interactions |
          |            JCTC 2019 parametrisation            |
           ------------------------------------------------- 
             k(s)              :                1.8500
             k(p)              :                2.2300
             k(d)              :                2.2300
             k(f)              :                2.0000
             kEN (H0ij)        :               -2.0000
             D4 a1             :                0.5200
             D4 a2             :                5.0000
             D4 s6             :                1.0000
             D4 s8             :                2.7000
             D4 s9             :                5.0000
             alphaj            :                2.0000

  Z AO/shell   Hii/eV     exponent
  1     Wed Apr 25 08:07:45 CEST 2018   EN: 2.200 GM2: 0.406  GM3: 0.0800  RAES: 1.40
     1s    -10.707211    1.230000
  6     Wed Apr 25 08:07:45 CEST 2018   EN: 2.550 GM2: 0.538  GM3: 0.1500  RAES: 3.00
     2s    -13.970922    2.096432
     2p    -10.063292    1.800000
  7     Wed Apr 25 08:07:45 CEST 2018   EN: 3.040 GM2: 0.461  GM3:-0.0640  RAES: 1.90
     2s    -16.686243    2.339881
     2p    -12.523956    2.014332
  8     Wed Apr 25 08:07:45 CEST 2018   EN: 3.440 GM2: 0.452  GM3:-0.0517  RAES: 1.80
     2s    -20.229985    2.439742
     2p    -15.503117    2.137023

 Solvent             : CH2Cl2
 Using internal parameter file: .param_gbsa2_CH2Cl2
 Gsolv ref. state (COSMO-RS): gsolv [1 M gas/solution]
 temperature (mdtemp)       :    298.150000000000     
 dielectric constant        :    8.93000000000000     
 rho                        :    1.33000000000000     
 mass                       :    84.9300000000000     
 surface tension            :    15.5689454083859     
 probe radius               :   0.719875900000000     
 Gshift (Eh)                :   4.440829173451759E-003
 c1                         :    1.49173776000000     
 soset                      :   0.000000000000000E+000
 HB correction              :  F
           ------------------------------------------------- 
          |        Self-Consistent Charge Iterations        |
           ------------------------------------------------- 

          ...................................................
          :                      SETUP                      :
          :.................................................:
          :  # basis functions                  69          :
          :  # atomic orbitals                  69          :
          :  # shells                           43          :
          :  # electrons                        72          :
          :  max. iterations                   250          :
          :  Hamiltonian                  GFN2-xTB          :
          :  GBSA solvation                   true          :
          :  PC potential                    false          :
          :  electronic temp.          300.0000000     K    :
          :  accuracy                    1.0000000          :
          :  -> integral cutoff          0.2500000E+02      :
          :  -> integral neglect         0.1000000E-07      :
          :  -> SCF convergence          0.1000000E-05 Eh   :
          :  -> wf. convergence          0.1000000E-03 e    :
          :  Broyden damping             0.4000000          :
          ...................................................
  Checking positiv definite overlap ...  done.
 

 iter      E             dE          RMSdq      gap      omega  full diag
   1    -39.7265825 -0.397266E+02  0.378E+00    3.90       0.0  T
   2    -39.7650993 -0.385168E-01  0.218E+00    3.93       1.0  T
   3    -39.7652285 -0.129231E-03  0.645E-01    3.77       1.0  T
   4    -39.7663891 -0.116058E-02  0.220E-01    3.78       1.0  T
   5    -39.7676550 -0.126594E-02  0.668E-02    3.77       1.0  T
   6    -39.7676802 -0.251891E-04  0.278E-02    3.77       1.0  T
   7    -39.7676811 -0.878122E-06  0.987E-03    3.77       1.8  T
   8    -39.7676820 -0.904989E-06  0.309E-03    3.77       5.9  T
   9    -39.7676821 -0.108640E-06  0.139E-03    3.77      13.2  T
  10    -39.7676821 -0.140469E-08  0.375E-04    3.77      48.7  T
  11    -39.7676821 -0.189617E-08  0.126E-04    3.77     144.9  T

   *** convergence criteria satisfied after 11 iterations ***

         #    Occupation            Energy/Eh            Energy/eV
      -------------------------------------------------------------
         1        2.0000           -0.6925681             -18.8457
       ...           ...                  ...                  ...
        30        2.0000           -0.4345114             -11.8237
        31        2.0000           -0.4252749             -11.5723
        32        2.0000           -0.4219216             -11.4811
        33        2.0000           -0.4120351             -11.2120
        34        2.0000           -0.4071502             -11.0791
        35        2.0000           -0.4035551             -10.9813
        36        2.0000           -0.3696467             -10.0586 (HOMO)
        37                         -0.2310333              -6.2867 (LUMO)
        38                         -0.2283112              -6.2127
        39                         -0.1040485              -2.8313
        40                          0.0179975               0.4897
        41                          0.0274089               0.7458
       ...                                ...                  ...
        69                          0.6422641              17.4769
      -------------------------------------------------------------
                  HL-Gap            0.1386134 Eh            3.7719 eV
             Fermi-level           -0.3003400 Eh           -8.1727 eV

 SCC (total)                   0 d,  0 h,  0 min,  0.039 sec
 SCC setup                      ...        0 min,  0.002 sec (  3.927%)
 Dispersion                     ...        0 min,  0.000 sec (  1.135%)
 integral evaluation            ...        0 min,  0.007 sec ( 18.899%)
 zeroth order Hamiltonian       ...        0 min,  0.000 sec (  0.049%)
 iterations                     ...        0 min,  0.019 sec ( 49.531%)
 molecular gradient             ...        0 min,  0.010 sec ( 24.893%)
 printout                       ...        0 min,  0.001 sec (  1.377%)

         :::::::::::::::::::::::::::::::::::::::::::::::::::::
         ::                     SUMMARY                     ::
         :::::::::::::::::::::::::::::::::::::::::::::::::::::
         :: total energy             -39.212735389866 Eh    ::
         :: total w/o Gsasa/hb       -39.197026623003 Eh    ::
         :: gradient norm              0.021986178398 Eh/a0 ::
         :: HOMO-LUMO gap              3.771861843032 eV    ::
         ::.................................................::
         :: SCC energy               -39.783390899355 Eh    ::
         :: -> isotropic ES            0.041344234007 Eh    ::
         :: -> anisotropic ES          0.005988770186 Eh    ::
         :: -> anisotropic XC          0.022111800452 Eh    ::
         :: -> dispersion             -0.023643439401 Eh    ::
         :: -> Gsolv                  -0.018654078193 Eh    ::
         ::    -> Gborn               -0.002945311330 Eh    ::
         ::    -> Gsasa               -0.020149596037 Eh    ::
         ::    -> Ghb                  0.000000000000 Eh    ::
         ::    -> Gshift               0.004440829173 Eh    ::
         :: repulsion energy           0.570725484180 Eh    ::
         :: add. restraining           0.000000000000 Eh    ::
         :::::::::::::::::::::::::::::::::::::::::::::::::::::

           -------------------------------------------------
          |                Property Printout                |
           -------------------------------------------------

    * Orbital Energies and Occupations

         #    Occupation            Energy/Eh            Energy/eV
      -------------------------------------------------------------
         1        2.0000           -0.6925681             -18.8457
       ...           ...                  ...                  ...
        24        2.0000           -0.4772602             -12.9869
        25        2.0000           -0.4695840             -12.7780
        26        2.0000           -0.4627643             -12.5925
        27        2.0000           -0.4521489             -12.3036
        28        2.0000           -0.4401278             -11.9765
        29        2.0000           -0.4373783             -11.9017
        30        2.0000           -0.4345114             -11.8237
        31        2.0000           -0.4252749             -11.5723
        32        2.0000           -0.4219216             -11.4811
        33        2.0000           -0.4120351             -11.2120
        34        2.0000           -0.4071502             -11.0791
        35        2.0000           -0.4035551             -10.9813
        36        2.0000           -0.3696467             -10.0586 (HOMO)
        37                         -0.2310333              -6.2867 (LUMO)
        38                         -0.2283112              -6.2127
        39                         -0.1040485              -2.8313
        40                          0.0179975               0.4897
        41                          0.0274089               0.7458
        42                          0.0801008               2.1797
        43                          0.0880751               2.3966
        44                          0.1048786               2.8539
        45                          0.1169041               3.1811
        46                          0.1232119               3.3528
        47                          0.1376296               3.7451
       ...                                ...                  ...
        69                          0.6422641              17.4769
      -------------------------------------------------------------
                  HL-Gap            0.1386134 Eh            3.7719 eV
             Fermi-level           -0.3003400 Eh           -8.1727 eV

     #   Z        covCN         q      C6AA      α(0)
     1   6 C      2.914    -0.029    28.721     8.788
     2   6 C      2.919    -0.036    28.900     8.816
     3   6 C      2.968    -0.014    28.365     8.736
     4   6 C      2.918    -0.032    28.792     8.799
     5   6 C      2.915    -0.031    28.769     8.795
     6   6 C      2.915    -0.031    28.762     8.794
     7   1 H      0.925     0.036     2.504     2.475
     8   1 H      0.925     0.040     2.451     2.448
     9   1 H      0.925     0.040     2.453     2.449
    10   7 N      2.681    -0.270    26.991     7.716
    11   6 C      3.737     0.011    20.470     6.456
    12   1 H      0.924     0.035     2.518     2.481
    13   1 H      0.924     0.037     2.493     2.469
    14   1 H      0.860     0.152     1.390     1.847
    15   1 H      0.805     0.292     0.746     1.357
    16   6 C      3.664     0.180    17.968     6.080
    17   1 H      0.924     0.018     2.759     2.598
    18   8 O      1.651    -0.489    22.665     6.427
    19   6 C      3.800    -0.065    21.748     6.640
    20   1 H      0.924     0.043     2.415     2.430
    21   1 H      0.924     0.027     2.623     2.533
    22   1 H      0.925     0.041     2.439     2.442
    23   1 H      0.925     0.038     2.469     2.457
    24   6 C      3.800    -0.053    21.534     6.607
    25   1 H      0.924     0.030     2.587     2.515
    26   1 H      0.924     0.029     2.595     2.519
    27   6 C      3.749    -0.100    22.482     6.762
    28   1 H      0.924     0.034     2.535     2.490
    29   1 H      0.924     0.035     2.511     2.478
    30   1 H      0.924     0.034     2.537     2.491

 Mol. C6AA /au·bohr⁶  :       8213.788299
 Mol. C8AA /au·bohr⁸  :     185392.957090
 Mol. α(0) /au        :        139.896100


Wiberg/Mayer (AO) data.
largest (>0.10) Wiberg bond orders for each atom
          total WBO             WBO to atom ...
     1  C   3.991        C    2 1.446    C    6 1.437    H   22 0.971    C    4 0.112
     2  C   3.991        C    1 1.446    C    3 1.414    H    7 0.969    C    5 0.112
     3  C   3.986        C    4 1.420    C    2 1.414    C   16 0.975    C    6 0.110
     4  C   3.991        C    5 1.440    C    3 1.420    H    8 0.968    C    1 0.112
     5  C   3.991        C    6 1.441    C    4 1.440    H   23 0.971    C    2 0.112
     6  C   3.991        C    5 1.441    C    1 1.437    H    9 0.971    C    3 0.110
     7  H   0.999        C    2 0.969
     8  H   0.998        C    4 0.968
     9  H   0.998        C    6 0.971
    10  N   3.112        C   16 1.035    C   11 1.003    H   14 0.949
    11  C   3.978        N   10 1.003    C   19 0.996    H   12 0.973    H   13 0.971
    12  H   0.999        C   11 0.973
    13  H   0.999        C   11 0.971
    14  H   0.977        N   10 0.949
    15  H   0.915        O   18 0.899
    16  C   3.950        N   10 1.035    C    3 0.975    H   17 0.955    O   18 0.935
    17  H   0.999        C   16 0.955
    18  O   1.932        C   16 0.935    H   15 0.899
    19  C   3.996        C   24 1.007    C   11 0.996    H   21 0.977    H   20 0.975
    20  H   0.998        C   19 0.975
    21  H   0.999        C   19 0.977
    22  H   0.998        C    1 0.971
    23  H   0.998        C    5 0.971
    24  C   3.997        C   27 1.019    C   19 1.007    H   26 0.978    H   25 0.978
    25  H   0.999        C   24 0.978
    26  H   0.999        C   24 0.978
    27  C   3.997        C   24 1.019    H   28 0.988    H   30 0.988    H   29 0.987
    28  H   0.999        C   27 0.988
    29  H   0.998        C   27 0.987
    30  H   0.999        C   27 0.988

molecular dipole:
                 x           y           z       tot (Debye)
 q only:        0.420       0.224       0.061
   full:        0.439       0.063       0.260       1.307
molecular quadrupole (traceless):
                xx          xy          yy          xz          yz          zz
 q only:        1.354      -2.075      -1.525       1.098       0.973       0.171
  q+dip:        0.514      -2.000      -0.226      -0.176       3.881      -0.288
   full:        0.036      -1.938      -1.558       0.735       2.569       1.522

           -------------------------------------------------
          |                Property Printout                |
           -------------------------------------------------

    * Orbital Energies and Occupations

         #    Occupation            Energy/Eh            Energy/eV
      -------------------------------------------------------------
         1        2.0000           -0.6925681             -18.8457
       ...           ...                  ...                  ...
        24        2.0000           -0.4772602             -12.9869
        25        2.0000           -0.4695840             -12.7780
        26        2.0000           -0.4627643             -12.5925
        27        2.0000           -0.4521489             -12.3036
        28        2.0000           -0.4401278             -11.9765
        29        2.0000           -0.4373783             -11.9017
        30        2.0000           -0.4345114             -11.8237
        31        2.0000           -0.4252749             -11.5723
        32        2.0000           -0.4219216             -11.4811
        33        2.0000           -0.4120351             -11.2120
        34        2.0000           -0.4071502             -11.0791
        35        2.0000           -0.4035551             -10.9813
        36        2.0000           -0.3696467             -10.0586 (HOMO)
        37                         -0.2310333              -6.2867 (LUMO)
        38                         -0.2283112              -6.2127
        39                         -0.1040485              -2.8313
        40                          0.0179975               0.4897
        41                          0.0274089               0.7458
        42                          0.0801008               2.1797
        43                          0.0880751               2.3966
        44                          0.1048786               2.8539
        45                          0.1169041               3.1811
        46                          0.1232119               3.3528
        47                          0.1376296               3.7451
       ...                                ...                  ...
        69                          0.6422641              17.4769
      -------------------------------------------------------------
                  HL-Gap            0.1386134 Eh            3.7719 eV
             Fermi-level           -0.3003400 Eh           -8.1727 eV

     #   Z        covCN         q      C6AA      α(0)
     1   6 C      2.914    -0.029    28.721     8.788
     2   6 C      2.919    -0.036    28.900     8.816
     3   6 C      2.968    -0.014    28.365     8.736
     4   6 C      2.918    -0.032    28.792     8.799
     5   6 C      2.915    -0.031    28.769     8.795
     6   6 C      2.915    -0.031    28.762     8.794
     7   1 H      0.925     0.036     2.504     2.475
     8   1 H      0.925     0.040     2.451     2.448
     9   1 H      0.925     0.040     2.453     2.449
    10   7 N      2.681    -0.270    26.991     7.716
    11   6 C      3.737     0.011    20.470     6.456
    12   1 H      0.924     0.035     2.518     2.481
    13   1 H      0.924     0.037     2.493     2.469
    14   1 H      0.860     0.152     1.390     1.847
    15   1 H      0.805     0.292     0.746     1.357
    16   6 C      3.664     0.180    17.968     6.080
    17   1 H      0.924     0.018     2.759     2.598
    18   8 O      1.651    -0.489    22.665     6.427
    19   6 C      3.800    -0.065    21.748     6.640
    20   1 H      0.924     0.043     2.415     2.430
    21   1 H      0.924     0.027     2.623     2.533
    22   1 H      0.925     0.041     2.439     2.442
    23   1 H      0.925     0.038     2.469     2.457
    24   6 C      3.800    -0.053    21.534     6.607
    25   1 H      0.924     0.030     2.587     2.515
    26   1 H      0.924     0.029     2.595     2.519
    27   6 C      3.749    -0.100    22.482     6.762
    28   1 H      0.924     0.034     2.535     2.490
    29   1 H      0.924     0.035     2.511     2.478
    30   1 H      0.924     0.034     2.537     2.491

 Mol. C6AA /au·bohr⁶  :       8213.788299
 Mol. C8AA /au·bohr⁸  :     185392.957090
 Mol. α(0) /au        :        139.896100


Wiberg/Mayer (AO) data.
largest (>0.10) Wiberg bond orders for each atom
          total WBO             WBO to atom ...
     1  C   3.991        C    2 1.446    C    6 1.437    H   22 0.971    C    4 0.112
     2  C   3.991        C    1 1.446    C    3 1.414    H    7 0.969    C    5 0.112
     3  C   3.986        C    4 1.420    C    2 1.414    C   16 0.975    C    6 0.110
     4  C   3.991        C    5 1.440    C    3 1.420    H    8 0.968    C    1 0.112
     5  C   3.991        C    6 1.441    C    4 1.440    H   23 0.971    C    2 0.112
     6  C   3.991        C    5 1.441    C    1 1.437    H    9 0.971    C    3 0.110
     7  H   0.999        C    2 0.969
     8  H   0.998        C    4 0.968
     9  H   0.998        C    6 0.971
    10  N   3.112        C   16 1.035    C   11 1.003    H   14 0.949
    11  C   3.978        N   10 1.003    C   19 0.996    H   12 0.973    H   13 0.971
    12  H   0.999        C   11 0.973
    13  H   0.999        C   11 0.971
    14  H   0.977        N   10 0.949
    15  H   0.915        O   18 0.899
    16  C   3.950        N   10 1.035    C    3 0.975    H   17 0.955    O   18 0.935
    17  H   0.999        C   16 0.955
    18  O   1.932        C   16 0.935    H   15 0.899
    19  C   3.996        C   24 1.007    C   11 0.996    H   21 0.977    H   20 0.975
    20  H   0.998        C   19 0.975
    21  H   0.999        C   19 0.977
    22  H   0.998        C    1 0.971
    23  H   0.998        C    5 0.971
    24  C   3.997        C   27 1.019    C   19 1.007    H   26 0.978    H   25 0.978
    25  H   0.999        C   24 0.978
    26  H   0.999        C   24 0.978
    27  C   3.997        C   24 1.019    H   28 0.988    H   30 0.988    H   29 0.987
    28  H   0.999        C   27 0.988
    29  H   0.998        C   27 0.987
    30  H   0.999        C   27 0.988

molecular dipole:
                 x           y           z       tot (Debye)
 q only:        0.420       0.224       0.061
   full:        0.439       0.063       0.260       1.307
molecular quadrupole (traceless):
                xx          xy          yy          xz          yz          zz
 q only:        1.354      -2.075      -1.525       1.098       0.973       0.171
  q+dip:        0.514      -2.000      -0.226      -0.176       3.881      -0.288
   full:        0.036      -1.938      -1.558       0.735       2.569       1.522


           -------------------------------------------------
          | TOTAL ENERGY              -39.212735389866 Eh   |
          | GRADIENT NORM               0.021986178398 Eh/α |
          | HOMO-LUMO GAP               3.771861843032 eV   |
           -------------------------------------------------

------------------------------------------------------------------------
 * finished run on 2020/08/26 at 04:39:12.884     
------------------------------------------------------------------------
 total:
 * wall-time:     0 d,  0 h,  0 min,  0.106 sec
 *  cpu-time:     0 d,  0 h,  0 min,  0.753 sec
 * ratio c/w:     7.107 speedup
 SCF:
 * wall-time:     0 d,  0 h,  0 min,  0.039 sec
 *  cpu-time:     0 d,  0 h,  0 min,  0.294 sec
 * ratio c/w:     7.508 speedup


-------------------------   --------------------
FINAL SINGLE POINT ENERGY       -39.212735389870
-------------------------   --------------------


----------------------------------------------------------------------------
                           ORCA NUMERICAL FREQUENCIES
                              (8-process run)
----------------------------------------------------------------------------

Number of atoms                ... 30
Central differences            ... used
Number of displacements        ... 180
Numerical increment            ... 5.000e-03 bohr
IR-spectrum generation         ... on
Raman-spectrum generation      ... off
Surface Crossing Hessian       ... off
List of participating nodes    ...  /tmp/slurm-scratch/freq.148/freq.hostnames

The output will be reduced. Please look at the following files:
SCF program output             ... >/tmp/slurm-scratch/freq.148/freq.lastscf
Integral program output        ... >/tmp/slurm-scratch/freq.148/freq.lastint
Gradient program output        ... >/tmp/slurm-scratch/freq.148/freq.lastgrad
Dipole moment program output   ... >/tmp/slurm-scratch/freq.148/freq.lastmom
AutoCI program output          ... >/tmp/slurm-scratch/freq.148/freq.lastautoci


         <<< Energy and Gradient at the input geometry >>>

        <<< Energy and Gradient at displaced geometries >>>
             <<<Displacing   3/coordinate 2 (+)>>>
             <<<Displacing   3/coordinate 1 (+)>>>
             <<<Displacing   1/coordinate 3 (+)>>>
             <<<Displacing   2/coordinate 2 (+)>>>
             <<<Displacing   3/coordinate 2 (-)>>>
             <<<Displacing   3/coordinate 1 (-)>>>
             <<<Displacing   2/coordinate 2 (-)>>>
             <<<Displacing   1/coordinate 3 (-)>>>
             <<<Displacing   1/coordinate 2 (+)>>>
             <<<Displacing   1/coordinate 2 (-)>>>
             <<<Displacing   2/coordinate 1 (+)>>>
             <<<Displacing   2/coordinate 1 (-)>>>
             <<<Displacing   1/coordinate 1 (+)>>>
             <<<Displacing   1/coordinate 1 (-)>>>
             <<<Displacing   2/coordinate 3 (+)>>>
             <<<Displacing   2/coordinate 3 (-)>>>
             <<<Displacing   3/coordinate 3 (+)>>>
             <<<Displacing   3/coordinate 3 (-)>>>
             <<<Displacing   4/coordinate 3 (+)>>>
             <<<Displacing   4/coordinate 3 (-)>>>
             <<<Displacing   4/coordinate 2 (+)>>>
             <<<Displacing   4/coordinate 2 (-)>>>
             <<<Displacing   4/coordinate 1 (+)>>>
             <<<Displacing   5/coordinate 1 (+)>>>
             <<<Displacing   4/coordinate 1 (-)>>>
             <<<Displacing   5/coordinate 1 (-)>>>
             <<<Displacing   5/coordinate 3 (+)>>>
             <<<Displacing   6/coordinate 1 (+)>>>
             <<<Displacing   5/coordinate 3 (-)>>>
             <<<Displacing   6/coordinate 1 (-)>>>
             <<<Displacing   5/coordinate 2 (+)>>>
             <<<Displacing   5/coordinate 2 (-)>>>
             <<<Displacing   6/coordinate 2 (+)>>>
             <<<Displacing   6/coordinate 2 (-)>>>
             <<<Displacing   7/coordinate 2 (+)>>>
             <<<Displacing   7/coordinate 2 (-)>>>
             <<<Displacing   6/coordinate 3 (+)>>>
             <<<Displacing   7/coordinate 3 (+)>>>
             <<<Displacing   6/coordinate 3 (-)>>>
             <<<Displacing   7/coordinate 3 (-)>>>
             <<<Displacing   7/coordinate 1 (+)>>>
             <<<Displacing   8/coordinate 1 (+)>>>
             <<<Displacing   7/coordinate 1 (-)>>>
             <<<Displacing   8/coordinate 1 (-)>>>
             <<<Displacing   8/coordinate 2 (+)>>>
             <<<Displacing   8/coordinate 2 (-)>>>
             <<<Displacing   8/coordinate 3 (+)>>>
             <<<Displacing   8/coordinate 3 (-)>>>
             <<<Displacing   9/coordinate 2 (+)>>>
             <<<Displacing   9/coordinate 2 (-)>>>
             <<<Displacing   9/coordinate 1 (+)>>>
             <<<Displacing   9/coordinate 1 (-)>>>
             <<<Displacing  10/coordinate 1 (+)>>>
             <<<Displacing   9/coordinate 3 (+)>>>
             <<<Displacing  10/coordinate 1 (-)>>>
             <<<Displacing   9/coordinate 3 (-)>>>
             <<<Displacing  10/coordinate 2 (+)>>>
             <<<Displacing  10/coordinate 2 (-)>>>
             <<<Displacing  11/coordinate 1 (+)>>>
             <<<Displacing  10/coordinate 3 (+)>>>
             <<<Displacing  11/coordinate 1 (-)>>>
             <<<Displacing  11/coordinate 2 (+)>>>
             <<<Displacing  10/coordinate 3 (-)>>>
             <<<Displacing  11/coordinate 2 (-)>>>
             <<<Displacing  11/coordinate 3 (+)>>>
             <<<Displacing  11/coordinate 3 (-)>>>
             <<<Displacing  12/coordinate 1 (+)>>>
             <<<Displacing  12/coordinate 2 (+)>>>
             <<<Displacing  12/coordinate 1 (-)>>>
             <<<Displacing  12/coordinate 2 (-)>>>
             <<<Displacing  12/coordinate 3 (+)>>>
             <<<Displacing  12/coordinate 3 (-)>>>
             <<<Displacing  13/coordinate 2 (+)>>>
             <<<Displacing  13/coordinate 2 (-)>>>
             <<<Displacing  13/coordinate 3 (+)>>>
             <<<Displacing  13/coordinate 3 (-)>>>
             <<<Displacing  14/coordinate 1 (+)>>>
             <<<Displacing  13/coordinate 1 (+)>>>
             <<<Displacing  14/coordinate 1 (-)>>>
             <<<Displacing  13/coordinate 1 (-)>>>
             <<<Displacing  14/coordinate 3 (+)>>>
             <<<Displacing  14/coordinate 3 (-)>>>
             <<<Displacing  14/coordinate 2 (+)>>>
             <<<Displacing  15/coordinate 1 (+)>>>
             <<<Displacing  15/coordinate 2 (+)>>>
             <<<Displacing  14/coordinate 2 (-)>>>
             <<<Displacing  15/coordinate 1 (-)>>>
             <<<Displacing  15/coordinate 2 (-)>>>
             <<<Displacing  15/coordinate 3 (+)>>>
             <<<Displacing  15/coordinate 3 (-)>>>
             <<<Displacing  16/coordinate 1 (+)>>>
             <<<Displacing  16/coordinate 1 (-)>>>
             <<<Displacing  16/coordinate 3 (+)>>>
             <<<Displacing  16/coordinate 3 (-)>>>
             <<<Displacing  16/coordinate 2 (+)>>>
             <<<Displacing  16/coordinate 2 (-)>>>
             <<<Displacing  17/coordinate 1 (+)>>>
             <<<Displacing  17/coordinate 1 (-)>>>
             <<<Displacing  17/coordinate 2 (+)>>>
             <<<Displacing  17/coordinate 3 (+)>>>
             <<<Displacing  17/coordinate 2 (-)>>>
             <<<Displacing  17/coordinate 3 (-)>>>
             <<<Displacing  18/coordinate 1 (+)>>>
             <<<Displacing  18/coordinate 1 (-)>>>
             <<<Displacing  18/coordinate 2 (+)>>>
             <<<Displacing  18/coordinate 2 (-)>>>
             <<<Displacing  18/coordinate 3 (+)>>>
             <<<Displacing  19/coordinate 1 (+)>>>
             <<<Displacing  18/coordinate 3 (-)>>>
             <<<Displacing  19/coordinate 1 (-)>>>
             <<<Displacing  19/coordinate 2 (+)>>>
             <<<Displacing  19/coordinate 2 (-)>>>
             <<<Displacing  20/coordinate 1 (+)>>>
             <<<Displacing  20/coordinate 1 (-)>>>
             <<<Displacing  19/coordinate 3 (+)>>>
             <<<Displacing  19/coordinate 3 (-)>>>
             <<<Displacing  20/coordinate 2 (+)>>>
             <<<Displacing  20/coordinate 3 (+)>>>
             <<<Displacing  20/coordinate 2 (-)>>>
             <<<Displacing  20/coordinate 3 (-)>>>
             <<<Displacing  21/coordinate 1 (+)>>>
             <<<Displacing  21/coordinate 1 (-)>>>
             <<<Displacing  21/coordinate 2 (+)>>>
             <<<Displacing  21/coordinate 2 (-)>>>
             <<<Displacing  21/coordinate 3 (+)>>>
             <<<Displacing  21/coordinate 3 (-)>>>
             <<<Displacing  22/coordinate 2 (+)>>>
             <<<Displacing  22/coordinate 2 (-)>>>
             <<<Displacing  22/coordinate 3 (+)>>>
             <<<Displacing  22/coordinate 3 (-)>>>
             <<<Displacing  22/coordinate 1 (+)>>>
             <<<Displacing  22/coordinate 1 (-)>>>
             <<<Displacing  23/coordinate 1 (+)>>>
             <<<Displacing  23/coordinate 1 (-)>>>
             <<<Displacing  23/coordinate 3 (+)>>>
             <<<Displacing  23/coordinate 2 (+)>>>
             <<<Displacing  23/coordinate 3 (-)>>>
             <<<Displacing  23/coordinate 2 (-)>>>
             <<<Displacing  24/coordinate 1 (+)>>>
             <<<Displacing  24/coordinate 1 (-)>>>
             <<<Displacing  24/coordinate 2 (+)>>>
             <<<Displacing  24/coordinate 2 (-)>>>
             <<<Displacing  25/coordinate 1 (+)>>>
             <<<Displacing  24/coordinate 3 (+)>>>
             <<<Displacing  25/coordinate 2 (+)>>>
             <<<Displacing  25/coordinate 1 (-)>>>
             <<<Displacing  24/coordinate 3 (-)>>>
             <<<Displacing  25/coordinate 2 (-)>>>
             <<<Displacing  26/coordinate 1 (+)>>>
             <<<Displacing  25/coordinate 3 (+)>>>
             <<<Displacing  26/coordinate 2 (+)>>>
             <<<Displacing  25/coordinate 3 (-)>>>
             <<<Displacing  26/coordinate 1 (-)>>>
             <<<Displacing  26/coordinate 2 (-)>>>
             <<<Displacing  26/coordinate 3 (+)>>>
             <<<Displacing  26/coordinate 3 (-)>>>
             <<<Displacing  27/coordinate 1 (+)>>>
             <<<Displacing  27/coordinate 1 (-)>>>
             <<<Displacing  27/coordinate 2 (+)>>>
             <<<Displacing  27/coordinate 2 (-)>>>
             <<<Displacing  27/coordinate 3 (+)>>>
             <<<Displacing  27/coordinate 3 (-)>>>
             <<<Displacing  28/coordinate 1 (+)>>>
             <<<Displacing  28/coordinate 1 (-)>>>
             <<<Displacing  28/coordinate 2 (+)>>>
             <<<Displacing  28/coordinate 2 (-)>>>
             <<<Displacing  28/coordinate 3 (+)>>>
             <<<Displacing  29/coordinate 2 (+)>>>
             <<<Displacing  28/coordinate 3 (-)>>>
             <<<Displacing  29/coordinate 1 (+)>>>
             <<<Displacing  29/coordinate 2 (-)>>>
             <<<Displacing  29/coordinate 1 (-)>>>
             <<<Displacing  29/coordinate 3 (+)>>>
             <<<Displacing  29/coordinate 3 (-)>>>
             <<<Displacing  30/coordinate 1 (+)>>>
             <<<Displacing  30/coordinate 2 (+)>>>
             <<<Displacing  30/coordinate 1 (-)>>>
             <<<Displacing  30/coordinate 2 (-)>>>
             <<<Displacing  30/coordinate 3 (+)>>>
             <<<Displacing  30/coordinate 3 (-)>>>

-----------------------
VIBRATIONAL FREQUENCIES
-----------------------

Scaling factor for frequencies =  1.000000000 (already applied!)

   0:         0.00 cm**-1
   1:         0.00 cm**-1
   2:         0.00 cm**-1
   3:         0.00 cm**-1
   4:         0.00 cm**-1
   5:         0.00 cm**-1
   6:        42.22 cm**-1
   7:        61.32 cm**-1
   8:        64.02 cm**-1
   9:        84.69 cm**-1
  10:       106.66 cm**-1
  11:       124.76 cm**-1
  12:       192.27 cm**-1
  13:       214.16 cm**-1
  14:       239.60 cm**-1
  15:       263.82 cm**-1
  16:       294.07 cm**-1
  17:       306.93 cm**-1
  18:       344.32 cm**-1
  19:       381.93 cm**-1
  20:       402.61 cm**-1
  21:       434.17 cm**-1
  22:       511.88 cm**-1
  23:       525.65 cm**-1
  24:       588.92 cm**-1
  25:       620.09 cm**-1
  26:       676.48 cm**-1
  27:       717.85 cm**-1
  28:       763.89 cm**-1
  29:       768.33 cm**-1
  30:       813.44 cm**-1
  31:       846.49 cm**-1
  32:       887.10 cm**-1
  33:       908.13 cm**-1
  34:       925.27 cm**-1
  35:       934.37 cm**-1
  36:       938.02 cm**-1
  37:       938.28 cm**-1
  38:       945.66 cm**-1
  39:       984.53 cm**-1
  40:      1006.53 cm**-1
  41:      1048.01 cm**-1
  42:      1070.55 cm**-1
  43:      1095.88 cm**-1
  44:      1110.07 cm**-1
  45:      1117.38 cm**-1
  46:      1121.03 cm**-1
  47:      1128.83 cm**-1
  48:      1176.42 cm**-1
  49:      1186.09 cm**-1
  50:      1198.49 cm**-1
  51:      1205.03 cm**-1
  52:      1240.28 cm**-1
  53:      1256.95 cm**-1
  54:      1258.08 cm**-1
  55:      1275.43 cm**-1
  56:      1279.36 cm**-1
  57:      1280.33 cm**-1
  58:      1297.38 cm**-1
  59:      1305.69 cm**-1
  60:      1338.37 cm**-1
  61:      1369.78 cm**-1
  62:      1397.90 cm**-1
  63:      1424.28 cm**-1
  64:      1428.48 cm**-1
  65:      1461.66 cm**-1
  66:      1485.54 cm**-1
  67:      1503.45 cm**-1
  68:      1507.13 cm**-1
  69:      1508.08 cm**-1
  70:      1513.44 cm**-1
  71:      1568.10 cm**-1
  72:      1576.65 cm**-1
  73:      2916.97 cm**-1
  74:      2932.42 cm**-1
  75:      2934.98 cm**-1
  76:      2943.24 cm**-1
  77:      2959.81 cm**-1
  78:      2965.91 cm**-1
  79:      2978.92 cm**-1
  80:      2983.32 cm**-1
  81:      2996.57 cm**-1
  82:      3004.46 cm**-1
  83:      3047.04 cm**-1
  84:      3051.85 cm**-1
  85:      3057.96 cm**-1
  86:      3067.54 cm**-1
  87:      3074.61 cm**-1
  88:      3392.72 cm**-1
  89:      3510.45 cm**-1


------------
NORMAL MODES
------------

These modes are the cartesian displacements weighted by the diagonal matrix
M(i,i)=1/sqrt(m[i]) where m[i] is the mass of the displaced atom
Thus, these vectors are normalized but *not* orthogonal

                  0          1          2          3          4          5    
      0       0.000000   0.000000   0.000000   0.000000   0.000000   0.000000
      1       0.000000   0.000000   0.000000   0.000000   0.000000   0.000000
      2       0.000000   0.000000   0.000000   0.000000   0.000000   0.000000
      3       0.000000   0.000000   0.000000   0.000000   0.000000   0.000000
      4       0.000000   0.000000   0.000000   0.000000   0.000000   0.000000
      5       0.000000   0.000000   0.000000   0.000000   0.000000   0.000000
      6       0.000000   0.000000   0.000000   0.000000   0.000000   0.000000
      7       0.000000   0.000000   0.000000   0.000000   0.000000   0.000000
      8       0.000000   0.000000   0.000000   0.000000   0.000000   0.000000
      9       0.000000   0.000000   0.000000   0.000000   0.000000   0.000000
     10       0.000000   0.000000   0.000000   0.000000   0.000000   0.000000
     11       0.000000   0.000000   0.000000   0.000000   0.000000   0.000000
     12       0.000000   0.000000   0.000000   0.000000   0.000000   0.000000
     13       0.000000   0.000000   0.000000   0.000000   0.000000   0.000000
     14       0.000000   0.000000   0.000000   0.000000   0.000000   0.000000
     15       0.000000   0.000000   0.000000   0.000000   0.000000   0.000000
     16       0.000000   0.000000   0.000000   0.000000   0.000000   0.000000
     17       0.000000   0.000000   0.000000   0.000000   0.000000   0.000000
     18       0.000000   0.000000   0.000000   0.000000   0.000000   0.000000
     19       0.000000   0.000000   0.000000   0.000000   0.000000   0.000000
     20       0.000000   0.000000   0.000000   0.000000   0.000000   0.000000
     21       0.000000   0.000000   0.000000   0.000000   0.000000   0.000000
     22       0.000000   0.000000   0.000000   0.000000   0.000000   0.000000
     23       0.000000   0.000000   0.000000   0.000000   0.000000   0.000000
     24       0.000000   0.000000   0.000000   0.000000   0.000000   0.000000
     25       0.000000   0.000000   0.000000   0.000000   0.000000   0.000000
     26       0.000000   0.000000   0.000000   0.000000   0.000000   0.000000
     27       0.000000   0.000000   0.000000   0.000000   0.000000   0.000000
     28       0.000000   0.000000   0.000000   0.000000   0.000000   0.000000
     29       0.000000   0.000000   0.000000   0.000000   0.000000   0.000000
     30       0.000000   0.000000   0.000000   0.000000   0.000000   0.000000
     31       0.000000   0.000000   0.000000   0.000000   0.000000   0.000000
     32       0.000000   0.000000   0.000000   0.000000   0.000000   0.000000
     33       0.000000   0.000000   0.000000   0.000000   0.000000   0.000000
     34       0.000000   0.000000   0.000000   0.000000   0.000000   0.000000
     35       0.000000   0.000000   0.000000   0.000000   0.000000   0.000000
     36       0.000000   0.000000   0.000000   0.000000   0.000000   0.000000
     37       0.000000   0.000000   0.000000   0.000000   0.000000   0.000000
     38       0.000000   0.000000   0.000000   0.000000   0.000000   0.000000
     39       0.000000   0.000000   0.000000   0.000000   0.000000   0.000000
     40       0.000000   0.000000   0.000000   0.000000   0.000000   0.000000
     41       0.000000   0.000000   0.000000   0.000000   0.000000   0.000000
     42       0.000000   0.000000   0.000000   0.000000   0.000000   0.000000
     43       0.000000   0.000000   0.000000   0.000000   0.000000   0.000000
     44       0.000000   0.000000   0.000000   0.000000   0.000000   0.000000
     45       0.000000   0.000000   0.000000   0.000000   0.000000   0.000000
     46       0.000000   0.000000   0.000000   0.000000   0.000000   0.000000
     47       0.000000   0.000000   0.000000   0.000000   0.000000   0.000000
     48       0.000000   0.000000   0.000000   0.000000   0.000000   0.000000
     49       0.000000   0.000000   0.000000   0.000000   0.000000   0.000000
     50       0.000000   0.000000   0.000000   0.000000   0.000000   0.000000
     51       0.000000   0.000000   0.000000   0.000000   0.000000   0.000000
     52       0.000000   0.000000   0.000000   0.000000   0.000000   0.000000
     53       0.000000   0.000000   0.000000   0.000000   0.000000   0.000000
     54       0.000000   0.000000   0.000000   0.000000   0.000000   0.000000
     55       0.000000   0.000000   0.000000   0.000000   0.000000   0.000000
     56       0.000000   0.000000   0.000000   0.000000   0.000000   0.000000
     57       0.000000   0.000000   0.000000   0.000000   0.000000   0.000000
     58       0.000000   0.000000   0.000000   0.000000   0.000000   0.000000
     59       0.000000   0.000000   0.000000   0.000000   0.000000   0.000000
     60       0.000000   0.000000   0.000000   0.000000   0.000000   0.000000
     61       0.000000   0.000000   0.000000   0.000000   0.000000   0.000000
     62       0.000000   0.000000   0.000000   0.000000   0.000000   0.000000
     63       0.000000   0.000000   0.000000   0.000000   0.000000   0.000000
     64       0.000000   0.000000   0.000000   0.000000   0.000000   0.000000
     65       0.000000   0.000000   0.000000   0.000000   0.000000   0.000000
     66       0.000000   0.000000   0.000000   0.000000   0.000000   0.000000
     67       0.000000   0.000000   0.000000   0.000000   0.000000   0.000000
     68       0.000000   0.000000   0.000000   0.000000   0.000000   0.000000
     69       0.000000   0.000000   0.000000   0.000000   0.000000   0.000000
     70       0.000000   0.000000   0.000000   0.000000   0.000000   0.000000
     71       0.000000   0.000000   0.000000   0.000000   0.000000   0.000000
     72       0.000000   0.000000   0.000000   0.000000   0.000000   0.000000
     73       0.000000   0.000000   0.000000   0.000000   0.000000   0.000000
     74       0.000000   0.000000   0.000000   0.000000   0.000000   0.000000
     75       0.000000   0.000000   0.000000   0.000000   0.000000   0.000000
     76       0.000000   0.000000   0.000000   0.000000   0.000000   0.000000
     77       0.000000   0.000000   0.000000   0.000000   0.000000   0.000000
     78       0.000000   0.000000   0.000000   0.000000   0.000000   0.000000
     79       0.000000   0.000000   0.000000   0.000000   0.000000   0.000000
     80       0.000000   0.000000   0.000000   0.000000   0.000000   0.000000
     81       0.000000   0.000000   0.000000   0.000000   0.000000   0.000000
     82       0.000000   0.000000   0.000000   0.000000   0.000000   0.000000
     83       0.000000   0.000000   0.000000   0.000000   0.000000   0.000000
     84       0.000000   0.000000   0.000000   0.000000   0.000000   0.000000
     85       0.000000   0.000000   0.000000   0.000000   0.000000   0.000000
     86       0.000000   0.000000   0.000000   0.000000   0.000000   0.000000
     87       0.000000   0.000000   0.000000   0.000000   0.000000   0.000000
     88       0.000000   0.000000   0.000000   0.000000   0.000000   0.000000
     89       0.000000   0.000000   0.000000   0.000000   0.000000   0.000000
                  6          7          8          9         10         11    
      0       0.031525  -0.073826  -0.029546  -0.004905  -0.082695   0.047854
      1      -0.061040   0.069414   0.047341  -0.023548   0.022946  -0.007182
      2      -0.095562  -0.149388  -0.101811  -0.003091  -0.046515   0.029403
      3       0.046816  -0.076709  -0.011090  -0.005842  -0.045906   0.036900
      4      -0.001157   0.024779   0.007167  -0.007769  -0.017931   0.005719
      5      -0.050987  -0.153281  -0.022272  -0.010516   0.100380  -0.012553
      6       0.003946   0.000747   0.021766  -0.014063  -0.024116   0.023071
      7       0.025841  -0.041651  -0.020532  -0.001845  -0.034512   0.016099
      8       0.016627   0.006116   0.041192  -0.003660   0.142478  -0.041283
      9      -0.055881   0.078978   0.036240  -0.023486  -0.041728   0.023684
     10      -0.007899  -0.058546  -0.007423  -0.010015  -0.015781   0.016590
     11       0.035286   0.159863   0.023121   0.007534   0.069023  -0.043901
     12      -0.070817   0.083265   0.017146  -0.022177  -0.079495   0.034946
     13      -0.067939  -0.014831   0.032869  -0.025996   0.026666   0.002786
     14      -0.009171   0.164095  -0.057906   0.016481  -0.078758  -0.000997
     15      -0.027111   0.007387  -0.015852  -0.012716  -0.105121   0.049937
     16      -0.095250   0.047652   0.060235  -0.032733   0.049419  -0.010584
     17      -0.073284   0.012425  -0.120895   0.012314  -0.149749   0.041682
     18       0.091215  -0.140586  -0.022368  -0.000543  -0.038471   0.040911
     19       0.024194   0.037229  -0.001872  -0.002099  -0.035727   0.008124
     20      -0.066875  -0.271832  -0.010844  -0.020461   0.159906  -0.013804
     21      -0.089970   0.137447   0.062860  -0.032415  -0.029972   0.016643
     22       0.014095  -0.104607  -0.028305  -0.003750  -0.025745   0.022609
     23       0.085683   0.270525   0.071092   0.008190   0.106962  -0.069625
     24      -0.038567   0.011150  -0.030753  -0.011312  -0.137895   0.060137
     25      -0.142736   0.081937   0.091864  -0.044501   0.086942  -0.023311
     26      -0.106818   0.019125  -0.185533   0.020332  -0.284878   0.084081
     27      -0.008362   0.001375   0.007701  -0.000533   0.093004  -0.040121
     28       0.133932   0.058684  -0.095176   0.119117  -0.002688   0.022171
     29       0.097970   0.039159   0.102463   0.008533   0.042250   0.043693
     30      -0.019877   0.003785   0.019458  -0.006608   0.085824  -0.045999
     31       0.069916   0.053964  -0.047364   0.085769   0.006327  -0.018051
     32       0.144440   0.080598   0.086809   0.025752  -0.099747   0.107501
     33      -0.054031   0.010696   0.038209  -0.004673   0.009407  -0.054461
     34      -0.087308  -0.053420   0.003448   0.154804   0.002199  -0.182383
     35       0.279126   0.176489   0.043413  -0.034788  -0.103375   0.251137
     36      -0.027981   0.008957   0.041049  -0.046597   0.170876  -0.044328
     37       0.233688   0.180075  -0.091273  -0.006896   0.009678   0.168686
     38       0.238673   0.150092   0.054245  -0.011811  -0.125877   0.210769
     39       0.001926  -0.006664  -0.009905   0.003572   0.159553  -0.042846
     40       0.177024   0.132221  -0.122053   0.169007   0.014697   0.060258
     41       0.053717  -0.041814   0.128066  -0.045431   0.038519   0.002869
     42      -0.013280  -0.025013   0.082701  -0.038046  -0.130543   0.073185
     43       0.117720  -0.236231  -0.019395  -0.119726  -0.061608   0.005020
     44       0.091387  -0.122616   0.121928  -0.116761   0.087477  -0.004943
     45       0.021661  -0.001919   0.031331  -0.013627  -0.025493   0.027306
     46       0.095234  -0.083457  -0.052535   0.007280  -0.035817   0.010026
     47       0.071000   0.013635   0.094480  -0.004322   0.110898  -0.002372
     48       0.088407   0.000575   0.030161  -0.000837  -0.061673   0.055748
     49       0.102672  -0.159822  -0.040854  -0.046252  -0.043525  -0.001037
     50       0.077820   0.113696   0.078518   0.068015   0.111222   0.019309
     51      -0.012071  -0.011297   0.069553  -0.038605  -0.087253   0.059338
     52       0.119859  -0.154596  -0.047679  -0.040491  -0.039036  -0.000242
     53       0.091006  -0.121432   0.126912  -0.106775   0.062629   0.003412
     54       0.023882  -0.006499  -0.029418   0.045854   0.081222  -0.061992
     55      -0.012882   0.031286   0.002900   0.068072  -0.001863  -0.057575
     56      -0.085546  -0.070603   0.138341   0.151595  -0.179571  -0.129743
     57       0.036111   0.015096  -0.173733  -0.033034   0.100105  -0.127610
     58      -0.176419  -0.113284   0.139170   0.272866  -0.067242  -0.185766
     59      -0.173949  -0.151871   0.249583   0.279264  -0.218553  -0.177241
     60       0.060348  -0.041186   0.070439   0.198688   0.059214  -0.016750
     61       0.140564   0.147791  -0.119867  -0.082850   0.052372   0.049539
     62      -0.222858  -0.185356   0.270477   0.318923  -0.233638  -0.220989
     63       0.065278  -0.132796  -0.054779   0.002790  -0.095917   0.055602
     64      -0.081183   0.119909   0.068692  -0.028589   0.035579  -0.014730
     65      -0.146650  -0.270168  -0.150159  -0.008351  -0.092836   0.058420
     66      -0.115986   0.143454   0.028062  -0.029033  -0.090127   0.032532
     67      -0.093275  -0.029617   0.042541  -0.032504   0.045753   0.000013
     68       0.006582   0.282941  -0.072001   0.026564  -0.147210   0.003882
     69       0.005155   0.001081  -0.025151   0.006064   0.088821  -0.059368
     70      -0.077852   0.048815   0.037746  -0.048270   0.007882  -0.034586
     71      -0.014375   0.044800  -0.148841  -0.116409  -0.100931  -0.160450
     72      -0.021952  -0.041232   0.141328   0.067321  -0.002066  -0.093697
     73       0.034148   0.136981  -0.063209  -0.289557  -0.100876  -0.225438
     74       0.050081   0.101075  -0.243910  -0.255751  -0.132390  -0.248462
     75      -0.018654   0.051388  -0.134740  -0.144411   0.165715  -0.006250
     76      -0.182830  -0.018965   0.128292   0.120525   0.097520   0.130671
     77       0.083889   0.118995  -0.254726  -0.304825  -0.175038  -0.311380
     78       0.053293  -0.001563  -0.094205   0.083384   0.118127  -0.082009
     79      -0.148032   0.040339   0.089447  -0.079094   0.036244   0.049042
     80      -0.149137  -0.004090  -0.181474   0.042509   0.135538   0.138406
     81       0.067568   0.021832  -0.228164   0.052645   0.200900  -0.075747
     82      -0.242586  -0.023325   0.156965   0.125687   0.166564   0.274476
     83      -0.199125  -0.040652  -0.119836   0.150756   0.182986   0.249095
     84       0.038816   0.001742  -0.084192   0.053291   0.115528  -0.072580
     85      -0.191260   0.048505   0.122966  -0.162738   0.027749   0.078457
     86      -0.114875   0.049078  -0.336752  -0.104161   0.170205   0.071214
     87       0.088514  -0.030134  -0.021947   0.202894   0.062003  -0.117248
     88      -0.060981   0.089649   0.026622  -0.223952  -0.066700  -0.139179
     89      -0.230881  -0.055745  -0.111675   0.198196   0.230627   0.319776
                 12         13         14         15         16         17    
      0       0.053513  -0.018730  -0.115542  -0.002998   0.005980   0.019890
      1      -0.020501   0.020598   0.022461   0.001067  -0.003685  -0.000513
      2      -0.028902   0.010606   0.014489  -0.001961  -0.020343  -0.012987
      3       0.070958  -0.013261  -0.150936  -0.006334  -0.007357   0.014020
      4       0.084318  -0.085653   0.030243  -0.006562  -0.041409   0.022058
      5       0.032553   0.039716  -0.155717  -0.014854  -0.062190  -0.029351
      6       0.008592   0.023797  -0.080113  -0.000696   0.005334   0.006936
      7       0.129096  -0.115226  -0.013351  -0.011278  -0.056432   0.022825
      8       0.071343   0.002711  -0.109983  -0.007668  -0.013998   0.001921
      9      -0.080432   0.101619  -0.111370   0.006107   0.043673  -0.008171
     10       0.085498  -0.082291   0.004010  -0.006197  -0.025181   0.027890
     11       0.084073   0.003936  -0.178945  -0.015393  -0.074995  -0.025254
     12      -0.108520   0.108158  -0.070126   0.011296   0.066225  -0.006451
     13      -0.017832   0.021517   0.001136   0.000847   0.007232   0.004811
     14       0.026886  -0.026914  -0.008670  -0.002390  -0.031288  -0.010989
     15      -0.042949   0.041640  -0.061306   0.009346   0.067127   0.017446
     16      -0.061282   0.071092  -0.016632   0.001340   0.002110  -0.014427
     17      -0.038351  -0.053289   0.192072   0.013193   0.043076   0.022480
     18       0.142475  -0.060183  -0.215188  -0.013664  -0.030245   0.026016
     19       0.116018  -0.116442   0.027049  -0.007577  -0.042956   0.034193
     20       0.032092   0.069249  -0.232682  -0.021295  -0.086175  -0.047102
     21      -0.149121   0.167886  -0.130297   0.011872   0.075793  -0.025100
     22       0.132311  -0.129301   0.021970  -0.010021  -0.047002   0.040551
     23       0.126379  -0.004039  -0.261853  -0.023933  -0.123322  -0.018797
     24      -0.061207   0.031436  -0.002529   0.014357   0.088163   0.026327
     25      -0.126347   0.144575  -0.048956   0.003163   0.010539  -0.035727
     26      -0.094587  -0.108340   0.424419   0.032275   0.123995   0.060979
     27       0.038870   0.025259   0.027697   0.001422   0.023104   0.009986
     28       0.097364   0.094572   0.004245   0.023770   0.151912  -0.003210
     29       0.011035  -0.060536   0.026762   0.019592   0.123928   0.022347
     30      -0.012567   0.002018   0.055289  -0.005909  -0.043624   0.005944
     31      -0.130679  -0.065856  -0.028856   0.000171   0.014683  -0.006406
     32      -0.031106   0.100225   0.071244  -0.004387  -0.164767  -0.003975
     33      -0.120127   0.017274   0.052083  -0.028428  -0.247245  -0.006967
     34      -0.083422  -0.152912  -0.094296   0.025386   0.203097   0.012949
     35      -0.081308   0.179347   0.129194  -0.028705  -0.349567  -0.021459
     36      -0.061254  -0.125088  -0.001116  -0.000644   0.077176   0.022935
     37      -0.226485   0.005155   0.027817  -0.035101  -0.237255  -0.023953
     38      -0.068570   0.182651   0.121417  -0.025733  -0.344768  -0.019316
     39       0.190225   0.023061   0.035110   0.023169   0.231349   0.036192
     40       0.185295   0.126341   0.030450   0.049309   0.351827   0.020772
     41      -0.051050  -0.098145   0.000353  -0.003232  -0.045042   0.004065
     42       0.063690  -0.448721   0.125984   0.001640   0.100773  -0.708503
     43      -0.162743   0.169000   0.000192  -0.008074  -0.124463   0.469418
     44      -0.164004   0.087110   0.025242   0.005832  -0.006375   0.491906
     45       0.000506   0.011434  -0.012946   0.002690   0.010090   0.000471
     46       0.063074   0.018579  -0.023560   0.000321  -0.000508  -0.018173
     47       0.031516  -0.056972   0.021527   0.013628   0.104993   0.022607
     48      -0.098648   0.122058   0.023331   0.022268   0.101810  -0.019101
     49      -0.021915   0.074517  -0.018268  -0.003688  -0.045890  -0.042724
     50       0.116324  -0.097626   0.022581   0.023779   0.186515   0.042621
     51       0.057781  -0.255746   0.027496  -0.007892  -0.017795   0.008451
     52      -0.059015   0.150525  -0.007453   0.003552  -0.013923  -0.059982
     53      -0.148058  -0.038573   0.087853   0.013375   0.082990  -0.027662
     54       0.052089   0.062246   0.145359   0.003994  -0.020550  -0.009792
     55      -0.180930  -0.129897  -0.086897  -0.004567  -0.003696   0.005462
     56       0.036656   0.070240   0.018137   0.021787  -0.037811   0.001026
     57       0.056729   0.030002   0.138622  -0.032079   0.057726  -0.018445
     58      -0.136738  -0.137080  -0.114942   0.064928   0.069652   0.001610
     59       0.055932   0.071502   0.003463   0.068079  -0.021153   0.001423
     60       0.028370   0.085826   0.161171   0.051544  -0.054150  -0.014726
     61      -0.210899  -0.113770  -0.048892  -0.057491  -0.054060   0.000947
     62       0.063490   0.060817  -0.013443   0.080167   0.004392   0.004655
     63       0.117647  -0.078470  -0.117482  -0.009620  -0.029920   0.028999
     64      -0.062222   0.061460   0.021073   0.005544   0.021204  -0.006219
     65      -0.075337   0.025257   0.046399   0.000482  -0.013586  -0.017608
     66      -0.183395   0.161323  -0.029024   0.017452   0.083589  -0.020733
     67      -0.051196   0.051426   0.012996   0.003031   0.016899  -0.000965
     68       0.028788  -0.046647   0.010142  -0.000994  -0.038063  -0.013070
     69       0.083365   0.082006   0.189016  -0.001873  -0.042848  -0.010104
     70      -0.064574  -0.057346  -0.001367  -0.015780  -0.038246   0.007324
     71       0.029556   0.017757  -0.005044  -0.058817   0.043302   0.002783
     72       0.164847   0.164926   0.253127   0.006908  -0.070739  -0.014870
     73      -0.008513  -0.045115   0.016798  -0.077546   0.015458   0.007459
     74       0.035620   0.001069  -0.013331  -0.091992   0.076824   0.004423
     75       0.166193   0.119249   0.238841  -0.009482  -0.018445  -0.014076
     76      -0.058544  -0.029301   0.017415   0.035741  -0.076575   0.004206
     77       0.038603  -0.002140  -0.014402  -0.108825   0.084849   0.005111
     78      -0.122952  -0.076742   0.084850  -0.008812  -0.090891   0.003806
     79       0.101686   0.073577   0.099467   0.005992  -0.017222  -0.005335
     80      -0.018764  -0.008797  -0.021646   0.014787   0.006538   0.002013
     81      -0.236519  -0.225431  -0.030709   0.368920  -0.231885   0.010534
     82       0.041603   0.094900   0.136165  -0.303120   0.049054  -0.004302
     83      -0.024949   0.032792   0.020824  -0.217768   0.068784   0.001174
     84      -0.056046  -0.030540   0.111935   0.032427  -0.082851  -0.001435
     85       0.298181   0.212244   0.181985   0.110537   0.011380  -0.020796
     86      -0.035229  -0.118146  -0.125284   0.581618  -0.158170   0.002622
     87      -0.248629  -0.109279   0.087980  -0.432299  -0.007973   0.014969
     88       0.103842   0.023976   0.049784   0.231123  -0.076325  -0.003121
     89      -0.034613   0.036445   0.027404  -0.252955   0.073880   0.001100
                 18         19         20         21         22         23    
      0      -0.090630   0.049199   0.011191   0.093909   0.015418   0.047101
      1      -0.001768  -0.047659  -0.014830  -0.057656  -0.020070  -0.012328
      2       0.075138   0.196625   0.020831   0.002029  -0.041068   0.139578
      3      -0.074026  -0.048600   0.005778   0.069165   0.017097   0.003666
      4      -0.074191   0.046420  -0.026755  -0.016382   0.029543   0.070033
      5       0.099400  -0.199326   0.009045  -0.003032   0.009617  -0.045012
      6      -0.026561   0.000817  -0.021340  -0.082816  -0.012015  -0.033391
      7      -0.075320  -0.000761  -0.004669   0.070118   0.030868   0.095753
      8      -0.082065   0.000991  -0.045143  -0.057063   0.082304  -0.272046
      9       0.005433   0.049717   0.021410   0.047191   0.011785  -0.029842
     10      -0.116974  -0.047151  -0.012670   0.093247   0.070098   0.037053
     11       0.072827   0.197249   0.017644   0.026790   0.019819  -0.045837
     12      -0.000077  -0.049483   0.026339   0.060086  -0.004598   0.007276
     13      -0.037455   0.048248  -0.000202   0.035445   0.017963  -0.041708
     14       0.048190  -0.197225   0.014694   0.034681  -0.027634   0.144340
     15      -0.105304   0.000940   0.016201   0.124011   0.050673  -0.079292
     16       0.049310   0.000137   0.010477  -0.008774  -0.030818   0.036856
     17      -0.081686   0.000775  -0.040966  -0.094537   0.024321  -0.174991
     18      -0.124618  -0.108022   0.016365   0.186670   0.060242   0.059675
     19      -0.127847   0.099788  -0.031374   0.023838   0.070651   0.019200
     20       0.184856  -0.429215   0.037356   0.042363  -0.053099   0.169144
     21       0.038735   0.111126   0.048651   0.103658  -0.013076  -0.017605
     22      -0.141275  -0.100440  -0.033695   0.048185   0.087876   0.018370
     23       0.157436   0.429545   0.046902   0.064381  -0.039209   0.195636
     24      -0.133759   0.001079   0.007138   0.106825   0.050642  -0.093105
     25       0.128165  -0.001517   0.026854  -0.017434  -0.041004   0.030024
     26      -0.212584   0.001886  -0.078118  -0.149487   0.030962  -0.229996
     27      -0.037302   0.001302  -0.085194  -0.218956   0.049454   0.091900
     28       0.118967   0.001243   0.064937  -0.058967   0.083907  -0.005912
     29      -0.054845  -0.001049   0.050734   0.028967  -0.148847   0.043718
     30      -0.044913   0.001050  -0.123649  -0.154187   0.035055   0.106178
     31       0.073355   0.003312  -0.159103   0.149484  -0.024396  -0.039920
     32      -0.032570  -0.000661  -0.001535  -0.031929   0.012077   0.006678
     33      -0.066065   0.001953  -0.243154  -0.193443   0.153958   0.127468
     34       0.068851   0.002933  -0.117690   0.180290  -0.160699  -0.047916
     35      -0.030184  -0.000257  -0.045810  -0.068371   0.149676   0.019166
     36      -0.089257   0.000913  -0.142086  -0.141873  -0.095221   0.133446
     37       0.052605   0.003487  -0.235885   0.076676   0.141568  -0.008308
     38      -0.027133  -0.000422  -0.041100  -0.074773   0.152996   0.014654
     39      -0.000636  -0.000358   0.080762  -0.386721   0.235859   0.239738
     40       0.266995  -0.000123   0.235433  -0.144879   0.483705   0.172572
     41      -0.204500  -0.000303  -0.094646   0.085087  -0.530721  -0.110949
     42       0.000488   0.011940   0.022411   0.008196   0.188847  -0.054691
     43       0.520000  -0.007052   0.031583  -0.019886   0.091499  -0.142560
     44       0.267967  -0.009183   0.001832   0.057614   0.042404   0.017691
     45       0.008900  -0.001704  -0.024797  -0.161034  -0.074773   0.039942
     46       0.020000  -0.001760   0.021722  -0.055312  -0.111563  -0.069561
     47      -0.108942   0.001920  -0.002082  -0.013047  -0.105742   0.013194
     48       0.043300  -0.006032   0.014824  -0.174262  -0.190646   0.108161
     49       0.017598  -0.000877  -0.001208  -0.072929  -0.111627  -0.095922
     50      -0.098418   0.000385   0.039237   0.003187  -0.121185   0.064591
     51       0.263470  -0.000708   0.015973  -0.068932  -0.030486  -0.102675
     52      -0.006894   0.001437   0.005021  -0.099275  -0.084524  -0.034670
     53       0.039147  -0.000398   0.002967   0.098425   0.164056   0.061958
     54       0.052063   0.002168  -0.106455   0.127003  -0.021822  -0.006864
     55      -0.002142   0.001444  -0.115745  -0.010762   0.002405   0.023765
     56      -0.004203  -0.000266   0.016092  -0.018107   0.021691   0.001851
     57       0.107589   0.004251  -0.204471   0.256485  -0.049684  -0.038451
     58       0.028785   0.002321  -0.115090   0.029693   0.018632   0.018867
     59      -0.003011  -0.000385   0.041800  -0.034634   0.037602   0.008402
     60       0.092417   0.004747  -0.217351   0.235446  -0.048490  -0.029029
     61      -0.000272   0.001910  -0.158937   0.033620  -0.030405   0.005289
     62       0.001718  -0.000293   0.041483  -0.040642   0.048083   0.014546
     63      -0.100668   0.106329   0.004620   0.083365   0.007085   0.162680
     64       0.000223  -0.105220  -0.013180  -0.053510  -0.007221  -0.115877
     65       0.135822   0.433018   0.063983   0.076613  -0.116193   0.431725
     66       0.078504  -0.107224   0.032869  -0.010714  -0.079749   0.077518
     67      -0.017652   0.101632  -0.007717  -0.022952   0.006609  -0.113108
     68       0.091735  -0.424193   0.043801   0.109157  -0.090151   0.441785
     69       0.037358  -0.000106   0.016136   0.158307  -0.035016  -0.035728
     70      -0.050874  -0.003892   0.173526  -0.076898   0.019060   0.003734
     71       0.004860   0.000493  -0.024396  -0.000330   0.002009   0.003543
     72       0.050436  -0.000560   0.045348   0.194498  -0.033782  -0.054079
     73      -0.044006  -0.004105   0.177069  -0.051524   0.000381  -0.001922
     74       0.003570   0.000412  -0.025914  -0.000064  -0.007371   0.005746
     75       0.048579  -0.000563   0.060465   0.202685  -0.055286  -0.055598
     76      -0.041150  -0.003377   0.162114  -0.059526   0.024128  -0.002664
     77      -0.001090   0.000036  -0.011404  -0.006097  -0.007653   0.006043
     78      -0.046168  -0.004623   0.221096   0.030329  -0.010017  -0.029957
     79       0.016474  -0.000951   0.056279   0.057853  -0.011251  -0.022352
     80      -0.000699   0.000873  -0.024016  -0.011982   0.000205   0.005815
     81      -0.104935  -0.008071   0.378888  -0.067356   0.011248  -0.025906
     82       0.002527  -0.001245   0.089400   0.039531  -0.012406  -0.021703
     83       0.004517   0.001427  -0.039608  -0.000664  -0.004917   0.005106
     84      -0.012876  -0.002668   0.128756   0.084734  -0.022201  -0.032691
     85       0.114826   0.004842  -0.216931   0.219777  -0.047647  -0.030433
     86      -0.016760  -0.000224   0.015145  -0.041844   0.007472   0.006896
     87      -0.107529  -0.008244   0.396890  -0.068798   0.013096  -0.024875
     88       0.006091  -0.001883   0.084791   0.036983  -0.002868  -0.020542
     89       0.003005   0.001418  -0.034080  -0.002278  -0.005637   0.004772
                 24         25         26         27         28         29    
      0       0.272045   0.069853   0.058355  -0.013523  -0.004041  -0.003635
      1       0.209192   0.202602  -0.010491  -0.032082  -0.019933   0.008164
      2      -0.016915  -0.030128   0.178943   0.015096   0.018244  -0.024258
      3       0.205217   0.108194  -0.019396  -0.016129   0.001503  -0.009425
      4      -0.239368   0.184741   0.058051  -0.024168  -0.013337   0.009080
      5      -0.108132   0.079270  -0.140235  -0.002354   0.034392  -0.043362
      6      -0.036825   0.242370   0.096009  -0.018285  -0.023141   0.022433
      7      -0.120319   0.013155  -0.062024  -0.004649   0.017813  -0.022235
      8      -0.020470  -0.058698   0.242693   0.025495  -0.067766   0.093594
      9      -0.257743   0.008947  -0.027878  -0.006873   0.002269  -0.010436
     10      -0.184631  -0.129992   0.004413   0.016357   0.008323   0.005234
     11       0.018299   0.030418  -0.150667   0.008907   0.041464  -0.044889
     12      -0.216846  -0.055071   0.050164  -0.001846  -0.005401  -0.004078
     13       0.267578  -0.126422  -0.072911   0.022108   0.014697   0.002292
     14       0.121118  -0.081499   0.163930   0.024682   0.023418  -0.020539
     15       0.038035  -0.217572  -0.069426   0.029774   0.024334  -0.013660
     16       0.136409  -0.005455   0.034735  -0.001104  -0.012003   0.013099
     17       0.022016   0.124465  -0.122320  -0.004785   0.035298  -0.049100
     18       0.072847  -0.053604  -0.135088  -0.024784  -0.045247   0.057526
     19      -0.287218   0.115936   0.120796   0.008290   0.042171  -0.052991
     20      -0.096749   0.061016  -0.469673  -0.105964  -0.186144   0.221264
     21      -0.110090  -0.194251  -0.137849  -0.026112  -0.051373   0.057085
     22      -0.270445   0.017087   0.096580   0.035842   0.056536  -0.053981
     23      -0.041398   0.069423  -0.480041  -0.115710  -0.185246   0.218796
     24      -0.009809  -0.213444  -0.144363  -0.000724  -0.062337   0.091923
     25      -0.258313  -0.064280   0.109626   0.032116   0.067464  -0.090962
     26      -0.070337   0.111245  -0.436998  -0.122226  -0.311339   0.380220
     27       0.009535  -0.115244  -0.014508  -0.093979   0.013377  -0.019162
     28       0.000858  -0.039424   0.020591  -0.150959   0.008149  -0.021475
     29      -0.025736   0.059385  -0.035115   0.128105   0.008638  -0.001455
     30       0.013766  -0.114018  -0.050562   0.035496   0.023785  -0.005902
     31      -0.006025   0.056266   0.019797  -0.006583  -0.006235   0.005605
     32       0.000109  -0.017665  -0.001413  -0.009039   0.031933   0.016581
     33       0.045054  -0.199090  -0.068356   0.095452   0.013384   0.015754
     34      -0.035713   0.138534   0.027620  -0.056637   0.193120   0.132694
     35       0.030546  -0.103656  -0.012732   0.047629  -0.150326  -0.096599
     36      -0.010737  -0.035527  -0.064587   0.109172   0.009914  -0.029961
     37       0.033961  -0.069587  -0.005558   0.093391  -0.243678  -0.142171
     38       0.031388  -0.113746  -0.009563   0.021158  -0.102452  -0.061121
     39       0.040995  -0.119529  -0.121968   0.422926  -0.023398   0.043739
     40       0.042954   0.247337  -0.066503   0.591108  -0.008101   0.115506
     41      -0.062617  -0.238678   0.030054  -0.510991   0.015509  -0.127214
     42       0.026023  -0.046627   0.016626  -0.031772   0.002180   0.020636
     43      -0.006731  -0.100616   0.027065   0.005211   0.004777   0.022366
     44       0.005383   0.019081   0.008882  -0.041373   0.000151  -0.017889
     45      -0.022722   0.157249   0.009982   0.006865   0.010186  -0.001899
     46      -0.001161  -0.142488  -0.005935   0.011777  -0.014488  -0.005311
     47      -0.009856  -0.124728  -0.010690  -0.032105  -0.022751  -0.010977
     48      -0.030159   0.255254  -0.041603  -0.018945   0.039152  -0.053389
     49      -0.007678  -0.132708   0.000371   0.037943  -0.018195   0.012655
     50      -0.008042  -0.097501  -0.029777  -0.055297  -0.009603  -0.040690
     51       0.000213  -0.099211   0.008596   0.011364  -0.008064   0.007560
     52      -0.037273  -0.020062  -0.008413   0.068975  -0.002374   0.015509
     53       0.019085   0.062572   0.010130  -0.064324   0.006351  -0.011244
     54      -0.000658   0.005892  -0.005743   0.016751   0.005277   0.002978
     55       0.002456  -0.006460  -0.012597   0.045457   0.005691   0.009328
     56       0.002821  -0.010378   0.001268  -0.012184   0.045431   0.038487
     57      -0.004332   0.062599   0.005202   0.052613   0.082179   0.103131
     58       0.006906   0.023790  -0.013775   0.122622  -0.343591  -0.265822
     59       0.006250  -0.011944  -0.002847   0.019582  -0.166213  -0.139752
     60      -0.006667   0.054032  -0.000304   0.063438  -0.122467  -0.106146
     61      -0.004974   0.005485  -0.002922  -0.005228   0.279518   0.232640
     62       0.008674  -0.011934  -0.006537   0.045005  -0.243728  -0.197960
     63       0.119170   0.253716   0.030741  -0.072178  -0.085693   0.081474
     64       0.299339   0.077183   0.025972   0.017992   0.058319  -0.076742
     65       0.038177  -0.191439  -0.074227  -0.085956  -0.255366   0.316273
     66      -0.085659   0.101376   0.030083  -0.057579  -0.096260   0.083555
     67       0.319899  -0.016237   0.001923   0.033312   0.064612  -0.069630
     68       0.097466  -0.183977  -0.073570  -0.081762  -0.237397   0.297628
[...]
     31      -0.000063   0.000016  -0.000108   0.000111  -0.002389  -0.000058
     32       0.000017   0.000001   0.000021  -0.000016  -0.001141   0.000039
     33      -0.000084   0.000043  -0.000137  -0.000140   0.000400  -0.000101
     34       0.000358  -0.000111   0.000632  -0.000540   0.006772  -0.000484
     35       0.000516  -0.000217   0.000937  -0.000670   0.009939  -0.000896
     36      -0.000230   0.000105  -0.000312   0.000558  -0.000589   0.000004
     37       0.000294  -0.000084   0.000375  -0.000877   0.000661  -0.000210
     38      -0.000620   0.000240  -0.000936   0.001522  -0.002922   0.000754
     39       0.000528   0.000099   0.001381   0.000949  -0.154108  -0.002757
     40      -0.000912  -0.000166  -0.001857  -0.000164   0.706288   0.011921
     41      -0.000523  -0.000062  -0.000793   0.000626   0.687034   0.012815
     42       0.000486  -0.000049   0.001166   0.000174  -0.009117   0.529822
     43      -0.000003   0.000030  -0.000137  -0.000482   0.000676  -0.105698
     44       0.000119  -0.000195   0.000190  -0.000366  -0.014466   0.838999
     45       0.000103  -0.000070   0.000198  -0.000221  -0.000139  -0.000465
     46      -0.000127   0.000215  -0.000403  -0.000316  -0.002611   0.000558
     47      -0.000149   0.000142  -0.000269   0.000023  -0.001493  -0.001306
     48      -0.001530   0.001258  -0.001389   0.000480  -0.002118   0.000362
     49       0.002825  -0.001941   0.003645  -0.000066   0.009717   0.000599
     50       0.002594  -0.001873   0.003268   0.000092   0.004409   0.000329
     51      -0.000048   0.000043  -0.000146   0.000043   0.000686  -0.033276
     52       0.000010   0.000045   0.000055   0.000229  -0.000220   0.005867
     53      -0.000005  -0.000037   0.000003  -0.000047   0.001376  -0.051960
     54      -0.000020   0.000013  -0.000049   0.000019  -0.000290   0.000106
     55       0.000025  -0.000059   0.000066  -0.000018   0.000164  -0.000294
     56      -0.000010   0.000011  -0.000014   0.000019   0.000005   0.000202
     57       0.000125  -0.000128   0.000298  -0.000122   0.000173  -0.001269
     58      -0.000122   0.000304  -0.000262   0.000248  -0.000767   0.002147
     59       0.000256  -0.000545   0.000442  -0.000590   0.000402  -0.004634
     60       0.000047  -0.000071   0.000197   0.000016   0.001290  -0.000117
     61      -0.000111   0.000401  -0.000308   0.000254   0.002081   0.001743
     62      -0.000144   0.000397  -0.000306   0.000307   0.001197   0.002066
     63       0.091823  -0.374091   0.316984  -0.120108   0.000695  -0.000326
     64       0.132553  -0.528639   0.449189  -0.170907   0.000712  -0.000354
     65       0.010058  -0.038125   0.032600  -0.012561  -0.000057   0.000008
     66       0.291249   0.190085   0.068550  -0.143021   0.000709  -0.000189
     67      -0.661402  -0.428456  -0.157233   0.326135  -0.001060   0.000255
     68      -0.229726  -0.149177  -0.054439   0.113055  -0.000401   0.000174
     69      -0.000001  -0.000012  -0.000022  -0.000027  -0.000025   0.000019
     70      -0.000006   0.000015   0.000025   0.000077  -0.000074   0.000007
     71       0.000005  -0.000009   0.000000   0.000003  -0.000013  -0.000027
     72      -0.000009   0.000079   0.000087   0.000137  -0.000102  -0.000154
     73       0.000031  -0.000106  -0.000115  -0.000309   0.000058  -0.000026
     74      -0.000065   0.000274   0.000184   0.000611  -0.000234   0.000183
     75       0.000008   0.000051   0.000073   0.000088  -0.000523  -0.000158
     76       0.000013  -0.000143  -0.000211  -0.000627   0.000405   0.000029
     77       0.000030  -0.000187  -0.000191  -0.000634   0.000598  -0.000051
     78       0.000002  -0.000021  -0.000012  -0.000020   0.000012   0.000012
     79       0.000009  -0.000030   0.000016   0.000018   0.000029  -0.000006
     80      -0.000004  -0.000003  -0.000003   0.000008  -0.000003  -0.000010
     81       0.000039  -0.000069   0.000061  -0.000028   0.000052  -0.000059
     82      -0.000068   0.000149  -0.000053   0.000018  -0.000186  -0.000005
     83       0.000142  -0.000293   0.000087  -0.000064   0.000275  -0.000035
     84      -0.000101   0.000371  -0.000006   0.000275  -0.000690  -0.000223
     85       0.000037  -0.000135   0.000024  -0.000114   0.000069  -0.000038
     86      -0.000000  -0.000004  -0.000006  -0.000004   0.000036   0.000036
     87       0.000017  -0.000041   0.000048  -0.000012   0.000032  -0.000006
     88      -0.000094   0.000288  -0.000084  -0.000071  -0.000010   0.000152
     89      -0.000111   0.000283  -0.000083  -0.000065   0.000018   0.000179


-----------
IR SPECTRUM  
-----------

 Mode    freq (cm**-1)   T**2         TX         TY         TZ
-------------------------------------------------------------------
   6:        42.22    0.000000  (  0.000000   0.000000   0.000000)
   7:        61.32    0.000000  (  0.000000   0.000000   0.000000)
   8:        64.02    0.000000  (  0.000000   0.000000   0.000000)
   9:        84.69    0.000000  (  0.000000   0.000000   0.000000)
  10:       106.66    0.000000  (  0.000000   0.000000   0.000000)
  11:       124.76    0.000000  (  0.000000   0.000000   0.000000)
  12:       192.27    0.000000  (  0.000000   0.000000   0.000000)
  13:       214.16    0.000000  (  0.000000   0.000000   0.000000)
  14:       239.60    0.000000  (  0.000000   0.000000   0.000000)
  15:       263.82    0.000000  (  0.000000   0.000000   0.000000)
  16:       294.07    0.000000  (  0.000000   0.000000   0.000000)
  17:       306.93    0.000000  (  0.000000   0.000000   0.000000)
  18:       344.32    0.000000  (  0.000000   0.000000   0.000000)
  19:       381.93    0.000000  (  0.000000   0.000000   0.000000)
  20:       402.61    0.000000  (  0.000000   0.000000   0.000000)
  21:       434.17    0.000000  (  0.000000   0.000000   0.000000)
  22:       511.88    0.000000  (  0.000000   0.000000   0.000000)
  23:       525.65    0.000000  (  0.000000   0.000000   0.000000)
  24:       588.92    0.000000  (  0.000000   0.000000   0.000000)
  25:       620.09    0.000000  (  0.000000   0.000000   0.000000)
  26:       676.48    0.000000  (  0.000000   0.000000   0.000000)
  27:       717.85    0.000000  (  0.000000   0.000000   0.000000)
  28:       763.89    0.000000  (  0.000000   0.000000   0.000000)
  29:       768.33    0.000000  (  0.000000   0.000000   0.000000)
  30:       813.44    0.000000  (  0.000000   0.000000   0.000000)
  31:       846.49    0.000000  (  0.000000   0.000000   0.000000)
  32:       887.10    0.000000  (  0.000000   0.000000   0.000000)
  33:       908.13    0.000000  (  0.000000   0.000000   0.000000)
  34:       925.27    0.000000  (  0.000000   0.000000   0.000000)
  35:       934.37    0.000000  (  0.000000   0.000000   0.000000)
  36:       938.02    0.000000  (  0.000000   0.000000   0.000000)
  37:       938.28    0.000000  (  0.000000   0.000000   0.000000)
  38:       945.66    0.000000  (  0.000000   0.000000   0.000000)
  39:       984.53    0.000000  (  0.000000   0.000000   0.000000)
  40:      1006.53    0.000000  (  0.000000   0.000000   0.000000)
  41:      1048.01    0.000000  (  0.000000   0.000000   0.000000)
  42:      1070.55    0.000000  (  0.000000   0.000000   0.000000)
  43:      1095.88    0.000000  (  0.000000   0.000000   0.000000)
  44:      1110.07    0.000000  (  0.000000   0.000000   0.000000)
  45:      1117.38    0.000000  (  0.000000   0.000000   0.000000)
  46:      1121.03    0.000000  (  0.000000   0.000000   0.000000)
  47:      1128.83    0.000000  (  0.000000   0.000000   0.000000)
  48:      1176.42    0.000000  (  0.000000   0.000000   0.000000)
  49:      1186.09    0.000000  (  0.000000   0.000000   0.000000)
  50:      1198.49    0.000000  (  0.000000   0.000000   0.000000)
  51:      1205.03    0.000000  (  0.000000   0.000000   0.000000)
  52:      1240.28    0.000000  (  0.000000   0.000000   0.000000)
  53:      1256.95    0.000000  (  0.000000   0.000000   0.000000)
  54:      1258.08    0.000000  (  0.000000   0.000000   0.000000)
  55:      1275.43    0.000000  (  0.000000   0.000000   0.000000)
  56:      1279.36    0.000000  (  0.000000   0.000000   0.000000)
  57:      1280.33    0.000000  (  0.000000   0.000000   0.000000)
  58:      1297.38    0.000000  (  0.000000   0.000000   0.000000)
  59:      1305.69    0.000000  (  0.000000   0.000000   0.000000)
  60:      1338.37    0.000000  (  0.000000   0.000000   0.000000)
  61:      1369.78    0.000000  (  0.000000   0.000000   0.000000)
  62:      1397.90    0.000000  (  0.000000   0.000000   0.000000)
  63:      1424.28    0.000000  (  0.000000   0.000000   0.000000)
  64:      1428.48    0.000000  (  0.000000   0.000000   0.000000)
  65:      1461.66    0.000000  (  0.000000   0.000000   0.000000)
  66:      1485.54    0.000000  (  0.000000   0.000000   0.000000)
  67:      1503.45    0.000000  (  0.000000   0.000000   0.000000)
  68:      1507.13    0.000000  (  0.000000   0.000000   0.000000)
  69:      1508.08    0.000000  (  0.000000   0.000000   0.000000)
  70:      1513.44    0.000000  (  0.000000   0.000000   0.000000)
  71:      1568.10    0.000000  (  0.000000   0.000000   0.000000)
  72:      1576.65    0.000000  (  0.000000   0.000000   0.000000)
  73:      2916.97    0.000000  (  0.000000   0.000000   0.000000)
  74:      2932.42    0.000000  (  0.000000   0.000000   0.000000)
  75:      2934.98    0.000000  (  0.000000   0.000000   0.000000)
  76:      2943.24    0.000000  (  0.000000   0.000000   0.000000)
  77:      2959.81    0.000000  (  0.000000   0.000000   0.000000)
  78:      2965.91    0.000000  (  0.000000   0.000000   0.000000)
  79:      2978.92    0.000000  (  0.000000   0.000000   0.000000)
  80:      2983.32    0.000000  (  0.000000   0.000000   0.000000)
  81:      2996.57    0.000000  (  0.000000   0.000000   0.000000)
  82:      3004.46    0.000000  (  0.000000   0.000000   0.000000)
  83:      3047.04    0.000000  (  0.000000   0.000000   0.000000)
  84:      3051.85    0.000000  (  0.000000   0.000000   0.000000)
  85:      3057.96    0.000000  (  0.000000   0.000000   0.000000)
  86:      3067.54    0.000000  (  0.000000   0.000000   0.000000)
  87:      3074.61    0.000000  (  0.000000   0.000000   0.000000)
  88:      3392.72    0.000000  (  0.000000   0.000000   0.000000)
  89:      3510.45    0.000000  (  0.000000   0.000000   0.000000)

The first frequency considered to be a vibration is 6
The total number of vibrations considered is 84


--------------------------
THERMOCHEMISTRY AT 298.15K
--------------------------

Temperature         ... 298.15 K
Pressure            ... 1.00 atm
Total Mass          ... 179.26 AMU

Throughout the following assumptions are being made:
  (1) The electronic state is orbitally nondegenerate
  (2) There are no thermally accessible electronically excited states
  (3) Hindered rotations indicated by low frequency modes are not
      treated as such but are treated as vibrations and this may
      cause some error
  (4) All equations used are the standard statistical mechanics
      equations for an ideal gas
  (5) All vibrations are strictly harmonic

freq.      42.22  E(vib)   ...       0.53 
freq.      61.32  E(vib)   ...       0.51 
freq.      64.02  E(vib)   ...       0.51 
freq.      84.69  E(vib)   ...       0.48 
freq.     106.66  E(vib)   ...       0.45 
freq.     124.76  E(vib)   ...       0.43 
freq.     192.27  E(vib)   ...       0.36 
freq.     214.16  E(vib)   ...       0.34 
freq.     239.60  E(vib)   ...       0.31 
freq.     263.82  E(vib)   ...       0.29 
freq.     294.07  E(vib)   ...       0.27 
freq.     306.93  E(vib)   ...       0.26 
freq.     344.32  E(vib)   ...       0.23 
freq.     381.93  E(vib)   ...       0.21 
freq.     402.61  E(vib)   ...       0.19 
freq.     434.17  E(vib)   ...       0.17 
freq.     511.88  E(vib)   ...       0.14 
freq.     525.65  E(vib)   ...       0.13 
freq.     588.92  E(vib)   ...       0.10 
freq.     620.09  E(vib)   ...       0.09 
freq.     676.48  E(vib)   ...       0.08 
freq.     717.85  E(vib)   ...       0.07 
freq.     763.89  E(vib)   ...       0.06 
freq.     768.33  E(vib)   ...       0.06 
freq.     813.44  E(vib)   ...       0.05 
freq.     846.49  E(vib)   ...       0.04 
freq.     887.10  E(vib)   ...       0.04 
freq.     908.13  E(vib)   ...       0.03 
freq.     925.27  E(vib)   ...       0.03 
freq.     934.37  E(vib)   ...       0.03 
freq.     938.02  E(vib)   ...       0.03 
freq.     938.28  E(vib)   ...       0.03 
freq.     945.66  E(vib)   ...       0.03 
freq.     984.53  E(vib)   ...       0.02 
freq.    1006.53  E(vib)   ...       0.02 
freq.    1048.01  E(vib)   ...       0.02 
freq.    1070.55  E(vib)   ...       0.02 
freq.    1095.88  E(vib)   ...       0.02 
freq.    1110.07  E(vib)   ...       0.02 
freq.    1117.38  E(vib)   ...       0.01 
freq.    1121.03  E(vib)   ...       0.01 
freq.    1128.83  E(vib)   ...       0.01 
freq.    1176.42  E(vib)   ...       0.01 
freq.    1186.09  E(vib)   ...       0.01 
freq.    1198.49  E(vib)   ...       0.01 
freq.    1205.03  E(vib)   ...       0.01 
freq.    1240.28  E(vib)   ...       0.01 
freq.    1256.95  E(vib)   ...       0.01 
freq.    1258.08  E(vib)   ...       0.01 
freq.    1275.43  E(vib)   ...       0.01 
freq.    1279.36  E(vib)   ...       0.01 
freq.    1280.33  E(vib)   ...       0.01 
freq.    1297.38  E(vib)   ...       0.01 
freq.    1305.69  E(vib)   ...       0.01 
freq.    1338.37  E(vib)   ...       0.01 
freq.    1369.78  E(vib)   ...       0.01 
freq.    1397.90  E(vib)   ...       0.00 
freq.    1424.28  E(vib)   ...       0.00 
freq.    1428.48  E(vib)   ...       0.00 
freq.    1461.66  E(vib)   ...       0.00 
freq.    1485.54  E(vib)   ...       0.00 
freq.    1503.45  E(vib)   ...       0.00 
freq.    1507.13  E(vib)   ...       0.00 
freq.    1508.08  E(vib)   ...       0.00 
freq.    1513.44  E(vib)   ...       0.00 
freq.    1568.10  E(vib)   ...       0.00 
freq.    1576.65  E(vib)   ...       0.00 
freq.    2916.97  E(vib)   ...       0.00 
freq.    2932.42  E(vib)   ...       0.00 
freq.    2934.98  E(vib)   ...       0.00 
freq.    2943.24  E(vib)   ...       0.00 
freq.    2959.81  E(vib)   ...       0.00 
freq.    2965.91  E(vib)   ...       0.00 
freq.    2978.92  E(vib)   ...       0.00 
freq.    2983.32  E(vib)   ...       0.00 
freq.    2996.57  E(vib)   ...       0.00 
freq.    3004.46  E(vib)   ...       0.00 
freq.    3047.04  E(vib)   ...       0.00 
freq.    3051.85  E(vib)   ...       0.00 
freq.    3057.96  E(vib)   ...       0.00 
freq.    3067.54  E(vib)   ...       0.00 
freq.    3074.61  E(vib)   ...       0.00 
freq.    3392.72  E(vib)   ...       0.00 
freq.    3510.45  E(vib)   ...       0.00 

------------
INNER ENERGY
------------

The inner energy is: U= E(el) + E(ZPE) + E(vib) + E(rot) + E(trans)
    E(el)   - is the total energy from the electronic structure calculation
              = E(kin-el) + E(nuc-el) + E(el-el) + E(nuc-nuc)
    E(ZPE)  - the the zero temperature vibrational energy from the frequency calculation
    E(vib)  - the the finite temperature correction to E(ZPE) due to population
              of excited vibrational states
    E(rot)  - is the rotational thermal energy
    E(trans)- is the translational thermal energy

Summary of contributions to the inner energy U:
Electronic energy                ...    -39.21273539 Eh
Zero point energy                ...      0.25609195 Eh     160.70 kcal/mol
Thermal vibrational correction   ...      0.01096668 Eh       6.88 kcal/mol
Thermal rotational correction    ...      0.00141627 Eh       0.89 kcal/mol
Thermal translational correction ...      0.00141627 Eh       0.89 kcal/mol
-----------------------------------------------------------------------
Total thermal energy                    -38.94284422 Eh


Summary of corrections to the electronic energy:
(perhaps to be used in another calculation)
Total thermal correction                  0.01379922 Eh       8.66 kcal/mol
Non-thermal (ZPE) correction              0.25609195 Eh     160.70 kcal/mol
-----------------------------------------------------------------------
Total correction                          0.26989117 Eh     169.36 kcal/mol


--------
ENTHALPY
--------

The enthalpy is H = U + kB*T
                kB is Boltzmann's constant
Total free energy                 ...    -38.94284422 Eh 
Thermal Enthalpy correction       ...      0.00094421 Eh       0.59 kcal/mol
-----------------------------------------------------------------------
Total Enthalpy                    ...    -38.94190001 Eh


Note: Only C1 symmetry has been detected, increase convergence thresholds 
      if your molecule has a higher symmetry. Symmetry factor of 1.0 is   
      used for the rotational entropy correction. 
 

Note: Rotational entropy computed according to Herzberg 
Infrared and Raman Spectra, Chapter V,1, Van Nostrand Reinhold, 1945 
Point Group:  C1, Symmetry Number:   1  
Rotational constants in cm-1:     0.085333     0.009562     0.009176 

Vibrational entropy computed according to the QRRHO of S. Grimme
Chem.Eur.J. 2012 18 9955


-------
ENTROPY
-------

The entropy contributions are T*S = T*(S(el)+S(vib)+S(rot)+S(trans))
     S(el)   - electronic entropy
     S(vib)  - vibrational entropy
     S(rot)  - rotational entropy
     S(trans)- translational entropy
The entropies will be listed as mutliplied by the temperature to get
units of energy

Electronic entropy                ...      0.00000000 Eh      0.00 kcal/mol
Vibrational entropy               ...      0.01909921 Eh     11.98 kcal/mol
Rotational entropy                ...      0.01508255 Eh      9.46 kcal/mol
Translational entropy             ...      0.01969790 Eh     12.36 kcal/mol
-----------------------------------------------------------------------
Final entropy term                ...      0.05387965 Eh     33.81 kcal/mol

In case the symmetry of your molecule has not been determined correctly
or in case you have a reason to use a different symmetry number we print 
out the resulting rotational entropy values for sn=1,12 :
 --------------------------------------------------------
|  sn= 1 | S(rot)=       0.01508255 Eh      9.46 kcal/mol|
|  sn= 2 | S(rot)=       0.01442809 Eh      9.05 kcal/mol|
|  sn= 3 | S(rot)=       0.01404526 Eh      8.81 kcal/mol|
|  sn= 4 | S(rot)=       0.01377363 Eh      8.64 kcal/mol|
|  sn= 5 | S(rot)=       0.01356295 Eh      8.51 kcal/mol|
|  sn= 6 | S(rot)=       0.01339080 Eh      8.40 kcal/mol|
|  sn= 7 | S(rot)=       0.01324526 Eh      8.31 kcal/mol|
|  sn= 8 | S(rot)=       0.01311918 Eh      8.23 kcal/mol|
|  sn= 9 | S(rot)=       0.01300797 Eh      8.16 kcal/mol|
|  sn=10 | S(rot)=       0.01290849 Eh      8.10 kcal/mol|
|  sn=11 | S(rot)=       0.01281850 Eh      8.04 kcal/mol|
|  sn=12 | S(rot)=       0.01273635 Eh      7.99 kcal/mol|
 --------------------------------------------------------


-------------------
GIBBS FREE ENERGY
-------------------

The Gibbs free energy is G = H - T*S

Total enthalpy                    ...    -38.94190001 Eh 
Total entropy correction          ...     -0.05387965 Eh    -33.81 kcal/mol
-----------------------------------------------------------------------
Final Gibbs free energy         ...    -38.99577966 Eh

For completeness - the Gibbs free energy minus the electronic energy
G-E(el)                           ...      0.21695573 Eh    136.14 kcal/mol


Total Time for Numerical Frequencies  :        58.931 sec
Time for Reference State(s)           :         0.100 sec
Time for Displacements                :        53.142 sec

Timings for individual modules:

Sum of individual times         ...        0.214 sec (=   0.004 min)
XTB module                      ...        0.214 sec (=   0.004 min) 100.0 %
                             ****ORCA TERMINATED NORMALLY****
TOTAL RUN TIME: 0 days 0 hours 0 minutes 59 seconds 611 msec
(SLURM) EXECUTION TIME: 59.635650550 seconds.
