(SLURM) JOB ID:         90

                                 *****************
                                 * O   R   C   A *
                                 *****************

           --- An Ab Initio, DFT and Semiempirical electronic structure package ---

                  #######################################################
                  #                        -***-                        #
                  #          Department of theory and spectroscopy      #
                  #               Directorship: Frank Neese             #
                  #        Max Planck Institute fuer Kohlenforschung    #
                  #                Kaiser Wilhelm Platz 1               #
                  #                 D-45470 Muelheim/Ruhr               #
                  #                      Germany                        #
                  #                                                     #
                  #                  All rights reserved                #
                  #                        -***-                        #
                  #######################################################


                         Program Version 4.2.1 -  RELEASE  -


 With contributions from (in alphabetic order):
   Daniel Aravena         : Magnetic Suceptibility
   Michael Atanasov       : Ab Initio Ligand Field Theory (pilot matlab implementation)
   Alexander A. Auer      : GIAO ZORA, VPT2
   Ute Becker             : Parallelization
   Giovanni Bistoni       : ED, misc. LED, open-shell LED, HFLD
   Martin Brehm           : Molecular dynamics
   Dmytro Bykov           : SCF Hessian
   Vijay G. Chilkuri      : MRCI spin determinant printing, contributions to CSF-ICE
   Dipayan Datta          : RHF DLPNO-CCSD density
   Achintya Kumar Dutta   : EOM-CC, STEOM-CC
   Dmitry Ganyushin       : Spin-Orbit,Spin-Spin,Magnetic field MRCI
   Miquel Garcia          : C-PCM Hessian, Gaussian charge scheme
   Yang Guo               : DLPNO-NEVPT2, CIM, IAO-localization
   Andreas Hansen         : Spin unrestricted coupled pair/coupled cluster methods
   Benjamin Helmich-Paris : CASSCF linear response (MC-RPA)
   Lee Huntington         : MR-EOM, pCC
   Robert Izsak           : Overlap fitted RIJCOSX, COSX-SCS-MP3, EOM
   Christian Kollmar      : KDIIS, OOCD, Brueckner-CCSD(T), CCSD density
   Simone Kossmann        : Meta GGA functionals, TD-DFT gradient, OOMP2, MP2 Hessian
   Martin Krupicka        : AUTO-CI
   Lucas Lang             : DCDCAS
   Dagmar Lenk            : GEPOL surface, SMD
   Dimitrios Liakos       : Extrapolation schemes; Compound Job, initial MDCI parallelization
   Dimitrios Manganas     : Further ROCIS development; embedding schemes
   Dimitrios Pantazis     : SARC Basis sets
   Taras Petrenko         : DFT Hessian,TD-DFT gradient, ASA, ECA, R-Raman, ABS, FL, XAS/XES, NRVS
   Peter Pinski           : DLPNO-MP2, DLPNO-MP2 Gradient
   Christoph Reimann      : Effective Core Potentials
   Marius Retegan         : Local ZFS, SOC
   Christoph Riplinger    : Optimizer, TS searches, QM/MM, DLPNO-CCSD(T), (RO)-DLPNO pert. Triples
   Tobias Risthaus        : Range-separated hybrids, TD-DFT gradient, RPA, STAB
   Michael Roemelt        : Original ROCIS implementation
   Masaaki Saitow         : Open-shell DLPNO-CCSD energy and density
   Barbara Sandhoefer     : DKH picture change effects
   Avijit Sen             : IP-ROCIS
   Kantharuban Sivalingam : CASSCF convergence, NEVPT2, FIC-MRCI
   Bernardo de Souza      : ESD, SOC TD-DFT
   Georgi Stoychev        : AutoAux, RI-MP2 NMR
   Willem Van den Heuvel  : Paramagnetic NMR
   Boris Wezisla          : Elementary symmetry handling
   Frank Wennmohs         : Technical directorship


 We gratefully acknowledge several colleagues who have allowed us to
 interface, adapt or use parts of their codes:
   Stefan Grimme, W. Hujo, H. Kruse,             : VdW corrections, initial TS optimization,
                  C. Bannwarth                     DFT functionals, gCP, sTDA/sTD-DF
   Ed Valeev, F. Pavosevic, A. Kumar             : LibInt (2-el integral package), F12 methods
   Garnet Chan, S. Sharma, J. Yang, R. Olivares  : DMRG
   Ulf Ekstrom                                   : XCFun DFT Library
   Mihaly Kallay                                 : mrcc  (arbitrary order and MRCC methods)
   Andreas Klamt, Michael Diedenhofen            : otool_cosmo (COSMO solvation model)
   Jiri Pittner, Ondrej Demel                    : Mk-CCSD
   Frank Weinhold                                : gennbo (NPA and NBO analysis)
   Christopher J. Cramer and Donald G. Truhlar   : smd solvation model
   Lars Goerigk                                  : TD-DFT with DH, B97 family of functionals
   V. Asgeirsson, H. Jonsson                     : NEB implementation
   FAccTs GmbH                                   : IRC, NEB, NEB-TS, Multilevel, MM, QM/MM, CI optimization
   S Lehtola, MJT Oliveira, MAL Marques          : LibXC Library


 Your calculation uses the libint2 library for the computation of 2-el integrals
 For citations please refer to: http://libint.valeyev.net

 Your ORCA version has been built with support for libXC version: 4.2.3
 For citations please refer to: https://tddft.org/programs/libxc/

 This ORCA versions uses:
   CBLAS   interface :  Fast vector & matrix operations
   LAPACKE interface :  Fast linear algebra routines
   SCALAPACK package :  Parallel linear algebra routines




***************************************
The coordinates will be read from file: init.xyz
***************************************


Your calculation utilizes the SMD solvation module
Please cite in your paper:
A.V. Marenich, C.J. Cramer, D.G. Truhlar J. Phys. Chem. B, 113, (2009), 6378 

Your calculation utilizes the semiempirical GFN2-xTB method
Please cite in your paper:
C. Bannwarth, Ehlert S., S. Grimme,  J. Chem. Theory Comput., 15, (2019), 1652.
   

----- Orbital basis set information -----
Your calculation utilizes the basis: def2-SVP
   F. Weigend and R. Ahlrichs, Phys. Chem. Chem. Phys. 7, 3297 (2005).

================================================================================
                                        WARNINGS
                       Please study these warnings very carefully!
================================================================================

WARNING: Gradients needed for Numerical Frequencies
  ===> : Setting RunTyp to EnGrad

WARNING: The environment variable RSH_COMMAND is not set!
  ===> : All Displacements for the Numerical Hessian calculation
         will be started on localhost

WARNING: Found dipole moment calculation with XTB calculation
  ===> : Switching off dipole moment calculation


INFO   : the flag for use of LIBINT has been found!

================================================================================
                                       INPUT FILE
================================================================================
NAME = /tmp/slurm-scratch/freq.90/freq.inp
|  1> ! XTB2 NumFreq
|  2> %maxcore 1450
|  3> 
|  4> * xyzfile 0 1 init.xyz
|  5> 
|  6> %cpcm
|  7>  smd true
|  8>  smdsolvent "ch2cl2"
|  9> end
| 10> %pal nprocs 8 end
| 11> 
| 12>                          ****END OF INPUT****
================================================================================

                     *******************************
                     * Energy+Gradient Calculation *
                     *******************************

      -----------------------------------------------------------      
     |                   =====================                   |     
     |                           x T B                           |     
     |                   =====================                   |     
     |                         S. Grimme                         |     
     |          Mulliken Center for Theoretical Chemistry        |     
     |                    University of Bonn                     |     
      -----------------------------------------------------------      

   * xtb version 6.3.0 (preview) compiled by 'ehlert@majestix' on 2020-01-15

   This program is distributed in the hope that it will be useful,
   but WITHOUT ANY WARRANTY; without even the implied warranty of
   MERCHANTABILITY or FITNESS FOR A PARTICULAR PURPOSE.
   
   FOR NON-COMMERCIAL, ACADEMIA USE ONLY.
   
   Cite this work as:
   * S. Grimme, C. Bannwarth, P. Shushkov, J. Chem. Theory Comput., 2017,
     13, 1989-2009. DOI: 10.1021/acs.jctc.7b00118
   * C. Bannwarth, S. Ehlert and S. Grimme., J. Chem. Theory Comput., 2019,
     15, 1652-1671. DOI: 10.1021/acs.jctc.8b01176
   * P. Pracht, E. Caldeweyher, S. Ehlert, S. Grimme, ChemRxiv, 2019, preprint.
     DOI: 10.26434/chemrxiv.8326202.v1
   * S. Grimme, S. Spicher unpublished
   
   for DFT-D4:
   * E. Caldeweyher, C. Bannwarth and S. Grimme, J. Chem. Phys., 2017,
     147, 034112. DOI: 10.1063/1.4993215
   * E. Caldeweyher, S. Ehlert, A. Hansen, H. Neugebauer, S. Spicher,
     C. Bannwarth and S. Grimme, J. Chem. Phys., 2019, 150, 154122.
     DOI: 10.1063/1.5090222
   
   for sTDA-xTB:
   * S. Grimme and C. Bannwarth, J. Chem. Phys., 2016, 145, 054103.
     DOI: 10.1063/1.4959605
   
   in the mass-spec context:
   * V. Asgeirsson, C. Bauer and S. Grimme, Chem. Sci., 2017, 8, 4879.
     DOI: 10.1039/c7sc00601b
   
   for metadynamics refer to:
   * S. Grimme, J. Chem. Theory Comput., 2019, 155, 2847-2862
     DOI: 10.1021/acs.jctc.9b00143
   
   with help from (in alphabetical order)
   C. Bannwarth, F. Bohle, G. Brandenburg, E. Caldeweyher, M. Checinski,
   S. Dohm, S. Ehlert, S. Ehrlich, F. März, H. Neugebauer, J. Pisarek,
   P. Pracht, P. Shushkov, and S. Spicher.
   
 * started run on 2020/08/17 at 13:14:14.992     

           -------------------------------------------------
          |                Calculation Setup                |
           -------------------------------------------------

          program call               : /opt/orca/otool_xtb /tmp/slurm-scratch/freq.90/freq_XTB.xyz --grad -c 0 -u 0 -P 8 --namespace /tmp/slurm-scratch/freq.90/freq --gbsa CH2Cl2
          hostname                   : headnode-pbs
          calculation namespace      : /tmp/slurm-scratch/freq.90/freq
          coordinate file            : /tmp/slurm-scratch/freq.90/freq_XTB.xyz
          omp threads                :                     8
          number of atoms            :                    36
          number of electrons        :                    88
          charge                     :                     0
          spin                       :                   0.0
          first test random number   :      0.74414962029677


molecular fragmentation (1/2 indicates fragments):
111111111111111111212222222111111111
# atoms in fragment 1/2:    28     8
 fragment masses (1/2) :      162.25       53.04
CMA distance (Bohr)    :   5.186
constraining FC (au)   :  0.0500

########################################################################
# WARNING! Please study the warnings concerning your input carefully
#  - Process number higher than OMP_NUM_THREADS, I hope you know what you are doing.
########################################################################

           ------------------------------------------------- 
          |                 G F N 2 - x T B                 |
          | Geometry, Frequencies, Noncovalent interactions |
          |            JCTC 2019 parametrisation            |
           ------------------------------------------------- 
             k(s)              :                1.8500
             k(p)              :                2.2300
             k(d)              :                2.2300
             k(f)              :                2.0000
             kEN (H0ij)        :               -2.0000
             D4 a1             :                0.5200
             D4 a2             :                5.0000
             D4 s6             :                1.0000
             D4 s8             :                2.7000
             D4 s9             :                5.0000
             alphaj            :                2.0000

  Z AO/shell   Hii/eV     exponent
  1     Wed Apr 25 08:07:45 CEST 2018   EN: 2.200 GM2: 0.406  GM3: 0.0800  RAES: 1.40
     1s    -10.707211    1.230000
  6     Wed Apr 25 08:07:45 CEST 2018   EN: 2.550 GM2: 0.538  GM3: 0.1500  RAES: 3.00
     2s    -13.970922    2.096432
     2p    -10.063292    1.800000
  7     Wed Apr 25 08:07:45 CEST 2018   EN: 3.040 GM2: 0.461  GM3:-0.0640  RAES: 1.90
     2s    -16.686243    2.339881
     2p    -12.523956    2.014332
  8     Wed Apr 25 08:07:45 CEST 2018   EN: 3.440 GM2: 0.452  GM3:-0.0517  RAES: 1.80
     2s    -20.229985    2.439742
     2p    -15.503117    2.137023

 Solvent             : CH2Cl2
 Using internal parameter file: .param_gbsa2_CH2Cl2
 Gsolv ref. state (COSMO-RS): gsolv [1 M gas/solution]
 temperature (mdtemp)       :    298.150000000000     
 dielectric constant        :    8.93000000000000     
 rho                        :    1.33000000000000     
 mass                       :    84.9300000000000     
 surface tension            :    15.5689454083859     
 probe radius               :   0.719875900000000     
 Gshift (Eh)                :   4.440829173451759E-003
 c1                         :    1.49173776000000     
 soset                      :   0.000000000000000E+000
 HB correction              :  F
           ------------------------------------------------- 
          |        Self-Consistent Charge Iterations        |
           ------------------------------------------------- 

          ...................................................
          :                      SETUP                      :
          :.................................................:
          :  # basis functions                  81          :
          :  # atomic orbitals                  81          :
          :  # shells                           51          :
          :  # electrons                        88          :
          :  max. iterations                   250          :
          :  Hamiltonian                  GFN2-xTB          :
          :  GBSA solvation                   true          :
          :  PC potential                    false          :
          :  electronic temp.          300.0000000     K    :
          :  accuracy                    1.0000000          :
          :  -> integral cutoff          0.2500000E+02      :
          :  -> integral neglect         0.1000000E-07      :
          :  -> SCF convergence          0.1000000E-05 Eh   :
          :  -> wf. convergence          0.1000000E-03 e    :
          :  Broyden damping             0.4000000          :
          ...................................................
  Checking positiv definite overlap ...  done.
 

 iter      E             dE          RMSdq      gap      omega  full diag
   1    -49.8715150 -0.498715E+02  0.388E+00    3.52       0.0  T
   2    -49.9585680 -0.870530E-01  0.221E+00    2.97       1.0  T
   3    -49.9595811 -0.101310E-02  0.924E-01    2.13       1.0  T
   4    -49.9632412 -0.366009E-02  0.384E-01    2.30       1.0  T
   5    -49.9662940 -0.305280E-02  0.837E-02    2.27       1.0  T
   6    -49.9663422 -0.482239E-04  0.364E-02    2.31       1.0  T
   7    -49.9663499 -0.764044E-05  0.178E-02    2.32       1.0  T
   8    -49.9663530 -0.311362E-05  0.611E-03    2.32       2.7  T
   9    -49.9663532 -0.194967E-06  0.216E-03    2.32       7.7  T
  10    -49.9663533 -0.671742E-07  0.101E-03    2.32      16.4  T
  11    -49.9663533 -0.320046E-08  0.351E-04    2.32      47.5  T
  12    -49.9663533 -0.108773E-08  0.123E-04    2.32     135.1  T

   *** convergence criteria satisfied after 12 iterations ***

         #    Occupation            Energy/Eh            Energy/eV
      -------------------------------------------------------------
         1        2.0000           -0.6870044             -18.6943
       ...           ...                  ...                  ...
        38        2.0000           -0.4296416             -11.6911
        39        2.0000           -0.4247514             -11.5581
        40        2.0000           -0.4204783             -11.4418
        41        2.0000           -0.4184646             -11.3870
        42        2.0000           -0.4058561             -11.0439
        43        2.0000           -0.3886660             -10.5761
        44        2.0000           -0.3798405             -10.3360 (HOMO)
        45                         -0.2945379              -8.0148 (LUMO)
        46                         -0.2394811              -6.5166
        47                         -0.2086175              -5.6768
        48                         -0.1022171              -2.7815
        49                         -0.0219235              -0.5966
       ...                                ...                  ...
        81                          0.6429922              17.4967
      -------------------------------------------------------------
                  HL-Gap            0.0853026 Eh            2.3212 eV
             Fermi-level           -0.3371892 Eh           -9.1754 eV

 SCC (total)                   0 d,  0 h,  0 min,  0.150 sec
 SCC setup                      ...        0 min,  0.005 sec (  3.546%)
 Dispersion                     ...        0 min,  0.002 sec (  1.086%)
 integral evaluation            ...        0 min,  0.017 sec ( 11.565%)
 zeroth order Hamiltonian       ...        0 min,  0.000 sec (  0.015%)
 iterations                     ...        0 min,  0.114 sec ( 76.409%)
 molecular gradient             ...        0 min,  0.010 sec (  6.517%)
 printout                       ...        0 min,  0.001 sec (  0.806%)

         :::::::::::::::::::::::::::::::::::::::::::::::::::::
         ::                     SUMMARY                     ::
         :::::::::::::::::::::::::::::::::::::::::::::::::::::
         :: total energy             -49.342681523789 Eh    ::
         :: total w/o Gsasa/hb       -49.324338132772 Eh    ::
         :: gradient norm              0.030347263341 Eh/a0 ::
         :: HOMO-LUMO gap              2.321200953988 eV    ::
         ::.................................................::
         :: SCC energy               -49.984696656052 Eh    ::
         :: -> isotropic ES            0.177231054646 Eh    ::
         :: -> anisotropic ES         -0.024569119144 Eh    ::
         :: -> anisotropic XC          0.022890899300 Eh    ::
         :: -> dispersion             -0.028593846549 Eh    ::
         :: -> Gsolv                  -0.040988033017 Eh    ::
         ::    -> Gborn               -0.022644642000 Eh    ::
         ::    -> Gsasa               -0.022784220190 Eh    ::
         ::    -> Ghb                  0.000000000000 Eh    ::
         ::    -> Gshift               0.004440829173 Eh    ::
         :: repulsion energy           0.641819583944 Eh    ::
         :: add. restraining           0.000000000000 Eh    ::
         :::::::::::::::::::::::::::::::::::::::::::::::::::::

           -------------------------------------------------
          |                Property Printout                |
           -------------------------------------------------

    * Orbital Energies and Occupations

         #    Occupation            Energy/Eh            Energy/eV
      -------------------------------------------------------------
         1        2.0000           -0.6870044             -18.6943
       ...           ...                  ...                  ...
        32        2.0000           -0.4669546             -12.7065
        33        2.0000           -0.4517768             -12.2935
        34        2.0000           -0.4495160             -12.2320
        35        2.0000           -0.4423327             -12.0365
        36        2.0000           -0.4381712             -11.9232
        37        2.0000           -0.4371498             -11.8955
        38        2.0000           -0.4296416             -11.6911
        39        2.0000           -0.4247514             -11.5581
        40        2.0000           -0.4204783             -11.4418
        41        2.0000           -0.4184646             -11.3870
        42        2.0000           -0.4058561             -11.0439
        43        2.0000           -0.3886660             -10.5761
        44        2.0000           -0.3798405             -10.3360 (HOMO)
        45                         -0.2945379              -8.0148 (LUMO)
        46                         -0.2394811              -6.5166
        47                         -0.2086175              -5.6768
        48                         -0.1022171              -2.7815
        49                         -0.0219235              -0.5966
        50                          0.0269739               0.7340
        51                          0.0753350               2.0500
        52                          0.0905593               2.4642
        53                          0.0979160               2.6644
        54                          0.1124264               3.0593
        55                          0.1187883               3.2324
       ...                                ...                  ...
        81                          0.6429922              17.4967
      -------------------------------------------------------------
                  HL-Gap            0.0853026 Eh            2.3212 eV
             Fermi-level           -0.3371892 Eh           -9.1754 eV

     #   Z        covCN         q      C6AA      α(0)
     1   6 C      2.971     0.015    27.679     8.630
     2   6 C      2.917    -0.027    28.665     8.780
     3   6 C      2.915    -0.024    28.596     8.769
     4   6 C      2.916    -0.019    28.472     8.750
     5   6 C      2.914    -0.024    28.607     8.771
     6   6 C      2.924    -0.025    28.624     8.774
     7   6 C      2.849     0.094    25.906     8.342
     8   1 H      0.926     0.061     2.190     2.314
     9   1 H      0.925     0.057     2.230     2.335
    10   1 H      0.925     0.055     2.261     2.351
    11   7 N      2.682    -0.056    22.331     7.018
    12   6 C      3.745    -0.015    20.920     6.524
    13   1 H      0.859     0.248     0.892     1.480
    14   6 C      3.802    -0.070    21.830     6.652
    15   1 H      0.925     0.072     2.060     2.245
    16   1 H      0.924     0.077     2.007     2.216
    17   1 H      0.924     0.055     2.255     2.349
    18   1 H      0.924     0.055     2.258     2.350
    19   8 O      1.424    -0.695    27.832     7.107
    20   1 H      0.926     0.104     1.747     2.067
    21   1 H      0.805     0.246     0.910     1.499
    22   8 O      1.277    -0.805    31.281     7.518
    23   1 H      1.072     0.325     0.635     1.245
    24   1 H      0.805     0.217     1.033     1.597
    25   8 O      1.597    -0.656    26.565     6.956
    26   1 H      0.801     0.322     0.659     1.275
    27   1 H      0.805     0.271     0.816     1.419
    28   6 C      3.800    -0.055    21.562     6.611
    29   1 H      0.924     0.037     2.494     2.470
    30   1 H      0.924     0.040     2.452     2.449
    31   1 H      0.925     0.055     2.255     2.348
    32   1 H      0.925     0.052     2.292     2.368
    33   6 C      3.750    -0.105    22.578     6.777
    34   1 H      0.924     0.039     2.466     2.456
    35   1 H      0.924     0.040     2.450     2.448
    36   1 H      0.924     0.038     2.478     2.462

 Mol. C6AA /au·bohr⁶  :      10848.617508
 Mol. C8AA /au·bohr⁸  :     239939.329021
 Mol. α(0) /au        :        159.717689


Wiberg/Mayer (AO) data.
largest (>0.10) Wiberg bond orders for each atom
          total WBO             WBO to atom ...
     1  C   3.985        C    6 1.367    C    2 1.362    C    7 1.097
     2  C   3.989        C    3 1.464    C    1 1.362    H    8 0.958    C    5 0.105
     3  C   3.991        C    2 1.464    C    4 1.424    H   32 0.969    C    6 0.104
     4  C   3.986        C    5 1.432    C    3 1.424    H   10 0.970
     5  C   3.990        C    6 1.456    C    4 1.432    H   31 0.969    C    2 0.105
     6  C   3.986        C    5 1.456    C    1 1.367    H    9 0.967    C    3 0.104
     7  C   3.927        N   11 1.567    C    1 1.097    H   20 0.948    O   19 0.201
     8  H   0.996        C    2 0.958
     9  H   0.997        C    6 0.967
    10  H   0.997        C    4 0.970
    11  N   3.629        C    7 1.567    C   12 0.982    H   13 0.852
    12  C   3.952        C   14 0.996    N   11 0.982    H   15 0.969    H   16 0.953
    13  H   0.939        N   11 0.852
    14  C   3.988        C   28 1.005    C   12 0.996    H   18 0.975    H   17 0.974
    15  H   0.995        C   12 0.969
    16  H   0.991        C   12 0.953
    17  H   0.997        C   14 0.974
    18  H   0.997        C   14 0.975
    19  O   1.874        H   21 0.935    H   23 0.483    C    7 0.201    O   22 0.110
    20  H   0.988        C    7 0.948
    21  H   0.940        O   19 0.935
    22  O   1.661        H   24 0.948    H   23 0.407    H   26 0.134    O   19 0.110
    23  H   0.894        O   19 0.483    O   22 0.407
    24  H   0.953        O   22 0.948
    25  O   1.822        H   27 0.920    H   26 0.757
    26  H   0.896        O   25 0.757    O   22 0.134
    27  H   0.927        O   25 0.920
    28  C   3.995        C   33 1.019    C   14 1.005    H   29 0.977    H   30 0.977
    29  H   0.999        C   28 0.977
    30  H   0.998        C   28 0.977
    31  H   0.996        C    5 0.969
    32  H   0.997        C    3 0.969
    33  C   3.995        C   28 1.019    H   36 0.987    H   35 0.987    H   34 0.987
    34  H   0.998        C   33 0.987
    35  H   0.998        C   33 0.987
    36  H   0.999        C   33 0.987

molecular dipole:
                 x           y           z       tot (Debye)
 q only:        0.338      -2.787       1.309
   full:        0.496      -2.210       1.235       6.557
molecular quadrupole (traceless):
                xx          xy          yy          xz          yz          zz
 q only:       10.808      43.436     -19.572      -7.678      24.574       8.764
  q+dip:        5.393      31.191     -14.868      -8.595      23.748       9.475
   full:        4.613      33.235     -13.524      -8.797      21.884       8.911

           -------------------------------------------------
          |                Property Printout                |
           -------------------------------------------------

    * Orbital Energies and Occupations

         #    Occupation            Energy/Eh            Energy/eV
      -------------------------------------------------------------
         1        2.0000           -0.6870044             -18.6943
       ...           ...                  ...                  ...
        32        2.0000           -0.4669546             -12.7065
        33        2.0000           -0.4517768             -12.2935
        34        2.0000           -0.4495160             -12.2320
        35        2.0000           -0.4423327             -12.0365
        36        2.0000           -0.4381712             -11.9232
        37        2.0000           -0.4371498             -11.8955
        38        2.0000           -0.4296416             -11.6911
        39        2.0000           -0.4247514             -11.5581
        40        2.0000           -0.4204783             -11.4418
        41        2.0000           -0.4184646             -11.3870
        42        2.0000           -0.4058561             -11.0439
        43        2.0000           -0.3886660             -10.5761
        44        2.0000           -0.3798405             -10.3360 (HOMO)
        45                         -0.2945379              -8.0148 (LUMO)
        46                         -0.2394811              -6.5166
        47                         -0.2086175              -5.6768
        48                         -0.1022171              -2.7815
        49                         -0.0219235              -0.5966
        50                          0.0269739               0.7340
        51                          0.0753350               2.0500
        52                          0.0905593               2.4642
        53                          0.0979160               2.6644
        54                          0.1124264               3.0593
        55                          0.1187883               3.2324
       ...                                ...                  ...
        81                          0.6429922              17.4967
      -------------------------------------------------------------
                  HL-Gap            0.0853026 Eh            2.3212 eV
             Fermi-level           -0.3371892 Eh           -9.1754 eV

     #   Z        covCN         q      C6AA      α(0)
     1   6 C      2.971     0.015    27.679     8.630
     2   6 C      2.917    -0.027    28.665     8.780
     3   6 C      2.915    -0.024    28.596     8.769
     4   6 C      2.916    -0.019    28.472     8.750
     5   6 C      2.914    -0.024    28.607     8.771
     6   6 C      2.924    -0.025    28.624     8.774
     7   6 C      2.849     0.094    25.906     8.342
     8   1 H      0.926     0.061     2.190     2.314
     9   1 H      0.925     0.057     2.230     2.335
    10   1 H      0.925     0.055     2.261     2.351
    11   7 N      2.682    -0.056    22.331     7.018
    12   6 C      3.745    -0.015    20.920     6.524
    13   1 H      0.859     0.248     0.892     1.480
    14   6 C      3.802    -0.070    21.830     6.652
    15   1 H      0.925     0.072     2.060     2.245
    16   1 H      0.924     0.077     2.007     2.216
    17   1 H      0.924     0.055     2.255     2.349
    18   1 H      0.924     0.055     2.258     2.350
    19   8 O      1.424    -0.695    27.832     7.107
    20   1 H      0.926     0.104     1.747     2.067
    21   1 H      0.805     0.246     0.910     1.499
    22   8 O      1.277    -0.805    31.281     7.518
    23   1 H      1.072     0.325     0.635     1.245
    24   1 H      0.805     0.217     1.033     1.597
    25   8 O      1.597    -0.656    26.565     6.956
    26   1 H      0.801     0.322     0.659     1.275
    27   1 H      0.805     0.271     0.816     1.419
    28   6 C      3.800    -0.055    21.562     6.611
    29   1 H      0.924     0.037     2.494     2.470
    30   1 H      0.924     0.040     2.452     2.449
    31   1 H      0.925     0.055     2.255     2.348
    32   1 H      0.925     0.052     2.292     2.368
    33   6 C      3.750    -0.105    22.578     6.777
    34   1 H      0.924     0.039     2.466     2.456
    35   1 H      0.924     0.040     2.450     2.448
    36   1 H      0.924     0.038     2.478     2.462

 Mol. C6AA /au·bohr⁶  :      10848.617508
 Mol. C8AA /au·bohr⁸  :     239939.329021
 Mol. α(0) /au        :        159.717689


Wiberg/Mayer (AO) data.
largest (>0.10) Wiberg bond orders for each atom
          total WBO             WBO to atom ...
     1  C   3.985        C    6 1.367    C    2 1.362    C    7 1.097
     2  C   3.989        C    3 1.464    C    1 1.362    H    8 0.958    C    5 0.105
     3  C   3.991        C    2 1.464    C    4 1.424    H   32 0.969    C    6 0.104
     4  C   3.986        C    5 1.432    C    3 1.424    H   10 0.970
     5  C   3.990        C    6 1.456    C    4 1.432    H   31 0.969    C    2 0.105
     6  C   3.986        C    5 1.456    C    1 1.367    H    9 0.967    C    3 0.104
     7  C   3.927        N   11 1.567    C    1 1.097    H   20 0.948    O   19 0.201
     8  H   0.996        C    2 0.958
     9  H   0.997        C    6 0.967
    10  H   0.997        C    4 0.970
    11  N   3.629        C    7 1.567    C   12 0.982    H   13 0.852
    12  C   3.952        C   14 0.996    N   11 0.982    H   15 0.969    H   16 0.953
    13  H   0.939        N   11 0.852
    14  C   3.988        C   28 1.005    C   12 0.996    H   18 0.975    H   17 0.974
    15  H   0.995        C   12 0.969
    16  H   0.991        C   12 0.953
    17  H   0.997        C   14 0.974
    18  H   0.997        C   14 0.975
    19  O   1.874        H   21 0.935    H   23 0.483    C    7 0.201    O   22 0.110
    20  H   0.988        C    7 0.948
    21  H   0.940        O   19 0.935
    22  O   1.661        H   24 0.948    H   23 0.407    H   26 0.134    O   19 0.110
    23  H   0.894        O   19 0.483    O   22 0.407
    24  H   0.953        O   22 0.948
    25  O   1.822        H   27 0.920    H   26 0.757
    26  H   0.896        O   25 0.757    O   22 0.134
    27  H   0.927        O   25 0.920
    28  C   3.995        C   33 1.019    C   14 1.005    H   29 0.977    H   30 0.977
    29  H   0.999        C   28 0.977
    30  H   0.998        C   28 0.977
    31  H   0.996        C    5 0.969
    32  H   0.997        C    3 0.969
    33  C   3.995        C   28 1.019    H   36 0.987    H   35 0.987    H   34 0.987
    34  H   0.998        C   33 0.987
    35  H   0.998        C   33 0.987
    36  H   0.999        C   33 0.987

molecular dipole:
                 x           y           z       tot (Debye)
 q only:        0.338      -2.787       1.309
   full:        0.496      -2.210       1.235       6.557
molecular quadrupole (traceless):
                xx          xy          yy          xz          yz          zz
 q only:       10.808      43.436     -19.572      -7.678      24.574       8.764
  q+dip:        5.393      31.191     -14.868      -8.595      23.748       9.475
   full:        4.613      33.235     -13.524      -8.797      21.884       8.911


           -------------------------------------------------
          | TOTAL ENERGY              -49.342681523789 Eh   |
          | GRADIENT NORM               0.030347263341 Eh/α |
          | HOMO-LUMO GAP               2.321200953988 eV   |
           -------------------------------------------------

------------------------------------------------------------------------
 * finished run on 2020/08/17 at 13:14:15.372     
------------------------------------------------------------------------
 total:
 * wall-time:     0 d,  0 h,  0 min,  0.380 sec
 *  cpu-time:     0 d,  0 h,  0 min,  2.000 sec
 * ratio c/w:     5.261 speedup
 SCF:
 * wall-time:     0 d,  0 h,  0 min,  0.159 sec
 *  cpu-time:     0 d,  0 h,  0 min,  0.841 sec
 * ratio c/w:     5.274 speedup


-------------------------   --------------------
FINAL SINGLE POINT ENERGY       -49.342681523790
-------------------------   --------------------


----------------------------------------------------------------------------
                           ORCA NUMERICAL FREQUENCIES
                              (8-process run)
----------------------------------------------------------------------------

Number of atoms                ... 36
Central differences            ... used
Number of displacements        ... 216
Numerical increment            ... 5.000e-03 bohr
IR-spectrum generation         ... on
Raman-spectrum generation      ... off
Surface Crossing Hessian       ... off
List of participating nodes    ...  /tmp/slurm-scratch/freq.90/freq.hostnames

The output will be reduced. Please look at the following files:
SCF program output             ... >/tmp/slurm-scratch/freq.90/freq.lastscf
Integral program output        ... >/tmp/slurm-scratch/freq.90/freq.lastint
Gradient program output        ... >/tmp/slurm-scratch/freq.90/freq.lastgrad
Dipole moment program output   ... >/tmp/slurm-scratch/freq.90/freq.lastmom
AutoCI program output          ... >/tmp/slurm-scratch/freq.90/freq.lastautoci


         <<< Energy and Gradient at the input geometry >>>

        <<< Energy and Gradient at displaced geometries >>>
             <<<Displacing   1/coordinate 1 (+)>>>
             <<<Displacing   2/coordinate 3 (+)>>>
             <<<Displacing   2/coordinate 1 (+)>>>
             <<<Displacing   1/coordinate 3 (+)>>>
             <<<Displacing   3/coordinate 2 (+)>>>
             <<<Displacing   3/coordinate 1 (+)>>>
             <<<Displacing   1/coordinate 2 (+)>>>
             <<<Displacing   2/coordinate 2 (+)>>>
             <<<Displacing   2/coordinate 3 (-)>>>
             <<<Displacing   1/coordinate 2 (-)>>>
             <<<Displacing   1/coordinate 1 (-)>>>
             <<<Displacing   3/coordinate 2 (-)>>>
             <<<Displacing   2/coordinate 2 (-)>>>
             <<<Displacing   3/coordinate 1 (-)>>>
             <<<Displacing   2/coordinate 1 (-)>>>
             <<<Displacing   1/coordinate 3 (-)>>>
             <<<Displacing   4/coordinate 1 (+)>>>
             <<<Displacing   5/coordinate 3 (+)>>>
             <<<Displacing   3/coordinate 3 (+)>>>
             <<<Displacing   4/coordinate 3 (+)>>>
             <<<Displacing   6/coordinate 1 (+)>>>
             <<<Displacing   4/coordinate 2 (+)>>>
             <<<Displacing   4/coordinate 1 (-)>>>
             <<<Displacing   5/coordinate 3 (-)>>>
             <<<Displacing   4/coordinate 3 (-)>>>
             <<<Displacing   3/coordinate 3 (-)>>>
             <<<Displacing   5/coordinate 2 (+)>>>
             <<<Displacing   4/coordinate 2 (-)>>>
             <<<Displacing   6/coordinate 1 (-)>>>
             <<<Displacing   5/coordinate 2 (-)>>>
             <<<Displacing   5/coordinate 1 (+)>>>
             <<<Displacing   5/coordinate 1 (-)>>>
             <<<Displacing   7/coordinate 1 (+)>>>
             <<<Displacing   7/coordinate 2 (+)>>>
             <<<Displacing   7/coordinate 3 (+)>>>
             <<<Displacing   7/coordinate 1 (-)>>>
             <<<Displacing   6/coordinate 2 (+)>>>
             <<<Displacing   6/coordinate 3 (+)>>>
             <<<Displacing   8/coordinate 2 (+)>>>
             <<<Displacing   7/coordinate 2 (-)>>>
             <<<Displacing   8/coordinate 1 (+)>>>
             <<<Displacing   6/coordinate 2 (-)>>>
             <<<Displacing   7/coordinate 3 (-)>>>
             <<<Displacing   8/coordinate 3 (+)>>>
             <<<Displacing   8/coordinate 2 (-)>>>
             <<<Displacing   6/coordinate 3 (-)>>>
             <<<Displacing   8/coordinate 1 (-)>>>
             <<<Displacing   8/coordinate 3 (-)>>>
             <<<Displacing  10/coordinate 3 (+)>>>
             <<<Displacing  10/coordinate 2 (+)>>>
             <<<Displacing   9/coordinate 1 (+)>>>
             <<<Displacing  11/coordinate 1 (+)>>>
             <<<Displacing   9/coordinate 2 (+)>>>
             <<<Displacing  10/coordinate 3 (-)>>>
             <<<Displacing  10/coordinate 2 (-)>>>
             <<<Displacing   9/coordinate 3 (+)>>>
             <<<Displacing   9/coordinate 1 (-)>>>
             <<<Displacing  11/coordinate 2 (+)>>>
             <<<Displacing  11/coordinate 1 (-)>>>
             <<<Displacing  10/coordinate 1 (+)>>>
             <<<Displacing   9/coordinate 2 (-)>>>
             <<<Displacing  11/coordinate 2 (-)>>>
             <<<Displacing   9/coordinate 3 (-)>>>
             <<<Displacing  10/coordinate 1 (-)>>>
             <<<Displacing  11/coordinate 3 (+)>>>
             <<<Displacing  13/coordinate 2 (+)>>>
             <<<Displacing  12/coordinate 1 (+)>>>
             <<<Displacing  12/coordinate 3 (+)>>>
             <<<Displacing  13/coordinate 1 (+)>>>
             <<<Displacing  11/coordinate 3 (-)>>>
             <<<Displacing  13/coordinate 3 (+)>>>
             <<<Displacing  14/coordinate 1 (+)>>>
             <<<Displacing  12/coordinate 3 (-)>>>
             <<<Displacing  12/coordinate 1 (-)>>>
             <<<Displacing  13/coordinate 2 (-)>>>
             <<<Displacing  13/coordinate 1 (-)>>>
             <<<Displacing  12/coordinate 2 (+)>>>
             <<<Displacing  13/coordinate 3 (-)>>>
             <<<Displacing  14/coordinate 1 (-)>>>
             <<<Displacing  12/coordinate 2 (-)>>>
             <<<Displacing  14/coordinate 2 (+)>>>
             <<<Displacing  14/coordinate 3 (+)>>>
             <<<Displacing  14/coordinate 3 (-)>>>
             <<<Displacing  14/coordinate 2 (-)>>>
             <<<Displacing  16/coordinate 2 (+)>>>
             <<<Displacing  15/coordinate 1 (+)>>>
             <<<Displacing  16/coordinate 2 (-)>>>
             <<<Displacing  15/coordinate 3 (+)>>>
             <<<Displacing  15/coordinate 1 (-)>>>
             <<<Displacing  15/coordinate 3 (-)>>>
             <<<Displacing  15/coordinate 2 (+)>>>
             <<<Displacing  16/coordinate 1 (+)>>>
             <<<Displacing  15/coordinate 2 (-)>>>
             <<<Displacing  16/coordinate 1 (-)>>>
             <<<Displacing  16/coordinate 3 (+)>>>
             <<<Displacing  16/coordinate 3 (-)>>>
             <<<Displacing  17/coordinate 1 (+)>>>
             <<<Displacing  17/coordinate 1 (-)>>>
             <<<Displacing  17/coordinate 2 (+)>>>
             <<<Displacing  17/coordinate 3 (+)>>>
             <<<Displacing  17/coordinate 2 (-)>>>
             <<<Displacing  17/coordinate 3 (-)>>>
             <<<Displacing  18/coordinate 1 (+)>>>
             <<<Displacing  18/coordinate 2 (+)>>>
             <<<Displacing  19/coordinate 1 (+)>>>
             <<<Displacing  18/coordinate 1 (-)>>>
             <<<Displacing  18/coordinate 3 (+)>>>
             <<<Displacing  18/coordinate 2 (-)>>>
             <<<Displacing  19/coordinate 1 (-)>>>
             <<<Displacing  19/coordinate 2 (+)>>>
             <<<Displacing  18/coordinate 3 (-)>>>
             <<<Displacing  19/coordinate 2 (-)>>>
             <<<Displacing  19/coordinate 3 (+)>>>
             <<<Displacing  19/coordinate 3 (-)>>>
             <<<Displacing  20/coordinate 1 (+)>>>
             <<<Displacing  20/coordinate 2 (+)>>>
             <<<Displacing  20/coordinate 1 (-)>>>
             <<<Displacing  21/coordinate 1 (+)>>>
             <<<Displacing  20/coordinate 2 (-)>>>
             <<<Displacing  21/coordinate 1 (-)>>>
             <<<Displacing  20/coordinate 3 (+)>>>
             <<<Displacing  22/coordinate 1 (+)>>>
             <<<Displacing  21/coordinate 2 (+)>>>
             <<<Displacing  20/coordinate 3 (-)>>>
             <<<Displacing  21/coordinate 3 (+)>>>
             <<<Displacing  22/coordinate 1 (-)>>>
             <<<Displacing  21/coordinate 2 (-)>>>
             <<<Displacing  21/coordinate 3 (-)>>>
             <<<Displacing  22/coordinate 2 (+)>>>
             <<<Displacing  22/coordinate 2 (-)>>>
             <<<Displacing  23/coordinate 1 (+)>>>
             <<<Displacing  22/coordinate 3 (+)>>>
             <<<Displacing  23/coordinate 1 (-)>>>
             <<<Displacing  22/coordinate 3 (-)>>>
             <<<Displacing  23/coordinate 2 (+)>>>
             <<<Displacing  24/coordinate 2 (+)>>>
             <<<Displacing  23/coordinate 3 (+)>>>
             <<<Displacing  23/coordinate 2 (-)>>>
             <<<Displacing  24/coordinate 2 (-)>>>
             <<<Displacing  23/coordinate 3 (-)>>>
             <<<Displacing  24/coordinate 1 (+)>>>
             <<<Displacing  24/coordinate 3 (+)>>>
             <<<Displacing  24/coordinate 1 (-)>>>
             <<<Displacing  24/coordinate 3 (-)>>>
             <<<Displacing  25/coordinate 1 (+)>>>
             <<<Displacing  25/coordinate 2 (+)>>>
             <<<Displacing  25/coordinate 1 (-)>>>
             <<<Displacing  25/coordinate 2 (-)>>>
             <<<Displacing  25/coordinate 3 (+)>>>
             <<<Displacing  25/coordinate 3 (-)>>>
             <<<Displacing  27/coordinate 2 (+)>>>
             <<<Displacing  27/coordinate 2 (-)>>>
             <<<Displacing  26/coordinate 1 (+)>>>
             <<<Displacing  27/coordinate 1 (+)>>>
             <<<Displacing  26/coordinate 2 (+)>>>
             <<<Displacing  26/coordinate 3 (+)>>>
             <<<Displacing  26/coordinate 1 (-)>>>
             <<<Displacing  27/coordinate 1 (-)>>>
             <<<Displacing  26/coordinate 2 (-)>>>
             <<<Displacing  26/coordinate 3 (-)>>>
             <<<Displacing  27/coordinate 3 (+)>>>
             <<<Displacing  28/coordinate 1 (+)>>>
             <<<Displacing  27/coordinate 3 (-)>>>
             <<<Displacing  28/coordinate 1 (-)>>>
             <<<Displacing  28/coordinate 2 (+)>>>
             <<<Displacing  28/coordinate 2 (-)>>>
             <<<Displacing  29/coordinate 1 (+)>>>
             <<<Displacing  29/coordinate 1 (-)>>>
             <<<Displacing  29/coordinate 2 (+)>>>
             <<<Displacing  29/coordinate 3 (+)>>>
             <<<Displacing  29/coordinate 2 (-)>>>
             <<<Displacing  28/coordinate 3 (+)>>>
             <<<Displacing  29/coordinate 3 (-)>>>
             <<<Displacing  30/coordinate 1 (+)>>>
             <<<Displacing  28/coordinate 3 (-)>>>
             <<<Displacing  30/coordinate 1 (-)>>>
             <<<Displacing  30/coordinate 2 (+)>>>
             <<<Displacing  30/coordinate 3 (+)>>>
             <<<Displacing  30/coordinate 2 (-)>>>
             <<<Displacing  30/coordinate 3 (-)>>>
             <<<Displacing  31/coordinate 1 (+)>>>
             <<<Displacing  31/coordinate 1 (-)>>>
             <<<Displacing  32/coordinate 1 (+)>>>
             <<<Displacing  31/coordinate 3 (+)>>>
             <<<Displacing  32/coordinate 1 (-)>>>
             <<<Displacing  31/coordinate 3 (-)>>>
             <<<Displacing  31/coordinate 2 (+)>>>
             <<<Displacing  32/coordinate 2 (+)>>>
             <<<Displacing  31/coordinate 2 (-)>>>
             <<<Displacing  32/coordinate 3 (+)>>>
             <<<Displacing  32/coordinate 2 (-)>>>
             <<<Displacing  32/coordinate 3 (-)>>>
             <<<Displacing  33/coordinate 1 (+)>>>
             <<<Displacing  33/coordinate 2 (+)>>>
             <<<Displacing  33/coordinate 1 (-)>>>
             <<<Displacing  33/coordinate 2 (-)>>>
             <<<Displacing  33/coordinate 3 (+)>>>
             <<<Displacing  33/coordinate 3 (-)>>>
             <<<Displacing  34/coordinate 1 (+)>>>
             <<<Displacing  34/coordinate 2 (+)>>>
             <<<Displacing  34/coordinate 1 (-)>>>
             <<<Displacing  34/coordinate 2 (-)>>>
             <<<Displacing  35/coordinate 1 (+)>>>
             <<<Displacing  34/coordinate 3 (+)>>>
             <<<Displacing  35/coordinate 1 (-)>>>
             <<<Displacing  35/coordinate 2 (+)>>>
             <<<Displacing  34/coordinate 3 (-)>>>
             <<<Displacing  35/coordinate 2 (-)>>>
             <<<Displacing  35/coordinate 3 (+)>>>
             <<<Displacing  35/coordinate 3 (-)>>>
             <<<Displacing  36/coordinate 1 (+)>>>
             <<<Displacing  36/coordinate 1 (-)>>>
             <<<Displacing  36/coordinate 2 (+)>>>
             <<<Displacing  36/coordinate 2 (-)>>>
             <<<Displacing  36/coordinate 3 (+)>>>
             <<<Displacing  36/coordinate 3 (-)>>>

-----------------------
VIBRATIONAL FREQUENCIES
-----------------------

Scaling factor for frequencies =  1.000000000 (already applied!)

   0:         0.00 cm**-1
   1:         0.00 cm**-1
   2:         0.00 cm**-1
   3:         0.00 cm**-1
   4:         0.00 cm**-1
   5:         0.00 cm**-1
   6:      -535.10 cm**-1 ***imaginary mode***
   7:        23.15 cm**-1
   8:        45.75 cm**-1
   9:        52.87 cm**-1
  10:        59.53 cm**-1
  11:        80.48 cm**-1
  12:        81.43 cm**-1
  13:        88.33 cm**-1
  14:       114.83 cm**-1
  15:       121.94 cm**-1
  16:       153.01 cm**-1
  17:       164.28 cm**-1
  18:       179.35 cm**-1
  19:       210.34 cm**-1
  20:       242.15 cm**-1
  21:       268.91 cm**-1
  22:       274.25 cm**-1
  23:       299.71 cm**-1
  24:       327.87 cm**-1
  25:       375.74 cm**-1
  26:       381.13 cm**-1
  27:       400.05 cm**-1
  28:       429.90 cm**-1
  29:       470.82 cm**-1
  30:       501.99 cm**-1
  31:       528.49 cm**-1
  32:       546.43 cm**-1
  33:       589.03 cm**-1
  34:       605.24 cm**-1
  35:       618.38 cm**-1
  36:       630.91 cm**-1
  37:       664.01 cm**-1
  38:       708.89 cm**-1
  39:       757.06 cm**-1
  40:       771.73 cm**-1
  41:       782.17 cm**-1
  42:       801.59 cm**-1
  43:       820.40 cm**-1
  44:       855.54 cm**-1
  45:       872.28 cm**-1
  46:       908.68 cm**-1
  47:       932.68 cm**-1
  48:       939.01 cm**-1
  49:       945.09 cm**-1
  50:       945.31 cm**-1
  51:       959.35 cm**-1
  52:       986.16 cm**-1
  53:      1032.24 cm**-1
  54:      1057.42 cm**-1
  55:      1070.34 cm**-1
  56:      1078.97 cm**-1
  57:      1104.41 cm**-1
  58:      1110.83 cm**-1
  59:      1125.40 cm**-1
  60:      1131.60 cm**-1
  61:      1179.23 cm**-1
  62:      1181.42 cm**-1
  63:      1204.51 cm**-1
  64:      1214.36 cm**-1
  65:      1249.73 cm**-1
  66:      1256.22 cm**-1
  67:      1274.54 cm**-1
  68:      1277.34 cm**-1
  69:      1285.55 cm**-1
  70:      1293.85 cm**-1
  71:      1305.89 cm**-1
  72:      1318.95 cm**-1
  73:      1338.67 cm**-1
  74:      1369.53 cm**-1
  75:      1420.24 cm**-1
  76:      1428.36 cm**-1
  77:      1449.98 cm**-1
  78:      1453.72 cm**-1
  79:      1483.10 cm**-1
  80:      1495.27 cm**-1
  81:      1503.80 cm**-1
  82:      1505.87 cm**-1
  83:      1510.93 cm**-1
  84:      1539.58 cm**-1
  85:      1562.05 cm**-1
  86:      1565.80 cm**-1
  87:      1605.15 cm**-1
  88:      2423.64 cm**-1
  89:      2946.55 cm**-1
  90:      2962.68 cm**-1
  91:      2969.22 cm**-1
  92:      2975.00 cm**-1
  93:      2980.66 cm**-1
  94:      2982.76 cm**-1
  95:      2989.36 cm**-1
  96:      3000.98 cm**-1
  97:      3015.86 cm**-1
  98:      3060.29 cm**-1
  99:      3062.84 cm**-1
 100:      3069.91 cm**-1
 101:      3077.82 cm**-1
 102:      3085.98 cm**-1
 103:      3091.86 cm**-1
 104:      3116.84 cm**-1
 105:      3599.79 cm**-1
 106:      3602.83 cm**-1
 107:      3617.45 cm**-1


------------
NORMAL MODES
------------

These modes are the cartesian displacements weighted by the diagonal matrix
M(i,i)=1/sqrt(m[i]) where m[i] is the mass of the displaced atom
Thus, these vectors are normalized but *not* orthogonal

                  0          1          2          3          4          5    
      0       0.000000   0.000000   0.000000   0.000000   0.000000   0.000000
      1       0.000000   0.000000   0.000000   0.000000   0.000000   0.000000
      2       0.000000   0.000000   0.000000   0.000000   0.000000   0.000000
      3       0.000000   0.000000   0.000000   0.000000   0.000000   0.000000
      4       0.000000   0.000000   0.000000   0.000000   0.000000   0.000000
      5       0.000000   0.000000   0.000000   0.000000   0.000000   0.000000
      6       0.000000   0.000000   0.000000   0.000000   0.000000   0.000000
      7       0.000000   0.000000   0.000000   0.000000   0.000000   0.000000
      8       0.000000   0.000000   0.000000   0.000000   0.000000   0.000000
      9       0.000000   0.000000   0.000000   0.000000   0.000000   0.000000
     10       0.000000   0.000000   0.000000   0.000000   0.000000   0.000000
     11       0.000000   0.000000   0.000000   0.000000   0.000000   0.000000
     12       0.000000   0.000000   0.000000   0.000000   0.000000   0.000000
     13       0.000000   0.000000   0.000000   0.000000   0.000000   0.000000
     14       0.000000   0.000000   0.000000   0.000000   0.000000   0.000000
     15       0.000000   0.000000   0.000000   0.000000   0.000000   0.000000
     16       0.000000   0.000000   0.000000   0.000000   0.000000   0.000000
     17       0.000000   0.000000   0.000000   0.000000   0.000000   0.000000
     18       0.000000   0.000000   0.000000   0.000000   0.000000   0.000000
     19       0.000000   0.000000   0.000000   0.000000   0.000000   0.000000
     20       0.000000   0.000000   0.000000   0.000000   0.000000   0.000000
     21       0.000000   0.000000   0.000000   0.000000   0.000000   0.000000
     22       0.000000   0.000000   0.000000   0.000000   0.000000   0.000000
     23       0.000000   0.000000   0.000000   0.000000   0.000000   0.000000
     24       0.000000   0.000000   0.000000   0.000000   0.000000   0.000000
     25       0.000000   0.000000   0.000000   0.000000   0.000000   0.000000
     26       0.000000   0.000000   0.000000   0.000000   0.000000   0.000000
     27       0.000000   0.000000   0.000000   0.000000   0.000000   0.000000
     28       0.000000   0.000000   0.000000   0.000000   0.000000   0.000000
     29       0.000000   0.000000   0.000000   0.000000   0.000000   0.000000
     30       0.000000   0.000000   0.000000   0.000000   0.000000   0.000000
     31       0.000000   0.000000   0.000000   0.000000   0.000000   0.000000
     32       0.000000   0.000000   0.000000   0.000000   0.000000   0.000000
     33       0.000000   0.000000   0.000000   0.000000   0.000000   0.000000
     34       0.000000   0.000000   0.000000   0.000000   0.000000   0.000000
     35       0.000000   0.000000   0.000000   0.000000   0.000000   0.000000
     36       0.000000   0.000000   0.000000   0.000000   0.000000   0.000000
     37       0.000000   0.000000   0.000000   0.000000   0.000000   0.000000
     38       0.000000   0.000000   0.000000   0.000000   0.000000   0.000000
     39       0.000000   0.000000   0.000000   0.000000   0.000000   0.000000
     40       0.000000   0.000000   0.000000   0.000000   0.000000   0.000000
     41       0.000000   0.000000   0.000000   0.000000   0.000000   0.000000
     42       0.000000   0.000000   0.000000   0.000000   0.000000   0.000000
     43       0.000000   0.000000   0.000000   0.000000   0.000000   0.000000
     44       0.000000   0.000000   0.000000   0.000000   0.000000   0.000000
     45       0.000000   0.000000   0.000000   0.000000   0.000000   0.000000
     46       0.000000   0.000000   0.000000   0.000000   0.000000   0.000000
     47       0.000000   0.000000   0.000000   0.000000   0.000000   0.000000
     48       0.000000   0.000000   0.000000   0.000000   0.000000   0.000000
     49       0.000000   0.000000   0.000000   0.000000   0.000000   0.000000
     50       0.000000   0.000000   0.000000   0.000000   0.000000   0.000000
     51       0.000000   0.000000   0.000000   0.000000   0.000000   0.000000
     52       0.000000   0.000000   0.000000   0.000000   0.000000   0.000000
     53       0.000000   0.000000   0.000000   0.000000   0.000000   0.000000
     54       0.000000   0.000000   0.000000   0.000000   0.000000   0.000000
     55       0.000000   0.000000   0.000000   0.000000   0.000000   0.000000
     56       0.000000   0.000000   0.000000   0.000000   0.000000   0.000000
     57       0.000000   0.000000   0.000000   0.000000   0.000000   0.000000
     58       0.000000   0.000000   0.000000   0.000000   0.000000   0.000000
     59       0.000000   0.000000   0.000000   0.000000   0.000000   0.000000
     60       0.000000   0.000000   0.000000   0.000000   0.000000   0.000000
     61       0.000000   0.000000   0.000000   0.000000   0.000000   0.000000
     62       0.000000   0.000000   0.000000   0.000000   0.000000   0.000000
     63       0.000000   0.000000   0.000000   0.000000   0.000000   0.000000
     64       0.000000   0.000000   0.000000   0.000000   0.000000   0.000000
     65       0.000000   0.000000   0.000000   0.000000   0.000000   0.000000
     66       0.000000   0.000000   0.000000   0.000000   0.000000   0.000000
     67       0.000000   0.000000   0.000000   0.000000   0.000000   0.000000
     68       0.000000   0.000000   0.000000   0.000000   0.000000   0.000000
     69       0.000000   0.000000   0.000000   0.000000   0.000000   0.000000
     70       0.000000   0.000000   0.000000   0.000000   0.000000   0.000000
     71       0.000000   0.000000   0.000000   0.000000   0.000000   0.000000
     72       0.000000   0.000000   0.000000   0.000000   0.000000   0.000000
     73       0.000000   0.000000   0.000000   0.000000   0.000000   0.000000
     74       0.000000   0.000000   0.000000   0.000000   0.000000   0.000000
     75       0.000000   0.000000   0.000000   0.000000   0.000000   0.000000
     76       0.000000   0.000000   0.000000   0.000000   0.000000   0.000000
     77       0.000000   0.000000   0.000000   0.000000   0.000000   0.000000
     78       0.000000   0.000000   0.000000   0.000000   0.000000   0.000000
     79       0.000000   0.000000   0.000000   0.000000   0.000000   0.000000
     80       0.000000   0.000000   0.000000   0.000000   0.000000   0.000000
     81       0.000000   0.000000   0.000000   0.000000   0.000000   0.000000
     82       0.000000   0.000000   0.000000   0.000000   0.000000   0.000000
     83       0.000000   0.000000   0.000000   0.000000   0.000000   0.000000
     84       0.000000   0.000000   0.000000   0.000000   0.000000   0.000000
     85       0.000000   0.000000   0.000000   0.000000   0.000000   0.000000
     86       0.000000   0.000000   0.000000   0.000000   0.000000   0.000000
     87       0.000000   0.000000   0.000000   0.000000   0.000000   0.000000
     88       0.000000   0.000000   0.000000   0.000000   0.000000   0.000000
     89       0.000000   0.000000   0.000000   0.000000   0.000000   0.000000
     90       0.000000   0.000000   0.000000   0.000000   0.000000   0.000000
     91       0.000000   0.000000   0.000000   0.000000   0.000000   0.000000
     92       0.000000   0.000000   0.000000   0.000000   0.000000   0.000000
     93       0.000000   0.000000   0.000000   0.000000   0.000000   0.000000
     94       0.000000   0.000000   0.000000   0.000000   0.000000   0.000000
     95       0.000000   0.000000   0.000000   0.000000   0.000000   0.000000
     96       0.000000   0.000000   0.000000   0.000000   0.000000   0.000000
     97       0.000000   0.000000   0.000000   0.000000   0.000000   0.000000
     98       0.000000   0.000000   0.000000   0.000000   0.000000   0.000000
     99       0.000000   0.000000   0.000000   0.000000   0.000000   0.000000
    100       0.000000   0.000000   0.000000   0.000000   0.000000   0.000000
    101       0.000000   0.000000   0.000000   0.000000   0.000000   0.000000
    102       0.000000   0.000000   0.000000   0.000000   0.000000   0.000000
    103       0.000000   0.000000   0.000000   0.000000   0.000000   0.000000
    104       0.000000   0.000000   0.000000   0.000000   0.000000   0.000000
    105       0.000000   0.000000   0.000000   0.000000   0.000000   0.000000
    106       0.000000   0.000000   0.000000   0.000000   0.000000   0.000000
    107       0.000000   0.000000   0.000000   0.000000   0.000000   0.000000
                  6          7          8          9         10         11    
      0      -0.013593  -0.057821   0.021690  -0.011845   0.025767  -0.007191
      1      -0.021421  -0.009529  -0.000726  -0.007321   0.040338   0.000335
      2       0.013008  -0.009371   0.020936   0.018913  -0.061702  -0.023076
      3      -0.006699  -0.033704   0.041228  -0.096833  -0.024999  -0.046243
      4      -0.000301  -0.023358  -0.021966  -0.188602  -0.013598  -0.008387
      5       0.006778   0.012456   0.046371   0.112519  -0.046911  -0.034268
      6      -0.000768  -0.014660   0.042967  -0.098862  -0.090323  -0.078767
      7       0.005563  -0.050299  -0.090502  -0.181630  -0.096409   0.008174
      8      -0.000529   0.004652   0.059668   0.112486   0.015852  -0.015883
      9      -0.000528  -0.018311   0.024657  -0.014481  -0.106249  -0.070799
     10      -0.000127  -0.063692  -0.137688   0.006562  -0.126943   0.033137
     11      -0.002471  -0.024373   0.046714   0.021173   0.062986   0.014678
     12       0.001483  -0.042758   0.005130   0.071152  -0.054904  -0.032161
     13       0.000850  -0.052313  -0.115712   0.189465  -0.070282   0.041988
     14      -0.004406  -0.044769   0.020995  -0.071669   0.046682   0.027082
     15       0.000661  -0.062647   0.003040   0.070583   0.009726  -0.000455
     16      -0.004317  -0.026839  -0.049099   0.179455   0.011230   0.024735
     17      -0.001561  -0.036542   0.008279  -0.068784  -0.014902   0.008589
     18      -0.058084  -0.079765   0.009763  -0.002191   0.071236   0.017635
     19      -0.129123   0.022833   0.056591  -0.021963   0.080101  -0.004686
     20       0.094349  -0.003232   0.015208   0.017257  -0.102849  -0.037800
     21      -0.005047  -0.031568   0.054797  -0.170475  -0.011575  -0.051604
     22       0.004523  -0.014746   0.013393  -0.341932   0.010980  -0.025218
     23      -0.001423   0.038060   0.055923   0.197441  -0.083278  -0.053833
     24      -0.004309  -0.080766  -0.013898   0.134655   0.046396   0.029469
     25      -0.011049  -0.018084  -0.032938   0.316237   0.049479   0.030939
     26       0.002746  -0.051744  -0.011399  -0.137728  -0.025080   0.018454
     27      -0.003069  -0.002590   0.025839  -0.017242  -0.157379  -0.094331
     28      -0.002501  -0.083653  -0.190183   0.009538  -0.192812   0.045085
     29      -0.000652  -0.030857   0.057124   0.022410   0.112141   0.028246
     30      -0.001157  -0.076300   0.011488  -0.002337   0.069922   0.020308
     31       0.017129   0.085261   0.081691  -0.027534   0.037567   0.019791
     32       0.000955   0.005125   0.033396   0.000183  -0.114872  -0.042972
     33       0.006333  -0.104013  -0.017149   0.013930   0.063354  -0.012253
     34      -0.002735   0.100372   0.123121  -0.052273  -0.037124   0.059805
     35       0.004940   0.018616   0.041914  -0.003571  -0.087883  -0.030840
     36      -0.025715  -0.040381   0.025902  -0.005743   0.040887   0.034404
     37       0.060132   0.113935   0.059739  -0.001275   0.019357  -0.015400
     38      -0.016022   0.007938   0.060497  -0.023949  -0.119745  -0.007677
     39       0.000460   0.028759   0.065707  -0.034762   0.034115   0.115730
     40       0.000230  -0.083659   0.008451   0.016976   0.045464  -0.114626
     41       0.003022   0.000032   0.027288   0.011287   0.037556  -0.041956
     42       0.001244  -0.085473  -0.015213   0.010761   0.039029  -0.002629
     43       0.001531   0.253671   0.235414  -0.120851  -0.142567   0.229913
     44      -0.003134  -0.066124  -0.030837   0.039050  -0.040298  -0.134403
     45       0.008202  -0.251915  -0.110873   0.069307   0.096699  -0.161119
     46       0.011111   0.096738   0.134197  -0.059122  -0.069004   0.069691
     47       0.034022   0.130520   0.141927  -0.063076  -0.183679   0.109789
     48      -0.001106  -0.016077   0.061463  -0.027570   0.078670   0.201620
     49       0.002520  -0.216288  -0.091056   0.075793   0.154632  -0.326483
     50       0.000350   0.047889   0.087198  -0.020200   0.004726   0.164089
     51      -0.003882   0.168701   0.153797  -0.085311   0.010632   0.257290
     52      -0.002925  -0.058675   0.006402   0.017460   0.078192  -0.177974
     53       0.000384  -0.067729  -0.053921   0.056464   0.129683  -0.303689
     54       0.031328  -0.017253   0.023912   0.011569   0.046022   0.080716
     55       0.109045  -0.011649   0.084759  -0.038525   0.134806  -0.019962
     56      -0.071089  -0.011464   0.035557  -0.005703  -0.011454  -0.060070
     57      -0.021399  -0.113137  -0.006695   0.009373   0.101254   0.020863
     58      -0.013674  -0.002563   0.081909  -0.023936   0.109086   0.001748
     59       0.024675  -0.005460  -0.013301   0.026181  -0.105562  -0.039137
     60       0.017060   0.027140  -0.069617   0.007621   0.045406   0.069889
     61       0.165127  -0.066970   0.192734  -0.029754   0.116260  -0.020959
     62      -0.074661  -0.052307   0.127908  -0.004922   0.003794  -0.039690
     63      -0.067568   0.143324  -0.229583   0.028708   0.038606   0.034036
     64      -0.010460   0.159140  -0.062892   0.023496   0.093729  -0.113195
     65       0.057401   0.041101  -0.327119  -0.107164   0.067345   0.012567
     66       0.658094   0.065260  -0.108107   0.017041   0.044409   0.044927
     67      -0.481403   0.068267   0.016546  -0.006253   0.112510  -0.054236
     68      -0.268404   0.015052  -0.153702  -0.059143   0.030485  -0.018459
     69      -0.214958   0.128685  -0.222903   0.011335   0.061286   0.042374
     70       0.015061   0.159422  -0.201912  -0.037621   0.149467  -0.075432
     71       0.145523   0.048711  -0.385691  -0.122583   0.077595   0.023279
     72       0.043395   0.098949  -0.037938   0.098085  -0.057661   0.022608
     73       0.007919   0.202529   0.061217   0.052938  -0.055811  -0.013813
     74      -0.046445   0.017905  -0.017095  -0.012275  -0.151216   0.093130
     75       0.186930   0.131278  -0.127472   0.078854  -0.019066   0.013386
     76       0.017648   0.181414   0.019110   0.034654  -0.004724  -0.040047
     77      -0.196445   0.026919  -0.130199  -0.046772  -0.074779   0.073902
     78       0.110356   0.123617  -0.005375   0.123295  -0.100022   0.016768
     79       0.056436   0.197812   0.151684   0.081493  -0.118159   0.017625
     80      -0.072576   0.024560  -0.071360  -0.027132  -0.116682   0.071837
     81       0.001475   0.033430   0.035088  -0.024932  -0.023263  -0.074622
     82       0.001486  -0.121525   0.033887   0.003504  -0.063083   0.095260
     83       0.000484   0.006134   0.042597   0.007691   0.104618   0.037423
     84       0.001746  -0.048183  -0.016010   0.000799  -0.032960  -0.156056
     85       0.002015  -0.140438   0.039488   0.000548  -0.099154   0.165528
     86       0.001854   0.034610   0.099275  -0.021206   0.032852   0.264652
     87       0.000503   0.058921   0.026890  -0.024788  -0.062430  -0.188878
     88       0.000600  -0.052122   0.094269  -0.029493  -0.142006   0.241806
     89       0.000994  -0.014725  -0.000801   0.027814   0.120160  -0.145922
     90       0.002259  -0.046050  -0.008969   0.134522  -0.066564  -0.025849
     91       0.005183  -0.063806  -0.151177   0.331394  -0.092615   0.060982
     92      -0.003418  -0.066616   0.011405  -0.141614   0.083428   0.051378
     93       0.003393   0.003017   0.059097  -0.168768  -0.128913  -0.110020
     94       0.010215  -0.060602  -0.107582  -0.324552  -0.138723   0.001036
     95      -0.002592   0.020940   0.080259   0.185460   0.028758  -0.025749
     96       0.001250   0.109384   0.080781  -0.048031  -0.016920  -0.013041
     97       0.001042  -0.220640  -0.025033   0.035565  -0.023357   0.024420
     98       0.001194   0.003145   0.042399   0.014630   0.247045   0.064361
     99       0.001882   0.116977   0.068363  -0.046094  -0.070445  -0.110078
    100       0.002476  -0.252521  -0.022461   0.033964  -0.085579   0.114462
    101       0.000811   0.005447   0.049887   0.013740   0.295941   0.106999
    102       0.000395   0.185912   0.128538  -0.071605  -0.005469   0.058231
    103       0.000820  -0.199951  -0.022688   0.034379   0.003025  -0.013510
    104       0.000918  -0.012844   0.007272   0.031897   0.300046  -0.086488
    105       0.000326   0.080207   0.078948  -0.043160   0.030553   0.057924
    106       0.001405  -0.281949  -0.073072   0.061683   0.041424  -0.080202
    107       0.000188   0.014817   0.070442   0.002875   0.249745   0.192965
                 12         13         14         15         16         17    
      0       0.003085   0.024192   0.059480  -0.010867  -0.004284   0.045117
      1      -0.025545   0.002031   0.095732   0.019510  -0.128076   0.008662
      2       0.039180  -0.001010  -0.007251   0.001987   0.017979  -0.072748
      3       0.025355   0.019235   0.044873   0.001790  -0.041374  -0.004917
      4      -0.036977   0.040809   0.054729   0.007539  -0.109246   0.008366
      5       0.057824  -0.032422   0.017730   0.016886  -0.013303  -0.096327
      6       0.065630  -0.005953  -0.006048   0.014573  -0.045215  -0.072706
      7      -0.016322   0.039903  -0.059556  -0.012007   0.008636  -0.005493
      8       0.026119  -0.014632   0.077651   0.012462  -0.037682  -0.050309
      9       0.084938  -0.028366  -0.033274   0.013261  -0.007914  -0.081562
     10       0.020715  -0.005175  -0.120469  -0.019023   0.101904  -0.014185
     11      -0.026683   0.036695   0.109275  -0.007439  -0.027781   0.012079
     12       0.063304  -0.023259   0.002206   0.001010   0.009787  -0.015185
     13       0.033230  -0.043605  -0.035806  -0.005381   0.037546   0.023981
     14      -0.046388   0.067554   0.064565  -0.023516   0.028302   0.016311
     15       0.021112   0.005256   0.049237  -0.011381   0.009803   0.049297
     16       0.008902  -0.035739   0.071642   0.013794  -0.083281   0.034021
     17      -0.012208   0.045835   0.008697  -0.018472   0.051445  -0.031980
     18      -0.021695   0.038071   0.037233  -0.018495   0.013400   0.024958
     19      -0.024842  -0.013443   0.053102   0.025808  -0.088378   0.003811
     20       0.053883  -0.008890   0.014295   0.007148  -0.006568  -0.057570
     21       0.012183   0.036971   0.063254   0.001832  -0.063108   0.006922
     22      -0.057952   0.073437   0.094558   0.010794  -0.161874   0.025172
     23       0.095719  -0.075935   0.000622   0.031892  -0.022430  -0.142907
     24       0.003913   0.011011   0.070272  -0.022104   0.031093   0.093617
     25       0.019328  -0.065646   0.114762   0.023864  -0.120668   0.052298
     26      -0.028097   0.070391  -0.012952  -0.030925   0.088781  -0.023879
     27       0.115912  -0.048861  -0.079619   0.021894   0.002894  -0.133021
     28       0.040613  -0.009609  -0.225841  -0.034441   0.213273  -0.041304
     29      -0.052231   0.051746   0.163559  -0.010050  -0.059047   0.053173
     30      -0.020988   0.027990   0.029194  -0.017366   0.023609   0.013926
     31      -0.012191  -0.127942   0.004576   0.035439   0.012694  -0.043490
     32       0.061131   0.015293   0.078018   0.001988  -0.011902   0.087714
     33      -0.029057   0.045788   0.022465  -0.009005  -0.006497  -0.146598
     34       0.026388  -0.147573   0.008294   0.010367   0.209923   0.098351
     35       0.054802   0.006419   0.084637   0.003272  -0.037860   0.158941
     36      -0.025607   0.014276   0.039571  -0.020854   0.059598   0.078592
     37       0.014824  -0.135352   0.025076   0.030394   0.005688  -0.110748
     38       0.039826   0.013849   0.067788   0.002036   0.021879   0.190238
     39       0.064252   0.069605   0.022752   0.088063   0.066674  -0.079232
     40      -0.116638  -0.192115   0.002946  -0.128107   0.118724  -0.003179
     41       0.000544  -0.027411   0.054577  -0.022923  -0.055899   0.136756
     42      -0.008937   0.069266   0.024532   0.026692  -0.034358  -0.229094
     43       0.171517  -0.108453   0.023526   0.119966   0.357700   0.246683
     44      -0.022449   0.002458   0.076615  -0.036258  -0.161690  -0.018487
     45      -0.142404   0.012731   0.023802  -0.120684  -0.067665  -0.252159
     46       0.039300  -0.153575   0.013962  -0.004722   0.274818   0.155560
     47       0.174120   0.018010   0.095076   0.060277   0.155186   0.365545
     48       0.113280   0.141598   0.012178   0.038487   0.026242  -0.156036
     49      -0.297464  -0.300590  -0.019528  -0.207395   0.083585  -0.065737
     50       0.155831   0.101273   0.059644  -0.012031  -0.065799   0.111503
     51       0.161766   0.092475   0.014191   0.175084   0.149939  -0.021523
     52      -0.177710  -0.263557  -0.012337  -0.103760   0.163904   0.019616
     53      -0.218001  -0.204269   0.028135  -0.047474  -0.027199   0.134710
     54      -0.011228  -0.173338  -0.222791   0.016716  -0.162025   0.090696
     55      -0.033115   0.072474  -0.120951   0.015214  -0.101906   0.056391
     56       0.084324   0.053369  -0.363919  -0.014901   0.009642   0.012312
     57      -0.035894   0.075158   0.013595  -0.023291  -0.008952  -0.011965
     58      -0.033575   0.033495   0.007789   0.022941  -0.097777   0.072345
     59       0.050953  -0.021159   0.033566   0.006441  -0.013642  -0.128845
     60       0.005706  -0.149358  -0.095207   0.011940  -0.109776   0.060263
     61      -0.053434   0.083304  -0.131858   0.015879  -0.085183   0.029819
     62       0.068496   0.001629  -0.591299  -0.006728  -0.098759   0.087936
     63       0.058807  -0.072785   0.017943  -0.003996  -0.043279   0.042917
     64       0.071922   0.263869  -0.006926  -0.026912   0.060547   0.003121
     65       0.042146  -0.083605   0.041001   0.017670   0.007236  -0.023407
     66       0.029054  -0.102285  -0.101985   0.000372  -0.079235   0.046088
     67       0.013411   0.144626  -0.066961  -0.000566  -0.048844   0.053888
     68       0.063593  -0.026179  -0.155761   0.003932  -0.000191   0.003157
     69       0.126462  -0.169836  -0.024143   0.009678  -0.086703   0.066285
     70       0.122960   0.098407   0.118685  -0.000074   0.019693   0.002530
     71       0.026588  -0.098573   0.113045   0.021207   0.013652  -0.036034
     72      -0.185646   0.239932  -0.057869  -0.055423   0.062827   0.084545
     73      -0.024637  -0.025232   0.003955   0.048240  -0.097952  -0.141400
     74      -0.295664   0.000461  -0.026448   0.029222  -0.039922  -0.051077
     75      -0.079297   0.149120  -0.025370  -0.040476   0.040157   0.054095
     76      -0.003476   0.053278  -0.002139   0.023892  -0.038692  -0.099158
     77      -0.178702  -0.047942   0.000306   0.030687  -0.037298  -0.034911
     78      -0.211514   0.157205  -0.068636  -0.030007   0.023670  -0.074499
     79      -0.099684   0.005766  -0.005824   0.049800  -0.118299  -0.096144
     80      -0.250261  -0.032373  -0.021500   0.031928  -0.032465  -0.103459
     81      -0.049630  -0.050656   0.053771   0.117191   0.080951   0.044259
     82       0.085068   0.024363   0.056311  -0.157802  -0.010720  -0.028908
     83       0.029092   0.000277   0.021189  -0.035472  -0.024880   0.056081
     84      -0.094363  -0.014924   0.058595   0.340517   0.099389   0.123805
     85       0.154326   0.105786   0.075109  -0.146397  -0.059847  -0.028956
     86       0.222151   0.150218   0.058718  -0.205095  -0.149774  -0.014400
     87      -0.118287  -0.144882   0.077788   0.074529   0.068878   0.129329
     88       0.217507   0.077007   0.100435  -0.403885  -0.129460  -0.060907
     89      -0.108187  -0.109493   0.013967   0.080081   0.038305   0.145375
     90       0.077950  -0.039736  -0.011881   0.000075   0.030357  -0.012802
     91       0.062062  -0.077256  -0.067491  -0.010064   0.090191   0.036604
     92      -0.088398   0.106822   0.079272  -0.039219   0.048152   0.061431
     93       0.082702  -0.008822  -0.028118   0.025268  -0.071554  -0.117261
     94      -0.025501   0.072205  -0.108856  -0.022123   0.037699  -0.016106
     95       0.041269  -0.040138   0.103766   0.025227  -0.072295  -0.064211
     96      -0.017497  -0.097547   0.053063  -0.107101   0.069194  -0.028827
     97       0.028636   0.074291   0.031932   0.151006   0.061403   0.013492
     98      -0.014959  -0.029471  -0.060242   0.020584   0.136803  -0.103176
     99      -0.065017  -0.150397   0.082139  -0.078660   0.046156   0.111021
    100       0.126641   0.193303   0.069048   0.132702  -0.071467   0.006217
    101      -0.006356  -0.022162  -0.087604   0.006229   0.181986  -0.192562
    102       0.018887  -0.142356   0.049002  -0.345797   0.060938  -0.120655
    103      -0.013724   0.015781   0.016324   0.141087   0.118929   0.014742
    104      -0.146528  -0.130429  -0.093852   0.200114   0.280756  -0.022084
    105       0.016674  -0.035722   0.026907  -0.067183   0.093260  -0.134780
    106      -0.068329   0.051005  -0.008044   0.413254   0.190150   0.052351
    107       0.075778   0.040634  -0.059066  -0.105697   0.078909  -0.222753
                 18         19         20         21         22         23    
      0      -0.090680  -0.054307  -0.067289  -0.007935  -0.058219  -0.004434
      1       0.151977  -0.058072  -0.026697   0.003204   0.023629   0.016545
      2       0.056042   0.081909   0.006138  -0.002657  -0.000791   0.010275
      3       0.009934  -0.028907  -0.087717  -0.007417  -0.055009  -0.009618
      4       0.133631  -0.081553  -0.073126   0.015422   0.052336  -0.016362
      5       0.117117   0.118246   0.025902  -0.011814  -0.022870   0.034861
      6       0.083092   0.044865  -0.040011  -0.008447  -0.030738   0.015528
      7       0.022127   0.009417  -0.012350   0.003648   0.006933  -0.010297
      8       0.096841   0.051305  -0.023929  -0.010037  -0.035284   0.020938
      9       0.051178   0.083761  -0.001737  -0.016268  -0.053466   0.033244
     10      -0.067668   0.090842   0.066931  -0.015876  -0.058359   0.026185
     11       0.019202  -0.015585  -0.100790  -0.008727  -0.067067  -0.007001
     12      -0.039283   0.003706  -0.053915  -0.007681  -0.045355   0.003021
     13      -0.024541  -0.014415  -0.028727   0.000520  -0.015421  -0.011505
     14      -0.055073   0.023072  -0.055074  -0.016833  -0.095052   0.006785
     15      -0.109130  -0.062294  -0.097597  -0.005339  -0.059310  -0.017271
     16       0.094158  -0.086309  -0.085566   0.010289   0.027094  -0.014486
     17      -0.028604   0.083234  -0.007630  -0.018463  -0.082498   0.021105
     18      -0.085314  -0.012426  -0.015455  -0.013237  -0.044367   0.031348
     19       0.138386  -0.004035   0.052092  -0.015014  -0.041579   0.056517
     20       0.040376   0.042907  -0.027272   0.014957   0.051902  -0.035797
     21       0.024961  -0.051206  -0.111309  -0.002307  -0.041763  -0.018596
     22       0.176038  -0.120918  -0.125605   0.026075   0.081846  -0.024831
     23       0.191614   0.175060   0.066318  -0.019174  -0.031089   0.055806
     24      -0.175042  -0.098376  -0.141136  -0.009303  -0.099114  -0.030278
     25       0.122427  -0.133950  -0.124068   0.018188   0.053302  -0.029015
     26      -0.081161   0.100007   0.000171  -0.025851  -0.119294   0.025256
     27       0.094865   0.158345   0.060311  -0.021984  -0.051537   0.057650
     28      -0.166877   0.205796   0.168668  -0.034665  -0.115666   0.063525
     29       0.010471  -0.091447  -0.164793  -0.000650  -0.055421  -0.031696
     30      -0.083919  -0.016100   0.002921  -0.013233  -0.038813   0.027925
     31       0.089174  -0.046909   0.137693  -0.028575  -0.103413   0.018933
     32      -0.013290   0.008724  -0.050573   0.034467   0.098025  -0.042338
     33      -0.021438  -0.021089   0.046535   0.004175   0.068286  -0.008727
     34       0.051364   0.010925  -0.077976   0.008297  -0.046810   0.010002
     35      -0.051037  -0.007252   0.019427   0.017341   0.042244  -0.020656
     36      -0.135283  -0.038661  -0.012264  -0.010395  -0.049591   0.042628
     37       0.120246  -0.173964   0.199239  -0.046882  -0.160446  -0.055015
     38      -0.055841   0.086074  -0.105688   0.048313   0.124321   0.012061
     39       0.005127  -0.030230   0.069962  -0.007860   0.051715  -0.002868
     40       0.007469   0.003332  -0.028018   0.024877   0.003370   0.002112
     41      -0.073820  -0.035839   0.188005  -0.008481  -0.010417   0.012991
     42       0.025552  -0.021303   0.054716   0.009462   0.110381  -0.025133
     43       0.074483   0.042309  -0.222119   0.008754  -0.069425   0.010012
     44      -0.023175  -0.027600   0.122349   0.021928   0.096790  -0.036033
     45      -0.043727  -0.010330   0.027460   0.029609   0.141307  -0.028998
     46       0.034695   0.033536  -0.180857   0.021320  -0.034740   0.005109
     47      -0.068045   0.033145  -0.188971   0.024886   0.008025  -0.014683
     48       0.004371  -0.038864   0.104393  -0.046900   0.062013   0.007156
     49      -0.021306  -0.001647   0.025103   0.065258  -0.007686   0.009316
     50      -0.055382  -0.039700   0.179932  -0.065513   0.005498   0.016380
     51       0.041300  -0.027715   0.052005  -0.033020   0.011822   0.009989
     52       0.015714   0.005546  -0.025439   0.046189  -0.029972   0.011041
     53      -0.086637  -0.032352   0.203920   0.059845  -0.047215   0.020535
     54       0.014755   0.097965  -0.012386   0.008075   0.020281  -0.019876
     55      -0.078187   0.176296  -0.005420   0.001023   0.001339  -0.016026
[...]
     73       0.000702  -0.000621   0.000778  -0.001917   0.032685  -0.001962
     74      -0.000257   0.001205  -0.001339  -0.002940   0.050956  -0.003046
     75      -0.009493   0.016917  -0.021696   0.001365  -0.009272  -0.005471
     76      -0.008876   0.016814  -0.020436  -0.000261   0.006746  -0.000721
     77       0.011249  -0.022193   0.027516  -0.002212   0.025079  -0.003877
     78      -0.004135   0.001642  -0.004437  -0.007857   0.133038  -0.008990
     79       0.006432  -0.010318   0.014899   0.030799  -0.527285   0.032303
     80      -0.002568  -0.004844   0.004144   0.048661  -0.832153   0.050780
     81       0.000119  -0.000075   0.000158   0.000009  -0.000007  -0.000000
     82       0.000005  -0.000046  -0.000028   0.000023  -0.000031   0.000021
     83      -0.000359   0.000289  -0.000475  -0.000019   0.000003  -0.000019
     84       0.000887  -0.000863   0.001020   0.000131  -0.000165   0.000156
     85      -0.002097   0.001972  -0.002401  -0.000287   0.000337  -0.000237
     86       0.000883  -0.000972   0.001031   0.000141  -0.000188   0.000186
     87      -0.002403   0.001641  -0.003193  -0.000182   0.000112  -0.000039
     88       0.002020  -0.001405   0.002788   0.000133   0.000000   0.000027
     89       0.003191  -0.002251   0.004518   0.000200   0.000015   0.000088
     90      -0.113584   0.013185  -0.021049  -0.000068  -0.000060  -0.000208
     91       0.047077  -0.005227   0.008718   0.000017  -0.000024   0.000087
     92      -0.007275   0.001219  -0.001267  -0.000072  -0.000070  -0.000025
     93       0.111359   0.037523  -0.001829   0.000012   0.000157  -0.000130
     94      -0.170903  -0.057188   0.001647  -0.000036  -0.000302   0.000166
     95      -0.228149  -0.076062   0.001688  -0.000081  -0.000436   0.000165
     96      -0.000081   0.000084  -0.000095   0.000004  -0.000010  -0.000001
     97      -0.000156   0.000118  -0.000196   0.000015  -0.000012   0.000004
     98      -0.000131   0.000135  -0.000163  -0.000004   0.000008  -0.000002
     99       0.001818  -0.001756   0.002207  -0.000080   0.000122   0.000018
    100       0.000659  -0.000658   0.000841  -0.000040   0.000083  -0.000001
    101       0.002709  -0.002559   0.003293  -0.000025   0.000059   0.000034
    102      -0.000606   0.000419  -0.000684  -0.000029   0.000024  -0.000009
    103       0.001506  -0.000996   0.001815  -0.000079   0.000096  -0.000096
    104      -0.000716   0.000519  -0.000872   0.000030  -0.000018   0.000038
    105       0.000041  -0.000013  -0.000077  -0.000056  -0.000005  -0.000001
    106      -0.000149   0.000056  -0.000089  -0.000007   0.000043  -0.000003
    107      -0.000191   0.000144  -0.000145   0.000025   0.000040  -0.000007


-----------
IR SPECTRUM  
-----------

 Mode    freq (cm**-1)   T**2         TX         TY         TZ
-------------------------------------------------------------------
   7:        23.15    0.000000  (  0.000000   0.000000   0.000000)
   8:        45.75    0.000000  (  0.000000   0.000000   0.000000)
   9:        52.87    0.000000  (  0.000000   0.000000   0.000000)
  10:        59.53    0.000000  (  0.000000   0.000000   0.000000)
  11:        80.48    0.000000  (  0.000000   0.000000   0.000000)
  12:        81.43    0.000000  (  0.000000   0.000000   0.000000)
  13:        88.33    0.000000  (  0.000000   0.000000   0.000000)
  14:       114.83    0.000000  (  0.000000   0.000000   0.000000)
  15:       121.94    0.000000  (  0.000000   0.000000   0.000000)
  16:       153.01    0.000000  (  0.000000   0.000000   0.000000)
  17:       164.28    0.000000  (  0.000000   0.000000   0.000000)
  18:       179.35    0.000000  (  0.000000   0.000000   0.000000)
  19:       210.34    0.000000  (  0.000000   0.000000   0.000000)
  20:       242.15    0.000000  (  0.000000   0.000000   0.000000)
  21:       268.91    0.000000  (  0.000000   0.000000   0.000000)
  22:       274.25    0.000000  (  0.000000   0.000000   0.000000)
  23:       299.71    0.000000  (  0.000000   0.000000   0.000000)
  24:       327.87    0.000000  (  0.000000   0.000000   0.000000)
  25:       375.74    0.000000  (  0.000000   0.000000   0.000000)
  26:       381.13    0.000000  (  0.000000   0.000000   0.000000)
  27:       400.05    0.000000  (  0.000000   0.000000   0.000000)
  28:       429.90    0.000000  (  0.000000   0.000000   0.000000)
  29:       470.82    0.000000  (  0.000000   0.000000   0.000000)
  30:       501.99    0.000000  (  0.000000   0.000000   0.000000)
  31:       528.49    0.000000  (  0.000000   0.000000   0.000000)
  32:       546.43    0.000000  (  0.000000   0.000000   0.000000)
  33:       589.03    0.000000  (  0.000000   0.000000   0.000000)
  34:       605.24    0.000000  (  0.000000   0.000000   0.000000)
  35:       618.38    0.000000  (  0.000000   0.000000   0.000000)
  36:       630.91    0.000000  (  0.000000   0.000000   0.000000)
  37:       664.01    0.000000  (  0.000000   0.000000   0.000000)
  38:       708.89    0.000000  (  0.000000   0.000000   0.000000)
  39:       757.06    0.000000  (  0.000000   0.000000   0.000000)
  40:       771.73    0.000000  (  0.000000   0.000000   0.000000)
  41:       782.17    0.000000  (  0.000000   0.000000   0.000000)
  42:       801.59    0.000000  (  0.000000   0.000000   0.000000)
  43:       820.40    0.000000  (  0.000000   0.000000   0.000000)
  44:       855.54    0.000000  (  0.000000   0.000000   0.000000)
  45:       872.28    0.000000  (  0.000000   0.000000   0.000000)
  46:       908.68    0.000000  (  0.000000   0.000000   0.000000)
  47:       932.68    0.000000  (  0.000000   0.000000   0.000000)
  48:       939.01    0.000000  (  0.000000   0.000000   0.000000)
  49:       945.09    0.000000  (  0.000000   0.000000   0.000000)
  50:       945.31    0.000000  (  0.000000   0.000000   0.000000)
  51:       959.35    0.000000  (  0.000000   0.000000   0.000000)
  52:       986.16    0.000000  (  0.000000   0.000000   0.000000)
  53:      1032.24    0.000000  (  0.000000   0.000000   0.000000)
  54:      1057.42    0.000000  (  0.000000   0.000000   0.000000)
  55:      1070.34    0.000000  (  0.000000   0.000000   0.000000)
  56:      1078.97    0.000000  (  0.000000   0.000000   0.000000)
  57:      1104.41    0.000000  (  0.000000   0.000000   0.000000)
  58:      1110.83    0.000000  (  0.000000   0.000000   0.000000)
  59:      1125.40    0.000000  (  0.000000   0.000000   0.000000)
  60:      1131.60    0.000000  (  0.000000   0.000000   0.000000)
  61:      1179.23    0.000000  (  0.000000   0.000000   0.000000)
  62:      1181.42    0.000000  (  0.000000   0.000000   0.000000)
  63:      1204.51    0.000000  (  0.000000   0.000000   0.000000)
  64:      1214.36    0.000000  (  0.000000   0.000000   0.000000)
  65:      1249.73    0.000000  (  0.000000   0.000000   0.000000)
  66:      1256.22    0.000000  (  0.000000   0.000000   0.000000)
  67:      1274.54    0.000000  (  0.000000   0.000000   0.000000)
  68:      1277.34    0.000000  (  0.000000   0.000000   0.000000)
  69:      1285.55    0.000000  (  0.000000   0.000000   0.000000)
  70:      1293.85    0.000000  (  0.000000   0.000000   0.000000)
  71:      1305.89    0.000000  (  0.000000   0.000000   0.000000)
  72:      1318.95    0.000000  (  0.000000   0.000000   0.000000)
  73:      1338.67    0.000000  (  0.000000   0.000000   0.000000)
  74:      1369.53    0.000000  (  0.000000   0.000000   0.000000)
  75:      1420.24    0.000000  (  0.000000   0.000000   0.000000)
  76:      1428.36    0.000000  (  0.000000   0.000000   0.000000)
  77:      1449.98    0.000000  (  0.000000   0.000000   0.000000)
  78:      1453.72    0.000000  (  0.000000   0.000000   0.000000)
  79:      1483.10    0.000000  (  0.000000   0.000000   0.000000)
  80:      1495.27    0.000000  (  0.000000   0.000000   0.000000)
  81:      1503.80    0.000000  (  0.000000   0.000000   0.000000)
  82:      1505.87    0.000000  (  0.000000   0.000000   0.000000)
  83:      1510.93    0.000000  (  0.000000   0.000000   0.000000)
  84:      1539.58    0.000000  (  0.000000   0.000000   0.000000)
  85:      1562.05    0.000000  (  0.000000   0.000000   0.000000)
  86:      1565.80    0.000000  (  0.000000   0.000000   0.000000)
  87:      1605.15    0.000000  (  0.000000   0.000000   0.000000)
  88:      2423.64    0.000000  (  0.000000   0.000000   0.000000)
  89:      2946.55    0.000000  (  0.000000   0.000000   0.000000)
  90:      2962.68    0.000000  (  0.000000   0.000000   0.000000)
  91:      2969.22    0.000000  (  0.000000   0.000000   0.000000)
  92:      2975.00    0.000000  (  0.000000   0.000000   0.000000)
  93:      2980.66    0.000000  (  0.000000   0.000000   0.000000)
  94:      2982.76    0.000000  (  0.000000   0.000000   0.000000)
  95:      2989.36    0.000000  (  0.000000   0.000000   0.000000)
  96:      3000.98    0.000000  (  0.000000   0.000000   0.000000)
  97:      3015.86    0.000000  (  0.000000   0.000000   0.000000)
  98:      3060.29    0.000000  (  0.000000   0.000000   0.000000)
  99:      3062.84    0.000000  (  0.000000   0.000000   0.000000)
 100:      3069.91    0.000000  (  0.000000   0.000000   0.000000)
 101:      3077.82    0.000000  (  0.000000   0.000000   0.000000)
 102:      3085.98    0.000000  (  0.000000   0.000000   0.000000)
 103:      3091.86    0.000000  (  0.000000   0.000000   0.000000)
 104:      3116.84    0.000000  (  0.000000   0.000000   0.000000)
 105:      3599.79    0.000000  (  0.000000   0.000000   0.000000)
 106:      3602.83    0.000000  (  0.000000   0.000000   0.000000)
 107:      3617.45    0.000000  (  0.000000   0.000000   0.000000)

The first frequency considered to be a vibration is 7
The total number of vibrations considered is 101


--------------------------
THERMOCHEMISTRY AT 298.15K
--------------------------

Temperature         ... 298.15 K
Pressure            ... 1.00 atm
Total Mass          ... 215.29 AMU

Throughout the following assumptions are being made:
  (1) The electronic state is orbitally nondegenerate
  (2) There are no thermally accessible electronically excited states
  (3) Hindered rotations indicated by low frequency modes are not
      treated as such but are treated as vibrations and this may
      cause some error
  (4) All equations used are the standard statistical mechanics
      equations for an ideal gas
  (5) All vibrations are strictly harmonic

freq.      23.15  E(vib)   ...       0.56 
freq.      45.75  E(vib)   ...       0.53 
freq.      52.87  E(vib)   ...       0.52 
freq.      59.53  E(vib)   ...       0.51 
freq.      80.48  E(vib)   ...       0.48 
freq.      81.43  E(vib)   ...       0.48 
freq.      88.33  E(vib)   ...       0.48 
freq.     114.83  E(vib)   ...       0.44 
freq.     121.94  E(vib)   ...       0.44 
freq.     153.01  E(vib)   ...       0.40 
freq.     164.28  E(vib)   ...       0.39 
freq.     179.35  E(vib)   ...       0.37 
freq.     210.34  E(vib)   ...       0.34 
freq.     242.15  E(vib)   ...       0.31 
freq.     268.91  E(vib)   ...       0.29 
freq.     274.25  E(vib)   ...       0.28 
freq.     299.71  E(vib)   ...       0.26 
freq.     327.87  E(vib)   ...       0.24 
freq.     375.74  E(vib)   ...       0.21 
freq.     381.13  E(vib)   ...       0.21 
freq.     400.05  E(vib)   ...       0.19 
freq.     429.90  E(vib)   ...       0.18 
freq.     470.82  E(vib)   ...       0.15 
freq.     501.99  E(vib)   ...       0.14 
freq.     528.49  E(vib)   ...       0.13 
freq.     546.43  E(vib)   ...       0.12 
freq.     589.03  E(vib)   ...       0.10 
freq.     605.24  E(vib)   ...       0.10 
freq.     618.38  E(vib)   ...       0.09 
freq.     630.91  E(vib)   ...       0.09 
freq.     664.01  E(vib)   ...       0.08 
freq.     708.89  E(vib)   ...       0.07 
freq.     757.06  E(vib)   ...       0.06 
freq.     771.73  E(vib)   ...       0.05 
freq.     782.17  E(vib)   ...       0.05 
freq.     801.59  E(vib)   ...       0.05 
freq.     820.40  E(vib)   ...       0.05 
freq.     855.54  E(vib)   ...       0.04 
freq.     872.28  E(vib)   ...       0.04 
freq.     908.68  E(vib)   ...       0.03 
freq.     932.68  E(vib)   ...       0.03 
freq.     939.01  E(vib)   ...       0.03 
freq.     945.09  E(vib)   ...       0.03 
freq.     945.31  E(vib)   ...       0.03 
freq.     959.35  E(vib)   ...       0.03 
freq.     986.16  E(vib)   ...       0.02 
freq.    1032.24  E(vib)   ...       0.02 
freq.    1057.42  E(vib)   ...       0.02 
freq.    1070.34  E(vib)   ...       0.02 
freq.    1078.97  E(vib)   ...       0.02 
freq.    1104.41  E(vib)   ...       0.02 
freq.    1110.83  E(vib)   ...       0.01 
freq.    1125.40  E(vib)   ...       0.01 
freq.    1131.60  E(vib)   ...       0.01 
freq.    1179.23  E(vib)   ...       0.01 
freq.    1181.42  E(vib)   ...       0.01 
freq.    1204.51  E(vib)   ...       0.01 
freq.    1214.36  E(vib)   ...       0.01 
freq.    1249.73  E(vib)   ...       0.01 
freq.    1256.22  E(vib)   ...       0.01 
freq.    1274.54  E(vib)   ...       0.01 
freq.    1277.34  E(vib)   ...       0.01 
freq.    1285.55  E(vib)   ...       0.01 
freq.    1293.85  E(vib)   ...       0.01 
freq.    1305.89  E(vib)   ...       0.01 
freq.    1318.95  E(vib)   ...       0.01 
freq.    1338.67  E(vib)   ...       0.01 
freq.    1369.53  E(vib)   ...       0.01 
freq.    1420.24  E(vib)   ...       0.00 
freq.    1428.36  E(vib)   ...       0.00 
freq.    1449.98  E(vib)   ...       0.00 
freq.    1453.72  E(vib)   ...       0.00 
freq.    1483.10  E(vib)   ...       0.00 
freq.    1495.27  E(vib)   ...       0.00 
freq.    1503.80  E(vib)   ...       0.00 
freq.    1505.87  E(vib)   ...       0.00 
freq.    1510.93  E(vib)   ...       0.00 
freq.    1539.58  E(vib)   ...       0.00 
freq.    1562.05  E(vib)   ...       0.00 
freq.    1565.80  E(vib)   ...       0.00 
freq.    1605.15  E(vib)   ...       0.00 
freq.    2423.64  E(vib)   ...       0.00 
freq.    2946.55  E(vib)   ...       0.00 
freq.    2962.68  E(vib)   ...       0.00 
freq.    2969.22  E(vib)   ...       0.00 
freq.    2975.00  E(vib)   ...       0.00 
freq.    2980.66  E(vib)   ...       0.00 
freq.    2982.76  E(vib)   ...       0.00 
freq.    2989.36  E(vib)   ...       0.00 
freq.    3000.98  E(vib)   ...       0.00 
freq.    3015.86  E(vib)   ...       0.00 
freq.    3060.29  E(vib)   ...       0.00 
freq.    3062.84  E(vib)   ...       0.00 
freq.    3069.91  E(vib)   ...       0.00 
freq.    3077.82  E(vib)   ...       0.00 
freq.    3085.98  E(vib)   ...       0.00 
freq.    3091.86  E(vib)   ...       0.00 
freq.    3116.84  E(vib)   ...       0.00 
freq.    3599.79  E(vib)   ...       0.00 
freq.    3602.83  E(vib)   ...       0.00 
freq.    3617.45  E(vib)   ...       0.00 

------------
INNER ENERGY
------------

The inner energy is: U= E(el) + E(ZPE) + E(vib) + E(rot) + E(trans)
    E(el)   - is the total energy from the electronic structure calculation
              = E(kin-el) + E(nuc-el) + E(el-el) + E(nuc-nuc)
    E(ZPE)  - the the zero temperature vibrational energy from the frequency calculation
    E(vib)  - the the finite temperature correction to E(ZPE) due to population
              of excited vibrational states
    E(rot)  - is the rotational thermal energy
    E(trans)- is the translational thermal energy

Summary of contributions to the inner energy U:
Electronic energy                ...    -49.34268152 Eh
Zero point energy                ...      0.29646566 Eh     186.03 kcal/mol
Thermal vibrational correction   ...      0.01598172 Eh      10.03 kcal/mol
Thermal rotational correction    ...      0.00141627 Eh       0.89 kcal/mol
Thermal translational correction ...      0.00141627 Eh       0.89 kcal/mol
-----------------------------------------------------------------------
Total thermal energy                    -49.02740161 Eh


Summary of corrections to the electronic energy:
(perhaps to be used in another calculation)
Total thermal correction                  0.01881426 Eh      11.81 kcal/mol
Non-thermal (ZPE) correction              0.29646566 Eh     186.03 kcal/mol
-----------------------------------------------------------------------
Total correction                          0.31527992 Eh     197.84 kcal/mol


--------
ENTHALPY
--------

The enthalpy is H = U + kB*T
                kB is Boltzmann's constant
Total free energy                 ...    -49.02740161 Eh 
Thermal Enthalpy correction       ...      0.00094421 Eh       0.59 kcal/mol
-----------------------------------------------------------------------
Total Enthalpy                    ...    -49.02645740 Eh


Note: Only C1 symmetry has been detected, increase convergence thresholds 
      if your molecule has a higher symmetry. Symmetry factor of 1.0 is   
      used for the rotational entropy correction. 
 

Note: Rotational entropy computed according to Herzberg 
Infrared and Raman Spectra, Chapter V,1, Van Nostrand Reinhold, 1945 
Point Group:  C1, Symmetry Number:   1  
Rotational constants in cm-1:     0.027350     0.008504     0.007937 

Vibrational entropy computed according to the QRRHO of S. Grimme
Chem.Eur.J. 2012 18 9955


-------
ENTROPY
-------

The entropy contributions are T*S = T*(S(el)+S(vib)+S(rot)+S(trans))
     S(el)   - electronic entropy
     S(vib)  - vibrational entropy
     S(rot)  - rotational entropy
     S(trans)- translational entropy
The entropies will be listed as mutliplied by the temperature to get
units of energy

Electronic entropy                ...      0.00000000 Eh      0.00 kcal/mol
Vibrational entropy               ...      0.02861773 Eh     17.96 kcal/mol
Rotational entropy                ...      0.01574354 Eh      9.88 kcal/mol
Translational entropy             ...      0.01995728 Eh     12.52 kcal/mol
-----------------------------------------------------------------------
Final entropy term                ...      0.06431855 Eh     40.36 kcal/mol

In case the symmetry of your molecule has not been determined correctly
or in case you have a reason to use a different symmetry number we print 
out the resulting rotational entropy values for sn=1,12 :
 --------------------------------------------------------
|  sn= 1 | S(rot)=       0.01574354 Eh      9.88 kcal/mol|
|  sn= 2 | S(rot)=       0.01508908 Eh      9.47 kcal/mol|
|  sn= 3 | S(rot)=       0.01470625 Eh      9.23 kcal/mol|
|  sn= 4 | S(rot)=       0.01443462 Eh      9.06 kcal/mol|
|  sn= 5 | S(rot)=       0.01422394 Eh      8.93 kcal/mol|
|  sn= 6 | S(rot)=       0.01405179 Eh      8.82 kcal/mol|
|  sn= 7 | S(rot)=       0.01390624 Eh      8.73 kcal/mol|
|  sn= 8 | S(rot)=       0.01378017 Eh      8.65 kcal/mol|
|  sn= 9 | S(rot)=       0.01366896 Eh      8.58 kcal/mol|
|  sn=10 | S(rot)=       0.01356948 Eh      8.51 kcal/mol|
|  sn=11 | S(rot)=       0.01347949 Eh      8.46 kcal/mol|
|  sn=12 | S(rot)=       0.01339733 Eh      8.41 kcal/mol|
 --------------------------------------------------------


-------------------
GIBBS FREE ENERGY
-------------------

The Gibbs free energy is G = H - T*S

Total enthalpy                    ...    -49.02645740 Eh 
Total entropy correction          ...     -0.06431855 Eh    -40.36 kcal/mol
-----------------------------------------------------------------------
Final Gibbs free energy         ...    -49.09077595 Eh

For completeness - the Gibbs free energy minus the electronic energy
G-E(el)                           ...      0.25190557 Eh    158.07 kcal/mol


Total Time for Numerical Frequencies  :        81.225 sec
Time for Reference State(s)           :         0.109 sec
Time for Displacements                :        73.169 sec

Timings for individual modules:

Sum of individual times         ...        0.497 sec (=   0.008 min)
XTB module                      ...        0.497 sec (=   0.008 min) 100.0 %
                             ****ORCA TERMINATED NORMALLY****
TOTAL RUN TIME: 0 days 0 hours 1 minutes 22 seconds 971 msec
(SLURM) EXECUTION TIME: 83.013635411 seconds.
