
                                 *****************
                                 * O   R   C   A *
                                 *****************

           --- An Ab Initio, DFT and Semiempirical electronic structure package ---

                  #######################################################
                  #                        -***-                        #
                  #          Department of theory and spectroscopy      #
                  #               Directorship: Frank Neese             #
                  #        Max Planck Institute fuer Kohlenforschung    #
                  #                Kaiser Wilhelm Platz 1               #
                  #                 D-45470 Muelheim/Ruhr               #
                  #                      Germany                        #
                  #                                                     #
                  #                  All rights reserved                #
                  #                        -***-                        #
                  #######################################################


                         Program Version 4.2.1 -  RELEASE  -


 With contributions from (in alphabetic order):
   Daniel Aravena         : Magnetic Suceptibility
   Michael Atanasov       : Ab Initio Ligand Field Theory (pilot matlab implementation)
   Alexander A. Auer      : GIAO ZORA, VPT2
   Ute Becker             : Parallelization
   Giovanni Bistoni       : ED, misc. LED, open-shell LED, HFLD
   Martin Brehm           : Molecular dynamics
   Dmytro Bykov           : SCF Hessian
   Vijay G. Chilkuri      : MRCI spin determinant printing, contributions to CSF-ICE
   Dipayan Datta          : RHF DLPNO-CCSD density
   Achintya Kumar Dutta   : EOM-CC, STEOM-CC
   Dmitry Ganyushin       : Spin-Orbit,Spin-Spin,Magnetic field MRCI
   Miquel Garcia          : C-PCM Hessian, Gaussian charge scheme
   Yang Guo               : DLPNO-NEVPT2, CIM, IAO-localization
   Andreas Hansen         : Spin unrestricted coupled pair/coupled cluster methods
   Benjamin Helmich-Paris : CASSCF linear response (MC-RPA)
   Lee Huntington         : MR-EOM, pCC
   Robert Izsak           : Overlap fitted RIJCOSX, COSX-SCS-MP3, EOM
   Christian Kollmar      : KDIIS, OOCD, Brueckner-CCSD(T), CCSD density
   Simone Kossmann        : Meta GGA functionals, TD-DFT gradient, OOMP2, MP2 Hessian
   Martin Krupicka        : AUTO-CI
   Lucas Lang             : DCDCAS
   Dagmar Lenk            : GEPOL surface, SMD
   Dimitrios Liakos       : Extrapolation schemes; Compound Job, initial MDCI parallelization
   Dimitrios Manganas     : Further ROCIS development; embedding schemes
   Dimitrios Pantazis     : SARC Basis sets
   Taras Petrenko         : DFT Hessian,TD-DFT gradient, ASA, ECA, R-Raman, ABS, FL, XAS/XES, NRVS
   Peter Pinski           : DLPNO-MP2, DLPNO-MP2 Gradient
   Christoph Reimann      : Effective Core Potentials
   Marius Retegan         : Local ZFS, SOC
   Christoph Riplinger    : Optimizer, TS searches, QM/MM, DLPNO-CCSD(T), (RO)-DLPNO pert. Triples
   Tobias Risthaus        : Range-separated hybrids, TD-DFT gradient, RPA, STAB
   Michael Roemelt        : Original ROCIS implementation
   Masaaki Saitow         : Open-shell DLPNO-CCSD energy and density
   Barbara Sandhoefer     : DKH picture change effects
   Avijit Sen             : IP-ROCIS
   Kantharuban Sivalingam : CASSCF convergence, NEVPT2, FIC-MRCI
   Bernardo de Souza      : ESD, SOC TD-DFT
   Georgi Stoychev        : AutoAux, RI-MP2 NMR
   Willem Van den Heuvel  : Paramagnetic NMR
   Boris Wezisla          : Elementary symmetry handling
   Frank Wennmohs         : Technical directorship


 We gratefully acknowledge several colleagues who have allowed us to
 interface, adapt or use parts of their codes:
   Stefan Grimme, W. Hujo, H. Kruse,             : VdW corrections, initial TS optimization,
                  C. Bannwarth                     DFT functionals, gCP, sTDA/sTD-DF
   Ed Valeev, F. Pavosevic, A. Kumar             : LibInt (2-el integral package), F12 methods
   Garnet Chan, S. Sharma, J. Yang, R. Olivares  : DMRG
   Ulf Ekstrom                                   : XCFun DFT Library
   Mihaly Kallay                                 : mrcc  (arbitrary order and MRCC methods)
   Andreas Klamt, Michael Diedenhofen            : otool_cosmo (COSMO solvation model)
   Jiri Pittner, Ondrej Demel                    : Mk-CCSD
   Frank Weinhold                                : gennbo (NPA and NBO analysis)
   Christopher J. Cramer and Donald G. Truhlar   : smd solvation model
   Lars Goerigk                                  : TD-DFT with DH, B97 family of functionals
   V. Asgeirsson, H. Jonsson                     : NEB implementation
   FAccTs GmbH                                   : IRC, NEB, NEB-TS, Multilevel, MM, QM/MM, CI optimization
   S Lehtola, MJT Oliveira, MAL Marques          : LibXC Library


 Your calculation uses the libint2 library for the computation of 2-el integrals
 For citations please refer to: http://libint.valeyev.net

 Your ORCA version has been built with support for libXC version: 4.2.3
 For citations please refer to: https://tddft.org/programs/libxc/

 This ORCA versions uses:
   CBLAS   interface :  Fast vector & matrix operations
   LAPACKE interface :  Fast linear algebra routines
   SCALAPACK package :  Parallel linear algebra routines


----- Orbital basis set information -----
Your calculation utilizes the basis: 6-311G(3df)
   H, Li - Ne  : R. Krishnan, J. S. Binkley, R. Seeger and J. A. Pople, J. Chem. Phys. 72, 650 (1980).
   Na - Ar     : A. D. McLean and G. S. Chandler J. Chem. Phys. 72, 5639, (1980).
   K  - Ca     : J.-P. Blaudeau, M. P. McGrath, L. A. Curtiss and L. Radom, J. Chem. Phys. 107, 5016 (1997).
   Ga - Kr     : L. A. Curtiss, M. P. McGrath, J.-P. Blandeau, N. E. Davis, R. C. Binning and L. Radom, J. Chem. Phys. 103, 6104 (1995).
   Pol./Diff.
   H, Li - Cl  : T. Clark, J. Chandrasekhar and P. v. R. Schleyer, J. Comp. Chem. 4, 294 (1983).
   H - Ne      : M. J. Frisch, J. A. Pople and J. S. Binkley, J. Chem. Phys. 80, 3265 (1984).

================================================================================
                                        WARNINGS
                       Please study these warnings very carefully!
================================================================================


WARNING: Geometry Optimization
  ===> : Switching off AutoStart
         For restart on a previous wavefunction, please use MOREAD

WARNING: Post HF methods need fully converged wavefunctions
  ===> : Setting SCFConvForced true
         You can overwrite this default with %scf ConvForced false 


INFO   : the flag for use of LIBINT has been found!

================================================================================
                                       INPUT FILE
================================================================================
NAME = CH3·.inp
|  1> ! UHF MP2 6-311G(3df) Opt Freq NoFrozenCore TightOpt TightSCF Grid4 FinalGrid5 PrintBasis PrintMOs NBO
|  2> %maxcore 3000
|  3> 
|  4> *xyz 0 2
|  5> C        0.000000000      0.000000000      0.000000000
|  6> H        1.071911000      0.000000000      0.000000000
|  7> H       -0.535955000      0.928302000      0.000000000
|  8> H       -0.535955000     -0.928302000      0.000000000
|  9> *
| 10> 
| 11> %pal
| 12>  nprocs 12
| 13> end
| 14> 
| 15>                          ****END OF INPUT****
================================================================================

                       *****************************
                       * Geometry Optimization Run *
                       *****************************

Geometry optimization settings:
Update method            Update   .... BFGS
Choice of coordinates    CoordSys .... Z-matrix Internals
Initial Hessian          InHess   .... Almoef's Model

Convergence Tolerances:
Energy Change            TolE     ....  1.0000e-06 Eh
Max. Gradient            TolMAXG  ....  1.0000e-04 Eh/bohr
RMS Gradient             TolRMSG  ....  3.0000e-05 Eh/bohr
Max. Displacement        TolMAXD  ....  1.0000e-03 bohr
RMS Displacement         TolRMSD  ....  6.0000e-04 bohr
Strict Convergence                ....  False
------------------------------------------------------------------------------
                        ORCA OPTIMIZATION COORDINATE SETUP
------------------------------------------------------------------------------

The optimization will be done in new redundant internal coordinates
Making redundant internal coordinates   ...  (new redundants) done
Evaluating the initial hessian          ...  (Almloef) done
Evaluating the coordinates              ...  done
Calculating the B-matrix                .... done
Calculating the G-matrix                .... done
Diagonalizing the G-matrix              .... done
The first mode is                       ....    1
The number of degrees of freedom        ....    6

    -----------------------------------------------------------------
                    Redundant Internal Coordinates


    -----------------------------------------------------------------
         Definition                    Initial Value    Approx d2E/dq
    -----------------------------------------------------------------
      1. B(H   1,C   0)                  1.0719         0.384842   
      2. B(H   2,C   0)                  1.0719         0.384843   
      3. B(H   3,C   0)                  1.0719         0.384843   
      4. A(H   1,C   0,H   3)          120.0000         0.297003   
      5. A(H   2,C   0,H   3)          120.0000         0.297003   
      6. A(H   1,C   0,H   2)          120.0000         0.297003   
      7. I(H   1,H   3,H   2,C   0)      0.0000         0.023978   
    -----------------------------------------------------------------

Number of atoms                         .... 4
Number of degrees of freedom            .... 7

         *************************************************************
         *                GEOMETRY OPTIMIZATION CYCLE   1            *
         *************************************************************
---------------------------------
CARTESIAN COORDINATES (ANGSTROEM)
---------------------------------
  C      0.000000    0.000000    0.000000
  H      1.071911    0.000000    0.000000
  H     -0.535955    0.928302    0.000000
  H     -0.535955   -0.928302    0.000000

----------------------------
CARTESIAN COORDINATES (A.U.)
----------------------------
  NO LB      ZA    FRAG     MASS         X           Y           Z
   0 C     6.0000    0    12.011    0.000000    0.000000    0.000000
   1 H     1.0000    0     1.008    2.025618    0.000000    0.000000
   2 H     1.0000    0     1.008   -1.012808    1.754237    0.000000
   3 H     1.0000    0     1.008   -1.012808   -1.754237    0.000000

--------------------------------
INTERNAL COORDINATES (ANGSTROEM)
--------------------------------
 C      0   0   0     0.000000000000     0.00000000     0.00000000
 H      1   0   0     1.071911000000     0.00000000     0.00000000
 H      1   2   0     1.071910614384   119.99998104     0.00000000
 H      1   2   3     1.071910614384   119.99998104   180.00000000

---------------------------
INTERNAL COORDINATES (A.U.)
---------------------------
 C      0   0   0     0.000000000000     0.00000000     0.00000000
 H      1   0   0     2.025618229938     0.00000000     0.00000000
 H      1   2   0     2.025617501229   119.99998104     0.00000000
 H      1   2   3     2.025617501229   119.99998104   180.00000000

---------------------
BASIS SET INFORMATION
---------------------
There are 2 groups of distinct atoms

 Group   1 Type C   : 11s5p3d1f contracted to 4s3p3d1f pattern {6311/311/111/1}
 Group   2 Type H   : 5s contracted to 3s pattern {311}

Atom   0C    basis set group =>   1
Atom   1H    basis set group =>   2
Atom   2H    basis set group =>   2
Atom   3H    basis set group =>   2

-------------------------
BASIS SET IN INPUT FORMAT
-------------------------

 # Basis set for element : H 
 NewGTO H 
 S 3 
   1      33.8650000000      0.0254938145
   2       5.0947900000      0.1903731086
   3       1.1587900000      0.8521614860
 S 1 
   1       0.3258400000      1.0000000000
 S 1 
   1       0.1027410000      1.0000000000
  end;

 # Basis set for element : C 
 NewGTO C 
 S 6 
   1    4563.2400000000      0.0019666502
   2     682.0240000000      0.0152306019
   3     154.9730000000      0.0761269097
   4      44.4553000000      0.2608010331
   5      13.0290000000      0.6164620782
   6       1.8277300000      0.2210060280
 S 3 
   1      20.9642000000      0.1146600807
   2       4.8033100000      0.9199996477
   3       1.4593300000     -0.0030306821
 P 3 
   1      20.9642000000      0.0402486927
   2       4.8033100000      0.2375939567
   3       1.4593300000      0.8158538515
 S 1 
   1       0.4834560000      1.0000000000
 P 1 
   1       0.4834560000      1.0000000000
 S 1 
   1       0.1455850000      1.0000000000
 P 1 
   1       0.1455850000      1.0000000000
 D 1 
   1       2.5040000000      1.0000000000
 D 1 
   1       0.6260000000      1.0000000000
 D 1 
   1       0.1565000000      1.0000000000
 F 1 
   1       0.8000000000      1.0000000000
  end;



           ************************************************************
           *        Program running with 12 parallel MPI-processes    *
           *              working on a common directory               *
           ************************************************************
------------------------------------------------------------------------------
                           ORCA GTO INTEGRAL CALCULATION
------------------------------------------------------------------------------

                         BASIS SET STATISTICS AND STARTUP INFO

 # of primitive gaussian shells          ...   35
 # of primitive gaussian functions       ...   63
 # of contracted shells                  ...   20
 # of contracted basis functions         ...   44
 Highest angular momentum                ...    3
 Maximum contraction depth               ...    6
 Integral package used                   ... LIBINT
 Integral threshhold            Thresh   ...  2.500e-11
 Primitive cut-off              TCut     ...  2.500e-12


------------------------------ INTEGRAL EVALUATION ----------------------------


 * One electron integrals 
 Pre-screening matrix                    ... done
 Shell pair data                         ... done (   0.000 sec)



           ************************************************************
           *        Program running with 12 parallel MPI-processes    *
           *              working on a common directory               *
           ************************************************************
-------------------------------------------------------------------------------
                                 ORCA SCF
-------------------------------------------------------------------------------

------------
SCF SETTINGS
------------
Hamiltonian:
 Ab initio Hamiltonian  Method          .... Hartree-Fock(GTOs)


General Settings:
 Integral files         IntName         .... CH3·
 Hartree-Fock type      HFTyp           .... UHF
 Total Charge           Charge          ....    0
 Multiplicity           Mult            ....    2
 Number of Electrons    NEL             ....    9
 Basis Dimension        Dim             ....   44
 Nuclear Repulsion      ENuc            ....      9.7412509664 Eh

Convergence Acceleration:
 DIIS                   CNVDIIS         .... on
   Start iteration      DIISMaxIt       ....    12
   Startup error        DIISStart       ....  0.200000
   # of expansion vecs  DIISMaxEq       ....     5
   Bias factor          DIISBfac        ....   1.050
   Max. coefficient     DIISMaxC        ....  10.000
 Newton-Raphson         CNVNR           .... off
 SOSCF                  CNVSOSCF        .... off
 Level Shifting         CNVShift        .... on
   Level shift para.    LevelShift      ....    0.2500
   Turn off err/grad.   ShiftErr        ....    0.0010
 Zerner damping         CNVZerner       .... off
 Static damping         CNVDamp         .... on
   Fraction old density DampFac         ....    0.7000
   Max. Damping (<1)    DampMax         ....    0.9800
   Min. Damping (>=0)   DampMin         ....    0.0000
   Turn off err/grad.   DampErr         ....    0.1000
 Fernandez-Rico         CNVRico         .... off

SCF Procedure:
 Maximum # iterations   MaxIter         ....   125
 SCF integral mode      SCFMode         .... Direct
   Integral package                     .... LIBINT
 Reset frequency        DirectResetFreq ....    20
 Integral Threshold     Thresh          ....  2.500e-11 Eh
 Primitive CutOff       TCut            ....  2.500e-12 Eh

Convergence Tolerance:
 Convergence Check Mode ConvCheckMode   .... Total+1el-Energy
 Convergence forced     ConvForced      .... 1
 Energy Change          TolE            ....  1.000e-08 Eh
 1-El. energy change                    ....  1.000e-05 Eh
 DIIS Error             TolErr          ....  5.000e-07


Diagonalization of the overlap matrix:
Smallest eigenvalue                        ... 1.229e-02
Time for diagonalization                   ...    0.007 sec
Threshold for overlap eigenvalues          ... 1.000e-08
Number of eigenvalues below threshold      ... 0
Time for construction of square roots      ...    0.001 sec
Total time needed                          ...    0.009 sec

-------------------
DFT GRID GENERATION
-------------------

General Integration Accuracy     IntAcc      ...  4.670
Radial Grid Type                 RadialGrid  ... Gauss-Chebyshev
Angular Grid (max. acc.)         AngularGrid ... Lebedev-302
Angular grid pruning method      GridPruning ... 3 (G Style)
Weight generation scheme         WeightScheme... Becke
Basis function cutoff            BFCut       ...    1.0000e-11
Integration weight cutoff        WCut        ...    1.0000e-14
Grids for H and He will be reduced by one unit

# of grid points (after initial pruning)     ...  16394 (   0.0 sec)
# of grid points (after weights+screening)   ...  16145 (   0.0 sec)
nearest neighbour list constructed           ...    0.0 sec
Grid point re-assignment to atoms done       ...    0.0 sec
Grid point division into batches done        ...    0.2 sec
Reduced shell lists constructed in    0.2 sec

Total number of grid points                  ...    16145
Total number of batches                      ...      253
Average number of points per batch           ...       63
Average number of grid points per atom       ...     4036
Average number of shells per batch           ...    19.04 (95.22%)
Average number of basis functions per batch  ...    41.65 (94.66%)
Average number of large shells per batch     ...    18.52 (97.26%)
Average number of large basis fcns per batch ...    40.96 (98.33%)
Maximum spatial batch extension              ...   2.89,  2.57, 19.60 au
Average spatial batch extension              ...   0.12,  0.13,  0.26 au

Time for grid setup =    0.335 sec

------------------------------
INITIAL GUESS: MODEL POTENTIAL
------------------------------
Loading Hartree-Fock densities                     ... done
Calculating cut-offs                               ... done
Setting up the integral package                    ... done
Initializing the effective Hamiltonian             ... done
Starting the Coulomb interaction                   ... done (   0.0 sec)
Reading the grid                                   ... done
Mapping shells                                     ... done
Starting the XC term evaluation                    ... done (   0.0 sec)
Transforming the Hamiltonian                       ... done (   0.0 sec)
Diagonalizing the Hamiltonian                      ... done (   0.0 sec)
Back transforming the eigenvectors                 ... done (   0.0 sec)
Now organizing SCF variables                       ... done
                      ------------------
                      INITIAL GUESS DONE (   0.7 sec)
                      ------------------
--------------
SCF ITERATIONS
--------------
ITER       Energy         Delta-E        Max-DP      RMS-DP      [F,P]     Damp
               ***  Starting incremental Fock matrix formation  ***
  0    -39.5094537202   0.000000000000 0.02788066  0.00092580  0.2370579 0.7000
  1    -39.5300834425  -0.020629722308 0.02060821  0.00071401  0.1584448 0.7000
                               ***Turning on DIIS***
  2    -39.5431839908  -0.013100548261 0.04341349  0.00152887  0.0989192 0.0000
  3    -39.5187125059   0.024471484895 0.01468058  0.00054817  0.0262820 0.0000
  4    -39.5699316987  -0.051219192836 0.00528292  0.00020623  0.0037503 0.0000
  5    -39.5715022380  -0.001570539245 0.00362081  0.00015706  0.0021321 0.0000
  6    -39.5713966369   0.000105601090 0.00199222  0.00009293  0.0012025 0.0000
  7    -39.5712395725   0.000157064404 0.00140530  0.00007227  0.0005905 0.0000
  8    -39.5711437474   0.000095825010 0.00047286  0.00003027  0.0001676 0.0000
  9    -39.5711277627   0.000015984766 0.00014314  0.00000923  0.0000350 0.0000
 10    -39.5711209766   0.000006786033 0.00007133  0.00000425  0.0000101 0.0000
 11    -39.5711226438  -0.000001667107 0.00002614  0.00000150  0.0000029 0.0000
 12    -39.5711226952  -0.000000051464 0.00001660  0.00000096  0.0000014 0.0000
                            ***DIIS convergence achieved***

               *****************************************************
               *                     SUCCESS                       *
               *           SCF CONVERGED AFTER  13 CYCLES          *
               *****************************************************


----------------
TOTAL SCF ENERGY
----------------

Total Energy       :          -39.57112328 Eh           -1076.78501 eV

Components:
Nuclear Repulsion  :            9.74125097 Eh             265.07291 eV
Electronic Energy  :          -49.31237424 Eh           -1341.85792 eV
One Electron Energy:          -71.70077315 Eh           -1951.07723 eV
Two Electron Energy:           22.38839891 Eh             609.21931 eV

Virial components:
Potential Energy   :          -79.17220813 Eh           -2154.38531 eV
Kinetic Energy     :           39.60108485 Eh            1077.60030 eV
Virial Ratio       :            1.99924342


---------------
SCF CONVERGENCE
---------------

  Last Energy change         ...   -5.8062e-07  Tolerance :   1.0000e-08
  Last MAX-Density change    ...    2.0320e-06  Tolerance :   1.0000e-07
  Last RMS-Density change    ...    1.1842e-07  Tolerance :   5.0000e-09
  Last DIIS Error            ...    1.2241e-07  Tolerance :   5.0000e-07

             **** THE GBW FILE WAS UPDATED (CH3·.gbw) ****
             **** DENSITY FILE WAS UPDATED (CH3·.scfp) ****
             **** ENERGY FILE WAS UPDATED (CH3·.en.tmp) ****
----------------------
UHF SPIN CONTAMINATION
----------------------

Expectation value of <S**2>     :     0.762119
Ideal value S*(S+1) for S=0.5   :     0.750000
Deviation                       :     0.012119

             **** THE GBW FILE WAS UPDATED (CH3·.gbw) ****
             **** DENSITY FILE WAS UPDATED (CH3·.scfp) ****
----------------
ORBITAL ENERGIES
----------------
                 SPIN UP ORBITALS
  NO   OCC          E(Eh)            E(eV) 
   0   1.0000     -11.227651      -305.5199 
   1   1.0000      -0.949242       -25.8302 
   2   1.0000      -0.581844       -15.8328 
   3   1.0000      -0.581843       -15.8328 
   4   1.0000      -0.384734       -10.4692 
   5   0.0000       0.161423         4.3925 
   6   0.0000       0.220292         5.9944 
   7   0.0000       0.220292         5.9944 
   8   0.0000       0.366058         9.9609 
   9   0.0000       0.366058         9.9609 
  10   0.0000       0.382959        10.4208 
  11   0.0000       0.433464        11.7951 
  12   0.0000       0.433464        11.7951 
  13   0.0000       0.578029        15.7290 
  14   0.0000       0.753742        20.5104 
  15   0.0000       0.792353        21.5610 
  16   0.0000       0.792353        21.5610 
  17   0.0000       0.898132        24.4394 
  18   0.0000       0.898132        24.4394 
  19   0.0000       0.968347        26.3501 
  20   0.0000       1.755818        47.7782 
  21   0.0000       1.782106        48.4936 
  22   0.0000       1.782106        48.4936 
  23   0.0000       1.795972        48.8709 
  24   0.0000       1.795972        48.8709 
  25   0.0000       2.580113        70.2084 
  26   0.0000       2.793638        76.0188 
  27   0.0000       2.793639        76.0188 
  28   0.0000       2.970235        80.8242 
  29   0.0000       2.987815        81.3026 
  30   0.0000       3.063382        83.3589 
  31   0.0000       3.063382        83.3589 
  32   0.0000       3.066679        83.4486 
  33   0.0000       3.202660        87.1488 
  34   0.0000       3.202660        87.1488 
  35   0.0000       4.029303       109.6429 
  36   0.0000       4.029304       109.6429 
  37   0.0000       4.447741       121.0292 
  38   0.0000       7.411951       201.6894 
  39   0.0000       7.411951       201.6894 
  40   0.0000       7.551251       205.4800 
  41   0.0000       7.616222       207.2479 
  42   0.0000       7.616223       207.2480 
  43   0.0000      24.542700       667.8408 

                 SPIN DOWN ORBITALS
  NO   OCC          E(Eh)            E(eV) 
   0   1.0000     -11.203787      -304.8705 
   1   1.0000      -0.858342       -23.3567 
   2   1.0000      -0.568266       -15.4633 
   3   1.0000      -0.568266       -15.4633 
   4   0.0000       0.136577         3.7165 
   5   0.0000       0.172836         4.7031 
   6   0.0000       0.224617         6.1121 
   7   0.0000       0.224617         6.1121 
   8   0.0000       0.367648        10.0042 
   9   0.0000       0.367648        10.0042 
  10   0.0000       0.439279        11.9534 
  11   0.0000       0.464630        12.6432 
  12   0.0000       0.464630        12.6432 
  13   0.0000       0.716768        19.5043 
  14   0.0000       0.760963        20.7069 
  15   0.0000       0.809828        22.0365 
  16   0.0000       0.809828        22.0365 
  17   0.0000       0.907162        24.6851 
  18   0.0000       0.907162        24.6851 
  19   0.0000       1.001578        27.2543 
  20   0.0000       1.792300        48.7710 
  21   0.0000       1.792300        48.7710 
  22   0.0000       1.834621        49.9226 
  23   0.0000       1.872265        50.9469 
  24   0.0000       1.872265        50.9469 
  25   0.0000       2.586043        70.3698 
  26   0.0000       2.801707        76.2383 
  27   0.0000       2.801707        76.2383 
  28   0.0000       2.993161        81.4480 
  29   0.0000       3.049787        82.9889 
  30   0.0000       3.098525        84.3152 
  31   0.0000       3.098525        84.3152 
  32   0.0000       3.130367        85.1816 
  33   0.0000       3.246518        88.3423 
  34   0.0000       3.246518        88.3423 
  35   0.0000       4.039321       109.9155 
  36   0.0000       4.039322       109.9155 
  37   0.0000       4.456516       121.2680 
  38   0.0000       7.460612       203.0136 
  39   0.0000       7.460612       203.0136 
  40   0.0000       7.610144       207.0825 
  41   0.0000       7.629417       207.6070 
  42   0.0000       7.629417       207.6070 
  43   0.0000      24.559679       668.3029 
------------------
MOLECULAR ORBITALS
------------------
                      0         1         2         3         4         5   
                 -11.22765  -0.94924  -0.58184  -0.58184  -0.38473   0.16142
                   1.00000   1.00000   1.00000   1.00000   1.00000   0.00000
                  --------  --------  --------  --------  --------  --------
  0C   1s        -0.562910 -0.108676  0.000000  0.000000  0.000000 -0.049131
  0C   2s        -0.466459 -0.183988  0.000000  0.000000  0.000000 -0.078962
  0C   1pz       -0.000000  0.000000  0.000000  0.000000 -0.257339  0.000000
  0C   1px       -0.000000 -0.000000  0.000000 -0.194796 -0.000000  0.000000
  0C   1py        0.000000 -0.000000 -0.194796 -0.000000 -0.000000 -0.000000
  0C   3s        -0.005762  0.482411 -0.000000  0.000000 -0.000000  0.076142
  0C   2pz        0.000000  0.000000  0.000000  0.000000 -0.438590 -0.000000
  0C   2px        0.000000 -0.000000  0.000000 -0.343875 -0.000000  0.000000
  0C   2py       -0.000000 -0.000000 -0.343875 -0.000000  0.000000 -0.000000
  0C   4s         0.001167  0.430584 -0.000000 -0.000000 -0.000000  2.160694
  0C   3pz       -0.000000 -0.000000 -0.000000  0.000000 -0.503589 -0.000000
  0C   3px       -0.000000 -0.000000  0.000000 -0.243756  0.000000  0.000000
  0C   3py       -0.000000 -0.000000 -0.243756 -0.000000 -0.000000 -0.000000
  0C   1dz2      -0.000664  0.000190 -0.000000 -0.000000 -0.000000  0.001951
  0C   1dxz      -0.000000  0.000000 -0.000000  0.000000  0.000000  0.000000
  0C   1dyz      -0.000000  0.000000  0.000000  0.000000 -0.000000 -0.000000
  0C   1dx2y2     0.000000 -0.000000  0.000000 -0.004760  0.000000  0.000000
  0C   1dxy       0.000000  0.000000  0.004760  0.000000 -0.000000  0.000000
  0C   2dz2       0.000061 -0.013241 -0.000000  0.000000 -0.000000  0.002033
  0C   2dxz       0.000000 -0.000000  0.000000 -0.000000  0.000000 -0.000000
  0C   2dyz       0.000000 -0.000000 -0.000000 -0.000000 -0.000000 -0.000000
  0C   2dx2y2     0.000000 -0.000000  0.000000 -0.038306 -0.000000 -0.000000
  0C   2dxy       0.000000  0.000000  0.038306  0.000000 -0.000000  0.000000
  0C   3dz2      -0.000164 -0.002602 -0.000000  0.000000  0.000000 -0.104712
  0C   3dxz      -0.000000  0.000000  0.000000  0.000000 -0.000000  0.000000
  0C   3dyz      -0.000000  0.000000  0.000000 -0.000000  0.000000  0.000000
  0C   3dx2y2    -0.000000 -0.000000  0.000000 -0.020025  0.000000 -0.000000
  0C   3dxy       0.000000  0.000000  0.020025  0.000000 -0.000000  0.000000
  0C   1f0        0.000000  0.000000 -0.000000  0.000000  0.007833 -0.000000
  0C   1f+1      -0.000000 -0.000000 -0.000000  0.006028 -0.000000  0.000000
  0C   1f-1       0.000000  0.000000  0.006028  0.000000 -0.000000  0.000000
  0C   1f+2       0.000000  0.000000  0.000000 -0.000000  0.000000 -0.000000
  0C   1f-2      -0.000000  0.000000  0.000000  0.000000  0.000000 -0.000000
  0C   1f+3       0.000429 -0.015979  0.000000 -0.000000  0.000000 -0.014842
  0C   1f-3      -0.000000 -0.000000 -0.000000  0.000000  0.000000  0.000000
  1H   1s        -0.000132  0.085759  0.000000 -0.163179 -0.000000 -0.021481
  1H   2s        -0.000046  0.072177  0.000000 -0.191915 -0.000000 -0.023164
  1H   3s        -0.000345 -0.010195  0.000000 -0.060640 -0.000000 -1.016350
  2H   1s        -0.000132  0.085759 -0.141317  0.081589 -0.000000 -0.021481
  2H   2s        -0.000046  0.072177 -0.166204  0.095958  0.000000 -0.023164
  2H   3s        -0.000345 -0.010195 -0.052516  0.030320  0.000000 -1.016351
  3H   1s        -0.000132  0.085759  0.141317  0.081589  0.000000 -0.021481
  3H   2s        -0.000046  0.072177  0.166204  0.095958 -0.000000 -0.023164
  3H   3s        -0.000345 -0.010195  0.052516  0.030320  0.000000 -1.016351
                      6         7         8         9        10        11   
                   0.22029   0.22029   0.36606   0.36606   0.38296   0.43346
                   0.00000   0.00000   0.00000   0.00000   0.00000   0.00000
                  --------  --------  --------  --------  --------  --------
  0C   1s        -0.000000 -0.000000 -0.000000 -0.000000  0.013980 -0.000000
  0C   2s        -0.000000 -0.000000 -0.000000 -0.000000  0.026584 -0.000000
  0C   1pz       -0.000000 -0.000000 -0.000000  0.000000  0.000000 -0.000000
  0C   1px       -0.000000 -0.122426 -0.040917 -0.000000 -0.000000 -0.000000
  0C   1py        0.122426 -0.000000  0.000000 -0.040917  0.000000 -0.000000
  0C   3s         0.000000 -0.000000  0.000000  0.000000 -0.099042  0.000000
  0C   2pz       -0.000000  0.000000 -0.000000 -0.000000 -0.000000 -0.000000
  0C   2px       -0.000000 -0.098377 -0.029585 -0.000000 -0.000000  0.000000
  0C   2py        0.098377 -0.000000  0.000000 -0.029585  0.000000  0.000000
  0C   4s         0.000000  0.000001 -0.000001 -0.000000  0.076254 -0.000000
  0C   3pz        0.000000 -0.000000 -0.000000  0.000000 -0.000000  0.000000
  0C   3px       -0.000002 -1.692820  0.109659  0.000000  0.000000 -0.000000
  0C   3py        1.692821 -0.000002 -0.000000  0.109658 -0.000000  0.000000
  0C   1dz2      -0.000000 -0.000000  0.000000  0.000000 -0.017661  0.000000
  0C   1dxz       0.000000 -0.000000 -0.000000  0.000000  0.000000 -0.000000
  0C   1dyz      -0.000000 -0.000000  0.000000  0.000000  0.000000 -0.016025
  0C   1dx2y2    -0.000000 -0.000848  0.014554  0.000000  0.000000 -0.000000
  0C   1dxy      -0.000848  0.000000  0.000000 -0.014554 -0.000000 -0.000000
  0C   2dz2      -0.000000 -0.000000  0.000000  0.000000 -0.005887  0.000000
  0C   2dxz      -0.000000  0.000000 -0.000000  0.000000 -0.000000  0.000000
  0C   2dyz       0.000000  0.000000 -0.000000 -0.000000 -0.000000  0.006233
  0C   2dx2y2    -0.000000 -0.001470  0.015368  0.000000  0.000000 -0.000000
  0C   2dxy      -0.001470  0.000000  0.000000 -0.015368  0.000000 -0.000000
  0C   3dz2      -0.000000 -0.000000  0.000002  0.000000 -0.886190 -0.000000
  0C   3dxz       0.000000 -0.000000 -0.000000  0.000000  0.000000 -0.000000
  0C   3dyz       0.000000 -0.000000 -0.000000  0.000000  0.000000 -1.001568
  0C   3dx2y2    -0.000001 -0.409485  1.027147  0.000000  0.000002 -0.000000
  0C   3dxy      -0.409485  0.000001  0.000000 -1.027147 -0.000000 -0.000000
  0C   1f0       -0.000000 -0.000000 -0.000000  0.000000 -0.000000 -0.000000
  0C   1f+1       0.000000  0.012843 -0.006731 -0.000000 -0.000000  0.000000
  0C   1f-1      -0.012843  0.000000  0.000000 -0.006731 -0.000000 -0.000000
  0C   1f+2      -0.000000  0.000000 -0.000000 -0.000000  0.000000 -0.000000
  0C   1f-2      -0.000000  0.000000 -0.000000  0.000000  0.000000  0.009024
  0C   1f+3      -0.000000 -0.000000  0.000000  0.000000 -0.008527  0.000000
  0C   1f-3       0.000000 -0.000000  0.000000  0.000000 -0.000000 -0.000000
  1H   1s        -0.000000 -0.014632  0.092870  0.000000  0.072443 -0.000000
  1H   2s         0.000000  0.173495 -0.044888 -0.000000  0.140575  0.000000
  1H   3s         0.000003  2.601786 -0.536721 -0.000000 -0.198359  0.000000
  2H   1s         0.012671  0.007316 -0.046435  0.080428  0.072443  0.000000
  2H   2s        -0.150252 -0.086748  0.022444 -0.038874  0.140575 -0.000000
  2H   3s        -2.253215 -1.300891  0.268361 -0.464813 -0.198357 -0.000000
  3H   1s        -0.012671  0.007316 -0.046435 -0.080428  0.072443 -0.000000
  3H   2s         0.150251 -0.086748  0.022444  0.038874  0.140575  0.000000
  3H   3s         2.253212 -1.300896  0.268361  0.464813 -0.198357  0.000000
                     12        13        14        15        16        17   
                   0.43346   0.57803   0.75374   0.79235   0.79235   0.89813
                   0.00000   0.00000   0.00000   0.00000   0.00000   0.00000
                  --------  --------  --------  --------  --------  --------
  0C   1s         0.000000  0.000000  0.057902 -0.000000 -0.000000  0.000000
  0C   2s         0.000000  0.000000  0.114539 -0.000000 -0.000000  0.000000
  0C   1pz       -0.000000 -0.213546 -0.000000  0.000000  0.000000 -0.000000
  0C   1px       -0.000000 -0.000000 -0.000000  0.000000 -0.208775 -0.137982
  0C   1py        0.000000  0.000000 -0.000000 -0.208775 -0.000000  0.000000
  0C   3s        -0.000000 -0.000000 -0.344527  0.000000  0.000000 -0.000001
  0C   2pz       -0.000000 -0.923663  0.000000  0.000000  0.000000  0.000000
  0C   2px       -0.000000 -0.000000 -0.000001  0.000001 -0.998215 -0.591805
  0C   2py        0.000000 -0.000000 -0.000000 -0.998215 -0.000001  0.000000
  0C   4s         0.000000  0.000000 -2.384609 -0.000000  0.000000  0.000008
  0C   3pz        0.000000  1.176299 -0.000000 -0.000000 -0.000000 -0.000000
  0C   3px        0.000000  0.000000  0.000002 -0.000005  3.932671 -3.328945
  0C   3py       -0.000000  0.000000  0.000000  3.932676  0.000005  0.000001
  0C   1dz2       0.000000 -0.000000 -0.005736 -0.000000  0.000000  0.000000
  0C   1dxz       0.016025 -0.000000  0.000000  0.000000 -0.000000 -0.000000
  0C   1dyz      -0.000000  0.000000 -0.000000 -0.000000  0.000000 -0.000000
  0C   1dx2y2     0.000000 -0.000000 -0.000000  0.000000 -0.002571  0.009000
  0C   1dxy       0.000000  0.000000  0.000000  0.002571  0.000000  0.000000
  0C   2dz2      -0.000000 -0.000000 -0.017355 -0.000000  0.000000 -0.000000
  0C   2dxz      -0.006233  0.000000  0.000000 -0.000000 -0.000000  0.000000
  0C   2dyz       0.000000  0.000000  0.000000 -0.000000  0.000000  0.000000
  0C   2dx2y2    -0.000000  0.000000  0.000000 -0.000000  0.026363  0.017015
  0C   2dxy       0.000000 -0.000000 -0.000000 -0.026363 -0.000000  0.000000
  0C   3dz2       0.000000 -0.000000  1.113559  0.000000 -0.000001 -0.000001
  0C   3dxz       1.001568 -0.000000  0.000000  0.000000 -0.000000  0.000000
  0C   3dyz      -0.000000  0.000000 -0.000000 -0.000000 -0.000000  0.000000
  0C   3dx2y2     0.000000  0.000000  0.000001 -0.000001  1.141029 -1.944776
  0C   3dxy       0.000000  0.000000 -0.000000 -1.141030 -0.000001 -0.000000
  0C   1f0        0.000000  0.000309  0.000000 -0.000000  0.000000 -0.000000
  0C   1f+1      -0.000000  0.000000  0.000000  0.000000 -0.013017  0.019270
  0C   1f-1      -0.000000 -0.000000 -0.000000 -0.013017 -0.000000 -0.000000
  0C   1f+2       0.009024  0.000000 -0.000000  0.000000 -0.000000 -0.000000
  0C   1f-2       0.000000 -0.000000 -0.000000 -0.000000  0.000000 -0.000000
  0C   1f+3      -0.000000 -0.000000  0.031737  0.000000 -0.000000 -0.000000
  0C   1f-3       0.000000 -0.000000  0.000000  0.000000  0.000000  0.000000
  1H   1s        -0.000000  0.000000  0.056420 -0.000000  0.036358  0.051108
  1H   2s        -0.000000 -0.000000  1.528673  0.000001 -1.028735  3.024441
  1H   3s        -0.000000 -0.000000 -0.072769  0.000003 -2.620720  1.135892
  2H   1s        -0.000000  0.000000  0.056420  0.031487 -0.018179 -0.025554
  2H   2s        -0.000000  0.000000  1.528672 -0.890914  0.514365 -1.512224
  2H   3s         0.000000 -0.000000 -0.072766 -2.269615  1.310358 -0.567948
  3H   1s        -0.000000  0.000000  0.056420 -0.031486 -0.018179 -0.025554
  3H   2s        -0.000000 -0.000000  1.528672  0.890912  0.514367 -1.512223
  3H   3s        -0.000000  0.000000 -0.072766  2.269611  1.310364 -0.567948
                     18        19        20        21        22        23   
                   0.89813   0.96835   1.75582   1.78211   1.78211   1.79597
                   0.00000   0.00000   0.00000   0.00000   0.00000   0.00000
                  --------  --------  --------  --------  --------  --------
  0C   1s         0.000000 -0.115262  0.001430 -0.000000 -0.000000  0.000000
  0C   2s         0.000000 -0.266603 -0.005684  0.000000  0.000000 -0.000000
  0C   1pz        0.000000 -0.000000  0.000000  0.000000 -0.000000 -0.000000
  0C   1px       -0.000000 -0.000000 -0.000000  0.015447  0.000000 -0.000000
  0C   1py       -0.137983  0.000000 -0.000000 -0.000000  0.015447  0.000000
  0C   3s        -0.000000  2.204449  0.033056 -0.000000 -0.000000 -0.000000
  0C   2pz        0.000000 -0.000000 -0.000000  0.000000  0.000000  0.000000
  0C   2px       -0.000000 -0.000000 -0.000000  0.209744  0.000000 -0.000000
  0C   2py       -0.591807  0.000000 -0.000000 -0.000000  0.209744  0.000000
  0C   4s         0.000000 -5.095410  1.064482 -0.000002 -0.000000  0.000000
  0C   3pz       -0.000000  0.000000  0.000000  0.000000 -0.000000 -0.000000
  0C   3px       -0.000001 -0.000002 -0.000001  1.380527  0.000001 -0.000000
  0C   3py       -3.328942 -0.000000  0.000000 -0.000001  1.380528  0.000000
  0C   1dz2       0.000000 -0.003361  0.011726  0.000000  0.000000  0.000000
  0C   1dxz       0.000000 -0.000000  0.000000 -0.000000  0.000000  0.000000
  0C   1dyz       0.000000 -0.000000  0.000000  0.000000  0.000000 -0.012671
  0C   1dx2y2     0.000000 -0.000000 -0.000000 -0.017391 -0.000000  0.000000
  0C   1dxy      -0.009000 -0.000000 -0.000000 -0.000000  0.017391  0.000000
  0C   2dz2      -0.000000  0.033538 -1.069909 -0.000000 -0.000000 -0.000000
  0C   2dxz      -0.000000  0.000000  0.000000  0.000000 -0.000000 -0.000000
  0C   2dyz      -0.000000  0.000000 -0.000000  0.000000 -0.000000  1.131101
  0C   2dx2y2     0.000000  0.000000 -0.000000  1.118453  0.000001 -0.000000
  0C   2dxy      -0.017015  0.000000  0.000000  0.000001 -1.118453 -0.000000
  0C   3dz2      -0.000000  0.594049  0.142889  0.000000  0.000000 -0.000000
  0C   3dxz       0.000000  0.000000 -0.000000 -0.000000  0.000000  0.000000
  0C   3dyz       0.000000  0.000000  0.000000 -0.000000  0.000000 -0.519322
  0C   3dx2y2    -0.000000 -0.000001 -0.000001  0.254612  0.000000 -0.000000
  0C   3dxy       1.944773  0.000000 -0.000000  0.000000 -0.254611 -0.000000
  0C   1f0        0.000000 -0.000000  0.000000  0.000000 -0.000000 -0.000000
  0C   1f+1       0.000000  0.000000 -0.000000  0.006252  0.000000 -0.000000
  0C   1f-1       0.019270  0.000000  0.000000 -0.000000  0.006252  0.000000
  0C   1f+2      -0.000000  0.000000  0.000000  0.000000 -0.000000 -0.000000
  0C   1f-2      -0.000000 -0.000000  0.000000  0.000000  0.000000 -0.030690
  0C   1f+3      -0.000000  0.024843 -0.043175 -0.000000 -0.000000 -0.000000
  0C   1f-3      -0.000000 -0.000000  0.000000  0.000000 -0.000000 -0.000000
  1H   1s         0.000000  0.010767  0.227462  0.300680  0.000000 -0.000000
  1H   2s         0.000000  0.590342 -0.887084 -1.805305 -0.000001  0.000000
  1H   3s         0.000000  0.958738  0.105477 -0.078192 -0.000000  0.000000
  2H   1s         0.044261  0.010767  0.227462 -0.150340  0.260396  0.000000
  2H   2s         2.619243  0.590339 -0.887085  0.902655 -1.563440 -0.000000
  2H   3s         0.983710  0.958738  0.105476  0.039096 -0.067717 -0.000000
  3H   1s        -0.044261  0.010767  0.227462 -0.150340 -0.260396 -0.000000
  3H   2s        -2.619244  0.590339 -0.887085  0.902653  1.563441  0.000000
  3H   3s        -0.983710  0.958738  0.105476  0.039096  0.067717  0.000000
                     24        25        26        27        28        29   
                   1.79597   2.58011   2.79364   2.79364   2.97023   2.98781
                   0.00000   0.00000   0.00000   0.00000   0.00000   0.00000
                  --------  --------  --------  --------  --------  --------
  0C   1s        -0.000000  0.025637  0.000000  0.000000  0.000000 -0.000000
  0C   2s        -0.000000  0.029653  0.000000  0.000000  0.000000  0.000000
  0C   1pz       -0.000000 -0.000000  0.000000 -0.000000 -1.285670 -0.000000
  0C   1px        0.000000 -0.000001  0.000000  0.734001 -0.000000  0.000000
  0C   1py        0.000000 -0.000000 -0.734001  0.000000 -0.000000  0.000001
  0C   3s         0.000000 -0.130966 -0.000000 -0.000000 -0.000000 -0.000000
  0C   2pz       -0.000000  0.000000 -0.000000  0.000000  1.386859  0.000000
  0C   2px        0.000000  0.000001 -0.000000 -0.905905  0.000000 -0.000000
  0C   2py       -0.000000  0.000000  0.905905 -0.000000  0.000000 -0.000001
  0C   4s        -0.000000  1.766809  0.000000  0.000004  0.000000  0.000000
  0C   3pz        0.000000 -0.000000  0.000000 -0.000000 -0.546399 -0.000000
  0C   3px        0.000000  0.000001 -0.000000 -1.135901  0.000000  0.000000
  0C   3py       -0.000000  0.000000  1.135902 -0.000000  0.000000  0.000001
  0C   1dz2       0.000000  0.001771 -0.000000 -0.000000 -0.000000 -0.000000
  0C   1dxz       0.012671 -0.000000  0.000000 -0.000000  0.000000 -0.000000
  0C   1dyz       0.000000  0.000000  0.000000 -0.000000  0.000000 -0.000000
  0C   1dx2y2    -0.000000 -0.000000  0.000000  0.002162  0.000000  0.000000
  0C   1dxy      -0.000000  0.000000  0.002162 -0.000000 -0.000000 -0.000000
  0C   2dz2      -0.000000  0.403619  0.000000  0.000000 -0.000000  0.000000
  0C   2dxz      -1.131101  0.000000 -0.000000  0.000000  0.000000  0.000000
  0C   2dyz      -0.000000 -0.000000 -0.000000  0.000000  0.000000 -0.000000
  0C   2dx2y2     0.000000 -0.000000  0.000000  0.292194 -0.000000  0.000000
  0C   2dxy       0.000000 -0.000000  0.292194 -0.000000  0.000000 -0.000000
  0C   3dz2       0.000000 -0.597894 -0.000000 -0.000001  0.000000 -0.000000
  0C   3dxz       0.519322 -0.000000  0.000000 -0.000000 -0.000000 -0.000000
  0C   3dyz       0.000000  0.000000  0.000000 -0.000000  0.000000 -0.000000
  0C   3dx2y2     0.000000  0.000001 -0.000000 -0.842177  0.000000  0.000000
  0C   3dxy       0.000000 -0.000000 -0.842176  0.000000 -0.000000 -0.000000
  0C   1f0       -0.000000 -0.000000  0.000000 -0.000000 -0.222617  0.000000
  0C   1f+1       0.000000 -0.000000  0.000000  0.363072  0.000000 -0.000000
  0C   1f-1       0.000000  0.000000 -0.363072  0.000000 -0.000000  0.000001
  0C   1f+2      -0.030690  0.000000 -0.000000 -0.000000 -0.000000 -0.000000
  0C   1f-2       0.000000 -0.000000  0.000000 -0.000000  0.000000 -0.000000
  0C   1f+3      -0.000000 -0.494003 -0.000000 -0.000001  0.000000 -0.000000
  0C   1f-3       0.000000 -0.000000  0.000001 -0.000000 -0.000000  1.000000
  1H   1s         0.000000  0.631571 -0.000000 -0.892914  0.000000  0.000000
  1H   2s        -0.000000 -1.330078  0.000000  2.219649 -0.000000 -0.000000
  1H   3s         0.000000  0.038044  0.000000  0.003296 -0.000000 -0.000000
  2H   1s        -0.000000  0.631569  0.773287  0.446458  0.000000 -0.000000
  2H   2s         0.000000 -1.330073 -1.922275 -1.109827 -0.000000  0.000000
  2H   3s         0.000000  0.038043 -0.002855 -0.001648 -0.000000 -0.000001
  3H   1s        -0.000000  0.631569 -0.773286  0.446458 -0.000000  0.000000
  3H   2s         0.000000 -1.330073  1.922274 -1.109828  0.000000 -0.000000
  3H   3s        -0.000000  0.038043  0.002855 -0.001648  0.000000  0.000001
                     30        31        32        33        34        35   
                   3.06338   3.06338   3.06668   3.20266   3.20266   4.02930
                   0.00000   0.00000   0.00000   0.00000   0.00000   0.00000
                  --------  --------  --------  --------  --------  --------
  0C   1s         0.000000  0.000000 -0.000000 -0.000000 -0.000000  0.000000
  0C   2s        -0.000000 -0.000000 -0.000000 -0.000000 -0.000000  0.000000
  0C   1pz       -0.000005  0.000000 -0.291454 -0.000000 -0.000000  0.000000
  0C   1px        0.000000 -0.000000  0.000000 -0.000000  0.875117 -0.784952
  0C   1py        0.000000 -0.000000  0.000000 -0.875117 -0.000000 -0.000000
  0C   3s         0.000000  0.000000  0.000000  0.000000 -0.000000 -0.000001
  0C   2pz        0.000006 -0.000000  0.320512  0.000000  0.000000 -0.000000
  0C   2px       -0.000000  0.000000 -0.000000  0.000000 -1.054435  1.134350
  0C   2py       -0.000000  0.000000 -0.000000  1.054436  0.000000  0.000000
  0C   4s        -0.000000 -0.000000 -0.000000 -0.000000 -0.000001  0.000001
  0C   3pz       -0.000002  0.000000 -0.121099 -0.000000 -0.000000  0.000000
  0C   3px        0.000000 -0.000000  0.000000 -0.000000  1.720081 -1.078653
  0C   3py        0.000000 -0.000000 -0.000000 -1.720081 -0.000000 -0.000000
  0C   1dz2       0.000000  0.000000 -0.000000 -0.000000  0.000000 -0.000000
  0C   1dxz      -0.002667  0.000000  0.000000 -0.000000  0.000000 -0.000000
  0C   1dyz       0.000000  0.002667  0.000000  0.000000 -0.000000 -0.000000
  0C   1dx2y2    -0.000000  0.000000  0.000000  0.000000 -0.001295  0.060476
  0C   1dxy       0.000000  0.000000  0.000000 -0.001295 -0.000000 -0.000000
  0C   2dz2       0.000000 -0.000000  0.000000 -0.000000  0.000000 -0.000000
  0C   2dxz      -0.033140  0.000000  0.000001 -0.000000  0.000000  0.000000
  0C   2dyz       0.000000  0.033140  0.000000 -0.000000  0.000000  0.000000
  0C   2dx2y2    -0.000000  0.000000 -0.000000  0.000000 -0.015872  0.524646
  0C   2dxy       0.000000 -0.000000 -0.000000 -0.015872 -0.000000 -0.000000
  0C   3dz2       0.000000  0.000000 -0.000000  0.000000  0.000000 -0.000000
  0C   3dxz       0.006445 -0.000000 -0.000000 -0.000000 -0.000000  0.000000
  0C   3dyz      -0.000000 -0.006445 -0.000000  0.000000 -0.000000  0.000000
  0C   3dx2y2    -0.000000 -0.000000  0.000000 -0.000000  0.526115 -0.341983
  0C   3dxy      -0.000000  0.000000  0.000000  0.526114  0.000000  0.000000
  0C   1f0        0.000016 -0.000000  0.974874 -0.000000 -0.000000 -0.000000
  0C   1f+1      -0.000000  0.000000 -0.000000  0.000000 -0.780236 -0.676080
  0C   1f-1      -0.000000  0.000000  0.000000  0.780236  0.000000 -0.000000
  0C   1f+2       0.999485 -0.000000 -0.000017  0.000000 -0.000000  0.000000
  0C   1f-2       0.000000  0.999485  0.000000 -0.000000  0.000000 -0.000000
  0C   1f+3       0.000000 -0.000000 -0.000000  0.000000  0.000000 -0.000001
  0C   1f-3       0.000000  0.000000 -0.000000 -0.000001 -0.000000  0.000000
  1H   1s        -0.000000 -0.000000 -0.000000 -0.000000  0.077606 -1.184545
  1H   2s         0.000000  0.000000  0.000000  0.000000 -0.655494  1.041862
  1H   3s        -0.000000  0.000000 -0.000000  0.000000 -0.949658  0.345480
  2H   1s         0.000000 -0.000000 -0.000000 -0.067209 -0.038803  0.592271
  2H   2s        -0.000000  0.000000  0.000000  0.567674  0.327747 -0.520930
  2H   3s        -0.000000  0.000000  0.000000  0.822428  0.474829 -0.172740
  3H   1s         0.000000  0.000000  0.000000  0.067209 -0.038803  0.592271
  3H   2s        -0.000000 -0.000000 -0.000000 -0.567674  0.327747 -0.520930
  3H   3s         0.000000 -0.000000  0.000000 -0.822428  0.474829 -0.172740
                     36        37        38        39        40        41   
                   4.02930   4.44774   7.41195   7.41195   7.55125   7.61622
                   0.00000   0.00000   0.00000   0.00000   0.00000   0.00000
                  --------  --------  --------  --------  --------  --------
  0C   1s        -0.000000 -0.030528 -0.000000  0.000000 -0.013550  0.000000
  0C   2s        -0.000000 -0.019117  0.000000 -0.000000 -0.001976  0.000000
  0C   1pz        0.000000  0.000000  0.000000 -0.000000 -0.000000 -0.000000
  0C   1px        0.000000  0.000001 -0.000000  0.000000 -0.000000 -0.000000
  0C   1py       -0.784953  0.000000  0.000000 -0.000000 -0.000000 -0.114557
  0C   3s         0.000000 -0.216482  0.000000 -0.000000 -0.034423  0.000000
  0C   2pz       -0.000000 -0.000000 -0.000000  0.000000  0.000000  0.000000
  0C   2px       -0.000000 -0.000002  0.000000 -0.000000  0.000000  0.000000
  0C   2py        1.134351 -0.000000 -0.000000  0.000000  0.000000  0.239300
  0C   4s        -0.000000  0.544868 -0.000000  0.000000  0.165496 -0.000000
  0C   3pz        0.000000  0.000000  0.000000 -0.000000 -0.000000 -0.000000
  0C   3px        0.000000  0.000002 -0.000000  0.000000 -0.000000 -0.000000
  0C   3py       -1.078653  0.000000  0.000000  0.000000 -0.000000 -0.073629
  0C   1dz2       0.000000 -0.075508  0.000000 -0.000000  1.153996 -0.000000
  0C   1dxz       0.000000  0.000000  0.000001 -1.142311 -0.000000  0.000000
  0C   1dyz       0.000000  0.000000  1.142311  0.000001 -0.000000  0.000000
  0C   1dx2y2    -0.000000 -0.000000  0.000000  0.000000 -0.000003 -0.000000
  0C   1dxy      -0.060476  0.000000 -0.000000  0.000000  0.000000  1.161799
  0C   2dz2      -0.000000 -0.408772 -0.000000  0.000000 -0.716687  0.000000
  0C   2dxz      -0.000000 -0.000000 -0.000001  0.602257  0.000000 -0.000000
  0C   2dyz       0.000000 -0.000000 -0.602257 -0.000001  0.000000 -0.000000
  0C   2dx2y2    -0.000000 -0.000001  0.000000 -0.000000  0.000002  0.000000
  0C   2dxy      -0.524646  0.000000  0.000000 -0.000000 -0.000000 -0.754249
  0C   3dz2       0.000000  0.004217  0.000000 -0.000000  0.157862 -0.000000
  0C   3dxz       0.000000 -0.000000  0.000000 -0.180065 -0.000000  0.000000
  0C   3dyz      -0.000000  0.000000  0.180065  0.000000 -0.000000  0.000000
  0C   3dx2y2     0.000000  0.000001 -0.000000  0.000000 -0.000001 -0.000000
  0C   3dxy       0.341983  0.000000 -0.000000  0.000000  0.000000  0.170227
  0C   1f0        0.000000 -0.000000 -0.000000 -0.000000 -0.000000  0.000000
  0C   1f+1       0.000000  0.000001 -0.000000  0.000000 -0.000000 -0.000000
  0C   1f-1      -0.676080  0.000000  0.000000 -0.000000 -0.000000 -0.113309
  0C   1f+2      -0.000000  0.000000  0.000000 -0.002547 -0.000000 -0.000000
  0C   1f-2      -0.000000  0.000000 -0.002547 -0.000000 -0.000000 -0.000000
  0C   1f+3      -0.000000 -1.174322 -0.000000 -0.000000 -0.200687  0.000000
  0C   1f-3       0.000001 -0.000000  0.000000 -0.000000 -0.000000  0.000000
  1H   1s         0.000000 -0.877922 -0.000000  0.000000 -0.208849 -0.000000
  1H   2s        -0.000000  0.526006  0.000000 -0.000000  0.061378  0.000000
  1H   3s        -0.000000 -0.246881  0.000000 -0.000000 -0.033083  0.000000
  2H   1s        -1.025846 -0.877925  0.000000 -0.000000 -0.208848 -0.251894
  2H   2s         0.902278  0.526008 -0.000000  0.000000  0.061377  0.034304
  2H   3s         0.299195 -0.246881 -0.000000 -0.000000 -0.033084  0.084291
  3H   1s         1.025846 -0.877925 -0.000000  0.000000 -0.208848  0.251894
  3H   2s        -0.902278  0.526008  0.000000  0.000000  0.061377 -0.034304
  3H   3s        -0.299195 -0.246881  0.000000 -0.000000 -0.033084 -0.084291
                     42        43   
                   7.61622  24.54270
                   0.00000   0.00000
                  --------  --------
  0C   1s        -0.000000 -2.026908
  0C   2s        -0.000000  2.171745
  0C   1pz        0.000000 -0.000000
  0C   1px        0.114557 -0.000000
  0C   1py       -0.000000  0.000000
  0C   3s        -0.000000 -0.459978
  0C   2pz       -0.000000  0.000000
  0C   2px       -0.239300  0.000000
  0C   2py        0.000000 -0.000000
  0C   4s         0.000001  0.572104
  0C   3pz        0.000000 -0.000000
  0C   3px        0.073629 -0.000000
  0C   3py       -0.000000  0.000000
  0C   1dz2       0.000003 -0.011581
  0C   1dxz       0.000000 -0.000000
  0C   1dyz      -0.000000 -0.000000
  0C   1dx2y2     1.161799 -0.000000
  0C   1dxy       0.000000  0.000000
  0C   2dz2      -0.000002  0.029473
  0C   2dxz      -0.000000  0.000000
  0C   2dyz       0.000000  0.000000
  0C   2dx2y2    -0.754249  0.000000
  0C   2dxy      -0.000000 -0.000000
  0C   3dz2       0.000000 -0.047064
  0C   3dxz       0.000000 -0.000000
  0C   3dyz      -0.000000 -0.000000
  0C   3dx2y2     0.170227 -0.000000
  0C   3dxy       0.000000 -0.000000
  0C   1f0       -0.000000 -0.000000
  0C   1f+1       0.113309 -0.000000
  0C   1f-1      -0.000000  0.000000
  0C   1f+2       0.000000  0.000000
  0C   1f-2       0.000000  0.000000
  0C   1f+3      -0.000001  0.025791
  0C   1f-3       0.000000 -0.000000
  1H   1s         0.290862  0.043951
  1H   2s        -0.039611 -0.044403
  1H   3s        -0.097331 -0.111407
  2H   1s        -0.145432  0.043951
  2H   2s         0.019806 -0.044403
  2H   3s         0.048665 -0.111407
  3H   1s        -0.145432  0.043951
  3H   2s         0.019806 -0.044403
  3H   3s         0.048665 -0.111407

                      0         1         2         3         4         5   
                 -11.20379  -0.85834  -0.56827  -0.56827   0.13658   0.17284
                   1.00000   1.00000   1.00000   1.00000   0.00000   0.00000
                  --------  --------  --------  --------  --------  --------
  0C   1s         0.563769 -0.101175 -0.000000 -0.000000 -0.000000 -0.048822
  0C   2s         0.466763 -0.170284 -0.000000 -0.000000 -0.000000 -0.077031
  0C   1pz       -0.000000 -0.000000 -0.000000  0.000000 -0.184767  0.000000
  0C   1px        0.000000 -0.000000 -0.000000  0.183880  0.000000  0.000000
  0C   1py       -0.000000 -0.000000  0.183880  0.000000  0.000000 -0.000000
  0C   3s         0.002447  0.431229 -0.000000 -0.000000  0.000000  0.041858
  0C   2pz        0.000000  0.000000 -0.000000 -0.000000 -0.194757  0.000000
  0C   2px       -0.000000 -0.000000 -0.000000  0.313696  0.000000  0.000000
  0C   2py        0.000000 -0.000000  0.313696  0.000000 -0.000000 -0.000000
  0C   4s         0.000257  0.372770  0.000000  0.000000  0.000000  2.238938
  0C   3pz       -0.000000 -0.000000  0.000000  0.000000 -0.786240  0.000000
  0C   3px       -0.000000 -0.000000 -0.000000  0.188363 -0.000000 -0.000000
  0C   3py        0.000000 -0.000000  0.188363  0.000000  0.000000 -0.000000
  0C   1dz2      -0.000688 -0.004398  0.000000  0.000000 -0.000000 -0.000222
  0C   1dxz       0.000000  0.000000 -0.000000 -0.000000  0.000000  0.000000
  0C   1dyz      -0.000000  0.000000  0.000000 -0.000000  0.000000  0.000000
  0C   1dx2y2    -0.000000 -0.000000 -0.000000  0.005204  0.000000  0.000000
  0C   1dxy       0.000000  0.000000 -0.005204 -0.000000  0.000000  0.000000
  0C   2dz2      -0.000722 -0.047417 -0.000000 -0.000000  0.000000 -0.014910
  0C   2dxz      -0.000000 -0.000000  0.000000  0.000000  0.000000 -0.000000
  0C   2dyz       0.000000 -0.000000 -0.000000  0.000000 -0.000000 -0.000000
  0C   2dx2y2    -0.000000 -0.000000 -0.000000  0.036894  0.000000 -0.000000
  0C   2dxy      -0.000000  0.000000 -0.036894 -0.000000 -0.000000  0.000000
  0C   3dz2      -0.000031 -0.026078 -0.000000 -0.000000 -0.000000 -0.115301
  0C   3dxz       0.000000  0.000000  0.000000 -0.000000 -0.000000  0.000000
  0C   3dyz       0.000000 -0.000000 -0.000000  0.000000  0.000000  0.000000
  0C   3dx2y2    -0.000000 -0.000000 -0.000000  0.004026  0.000000 -0.000000
  0C   3dxy      -0.000000  0.000000 -0.004026 -0.000000 -0.000000  0.000000
  0C   1f0       -0.000000  0.000000 -0.000000  0.000000  0.019234  0.000000
  0C   1f+1       0.000000  0.000000  0.000000 -0.013824 -0.000000  0.000000
  0C   1f-1      -0.000000  0.000000 -0.013824 -0.000000  0.000000  0.000000
  0C   1f+2      -0.000000 -0.000000 -0.000000 -0.000000  0.000000 -0.000000
  0C   1f-2       0.000000  0.000000  0.000000  0.000000 -0.000000 -0.000000
  0C   1f+3      -0.000375 -0.016259 -0.000000  0.000000 -0.000000 -0.016266
  0C   1f-3       0.000000 -0.000000  0.000000 -0.000000  0.000000  0.000000
  1H   1s         0.000231  0.098233 -0.000000  0.172183  0.000000 -0.014246
  1H   2s        -0.000033  0.100069 -0.000000  0.241188 -0.000000 -0.009009
  1H   3s         0.000024  0.002088 -0.000000  0.100530  0.000000 -1.038978
  2H   1s         0.000231  0.098233  0.149115 -0.086091 -0.000000 -0.014246
  2H   2s        -0.000033  0.100069  0.208875 -0.120594  0.000000 -0.009010
  2H   3s         0.000024  0.002088  0.087061 -0.050265 -0.000000 -1.038979
  3H   1s         0.000231  0.098233 -0.149115 -0.086091  0.000000 -0.014246
  3H   2s        -0.000033  0.100069 -0.208875 -0.120594  0.000000 -0.009010
  3H   3s         0.000024  0.002088 -0.087061 -0.050265  0.000000 -1.038979
                      6         7         8         9        10        11   
                   0.22462   0.22462   0.36765   0.36765   0.43928   0.46463
                   0.00000   0.00000   0.00000   0.00000   0.00000   0.00000
                  --------  --------  --------  --------  --------  --------
  0C   1s        -0.000000  0.000000  0.000000  0.000000  0.022038  0.000000
  0C   2s        -0.000000  0.000000  0.000000  0.000000  0.040454  0.000000
  0C   1pz        0.000000  0.000000  0.000000 -0.000000 -0.000000  0.000000
  0C   1px       -0.000000  0.121399  0.046092  0.000000 -0.000000  0.000000
  0C   1py        0.121399  0.000000 -0.000000  0.046092  0.000000 -0.000000
  0C   3s         0.000000  0.000000 -0.000000 -0.000000 -0.146288 -0.000000
  0C   2pz       -0.000000 -0.000000 -0.000000 -0.000000  0.000000  0.000000
  0C   2px       -0.000000  0.089752  0.034525  0.000000 -0.000000 -0.000000
  0C   2py        0.089752  0.000000 -0.000000  0.034525  0.000000 -0.000000
  0C   4s         0.000000 -0.000001  0.000001  0.000000  0.068934  0.000000
  0C   3pz        0.000000 -0.000000 -0.000000  0.000000 -0.000000 -0.000000
  0C   3px       -0.000001  1.721961 -0.079332 -0.000000 -0.000000  0.000000
  0C   3py        1.721961  0.000001  0.000000 -0.079332 -0.000000 -0.000000
  0C   1dz2      -0.000000  0.000000 -0.000000  0.000000 -0.016604 -0.000000
  0C   1dxz       0.000000  0.000000  0.000000 -0.000000  0.000000  0.000000
  0C   1dyz       0.000000  0.000000  0.000000 -0.000000 -0.000000  0.015923
  0C   1dx2y2    -0.000000  0.001177 -0.014347 -0.000000  0.000000  0.000000
  0C   1dxy      -0.001177 -0.000000 -0.000000  0.014347 -0.000000  0.000000
  0C   2dz2      -0.000000  0.000000 -0.000000 -0.000000  0.039284 -0.000000
  0C   2dxz       0.000000  0.000000 -0.000000  0.000000 -0.000000 -0.000000
  0C   2dyz       0.000000 -0.000000 -0.000000  0.000000  0.000000 -0.033054
  0C   2dx2y2    -0.000000  0.003782 -0.010207 -0.000000 -0.000000  0.000000
  0C   2dxy      -0.003782 -0.000000 -0.000000  0.010207  0.000000 -0.000000
  0C   3dz2      -0.000000  0.000000 -0.000000 -0.000000 -0.921288  0.000000
  0C   3dxz      -0.000000  0.000000  0.000000 -0.000000  0.000000  0.000000
  0C   3dyz       0.000000  0.000000  0.000000 -0.000000  0.000000  1.013624
  0C   3dx2y2    -0.000000  0.423753 -1.023938 -0.000000  0.000000  0.000000
  0C   3dxy      -0.423752 -0.000000 -0.000000  1.023938  0.000000  0.000000
  0C   1f0       -0.000000  0.000000  0.000000  0.000000  0.000000 -0.000000
  0C   1f+1       0.000000 -0.016750  0.003875  0.000000  0.000000  0.000000
  0C   1f-1      -0.016750 -0.000000 -0.000000  0.003875  0.000000 -0.000000
  0C   1f+2      -0.000000  0.000000 -0.000000  0.000000  0.000000  0.000000
  0C   1f-2       0.000000  0.000000  0.000000 -0.000000 -0.000000 -0.008986
  0C   1f+3      -0.000000  0.000000  0.000000 -0.000000 -0.007343 -0.000000
  0C   1f-3       0.000000  0.000000  0.000000 -0.000000 -0.000000  0.000000
  1H   1s        -0.000000  0.022292 -0.091357 -0.000000  0.064527  0.000000
  1H   2s         0.000000 -0.161916  0.051084  0.000000  0.116333 -0.000000
  1H   3s         0.000002 -2.629584  0.497637  0.000000 -0.183101 -0.000000
  2H   1s         0.019305 -0.011146  0.045679 -0.079118  0.064527  0.000000
  2H   2s        -0.140224  0.080958 -0.025542  0.044241  0.116333  0.000000
  2H   3s        -2.277288  1.314791 -0.248819  0.430965 -0.183101  0.000000
  3H   1s        -0.019305 -0.011146  0.045679  0.079118  0.064527 -0.000000
  3H   2s         0.140224  0.080958 -0.025542 -0.044241  0.116333 -0.000000
  3H   3s         2.277286  1.314794 -0.248819 -0.430965 -0.183101 -0.000000
                     12        13        14        15        16        17   
                   0.46463   0.71677   0.76096   0.80983   0.80983   0.90716
                   0.00000   0.00000   0.00000   0.00000   0.00000   0.00000
                  --------  --------  --------  --------  --------  --------
  0C   1s        -0.000000  0.000000 -0.054624 -0.000000 -0.000000  0.000000
  0C   2s         0.000000  0.000000 -0.104835 -0.000000 -0.000000  0.000000
  0C   1pz       -0.000000  0.241509 -0.000000 -0.000000  0.000000 -0.000000
  0C   1px       -0.000000  0.000000  0.000000  0.000000 -0.203951 -0.149597
  0C   1py       -0.000000 -0.000000  0.000000 -0.203951 -0.000000  0.000000
  0C   3s        -0.000000 -0.000000  0.220813  0.000000  0.000000 -0.000001
  0C   2pz       -0.000000  1.038674  0.000000 -0.000000  0.000000  0.000000
  0C   2px       -0.000000  0.000000  0.000001  0.000000 -0.994808 -0.628175
  0C   2py       -0.000000 -0.000000  0.000000 -0.994807 -0.000000  0.000000
  0C   4s         0.000000 -0.000000  2.774309 -0.000000 -0.000000  0.000008
  0C   3pz        0.000000 -1.019628 -0.000000  0.000000 -0.000000 -0.000000
  0C   3px        0.000000 -0.000000 -0.000001 -0.000000  3.989592 -3.257150
  0C   3py        0.000000  0.000000 -0.000000  3.989598  0.000000  0.000000
  0C   1dz2       0.000000  0.000000  0.004042 -0.000000 -0.000000  0.000000
  0C   1dxz       0.015923  0.000000  0.000000  0.000000 -0.000000 -0.000000
  0C   1dyz      -0.000000 -0.000000 -0.000000 -0.000000  0.000000 -0.000000
  0C   1dx2y2     0.000000  0.000000  0.000000  0.000000 -0.002767  0.008612
  0C   1dxy       0.000000  0.000000 -0.000000  0.002767  0.000000  0.000000
  0C   2dz2      -0.000000  0.000000 -0.014481  0.000000  0.000000 -0.000000
  0C   2dxz      -0.033054 -0.000000 -0.000000 -0.000000 -0.000000  0.000000
  0C   2dyz       0.000000 -0.000000 -0.000000  0.000000  0.000000  0.000000
  0C   2dx2y2    -0.000000 -0.000000 -0.000000 -0.000000  0.022474  0.014381
  0C   2dxy       0.000000 -0.000000  0.000000 -0.022474 -0.000000  0.000000
  0C   3dz2       0.000000  0.000000 -1.125998 -0.000000 -0.000001 -0.000001
  0C   3dxz       1.013624  0.000000 -0.000000 -0.000000 -0.000000 -0.000000
  0C   3dyz      -0.000000 -0.000000  0.000000 -0.000000 -0.000000  0.000000
  0C   3dx2y2     0.000000 -0.000000 -0.000000 -0.000000  1.184434 -1.920016
  0C   3dxy       0.000000 -0.000000  0.000000 -1.184435 -0.000000 -0.000000
  0C   1f0        0.000000 -0.011530  0.000000  0.000000  0.000000 -0.000000
  0C   1f+1       0.000000  0.000000 -0.000000  0.000000 -0.010746  0.027907
  0C   1f-1       0.000000 -0.000000  0.000000 -0.010746 -0.000000 -0.000000
  0C   1f+2       0.008986 -0.000000  0.000000 -0.000000  0.000000 -0.000000
  0C   1f-2       0.000000  0.000000  0.000000 -0.000000 -0.000000 -0.000000
  0C   1f+3      -0.000000  0.000000 -0.035237 -0.000000 -0.000000 -0.000000
  0C   1f-3      -0.000000 -0.000000 -0.000000  0.000000 -0.000000  0.000000
  1H   1s        -0.000000 -0.000000 -0.055632 -0.000000  0.030546  0.049776
  1H   2s        -0.000000  0.000000 -1.576646  0.000000 -1.095437  2.999139
  1H   3s         0.000000  0.000000 -0.001145  0.000000 -2.621812  1.093034
  2H   1s        -0.000000  0.000000 -0.055631  0.026453 -0.015273 -0.024888
  2H   2s        -0.000000 -0.000000 -1.576645 -0.948679  0.547717 -1.499573
  2H   3s        -0.000000 -0.000000 -0.001147 -2.270558  1.310907 -0.546519
  3H   1s        -0.000000 -0.000000 -0.055631 -0.026453 -0.015273 -0.024888
  3H   2s        -0.000000  0.000000 -1.576645  0.948679  0.547717 -1.499572
  3H   3s         0.000000  0.000000 -0.001147  2.270558  1.310907 -0.546519
                     18        19        20        21        22        23   
                   0.90716   1.00158   1.79230   1.79230   1.83462   1.87226
                   0.00000   0.00000   0.00000   0.00000   0.00000   0.00000
                  --------  --------  --------  --------  --------  --------
  0C   1s         0.000000  0.120137  0.000000 -0.000000  0.010772 -0.000000
  0C   2s         0.000000  0.277290 -0.000000 -0.000000  0.010620 -0.000000
  0C   1pz        0.000000 -0.000000  0.000000  0.000000  0.000000  0.000000
  0C   1px       -0.000000  0.000000 -0.011547 -0.000000 -0.000000  0.000000
  0C   1py       -0.149598 -0.000000  0.000000 -0.011547 -0.000000  0.000000
  0C   3s        -0.000000 -2.229173  0.000000  0.000000 -0.039849  0.000000
  0C   2pz       -0.000000  0.000000 -0.000000  0.000000 -0.000000 -0.000000
  0C   2px       -0.000000  0.000000 -0.209904 -0.000000  0.000000 -0.000000
  0C   2py       -0.628177 -0.000000  0.000000 -0.209904  0.000000 -0.000000
  0C   4s         0.000000  4.863088  0.000002  0.000000  1.113671 -0.000000
  0C   3pz        0.000000 -0.000000  0.000000  0.000000  0.000000  0.000000
  0C   3px       -0.000000  0.000002 -1.401560 -0.000000 -0.000001 -0.000000
  0C   3py       -3.257147  0.000000  0.000000 -1.401560  0.000000 -0.000000
  0C   1dz2       0.000000  0.007742  0.000000  0.000000  0.016606 -0.000000
  0C   1dxz       0.000000  0.000000  0.000000  0.000000 -0.000000 -0.000000
  0C   1dyz       0.000000 -0.000000 -0.000000  0.000000  0.000000  0.017098
  0C   1dx2y2     0.000000  0.000000  0.018491  0.000000 -0.000000  0.000000
  0C   1dxy      -0.008612  0.000000  0.000000 -0.018491  0.000000 -0.000000
  0C   2dz2      -0.000000 -0.014914 -0.000000 -0.000000 -1.052940  0.000000
  0C   2dxz       0.000000 -0.000000 -0.000000 -0.000000  0.000000  0.000000
  0C   2dyz      -0.000000 -0.000000  0.000000  0.000000 -0.000000 -1.133085
  0C   2dx2y2     0.000000 -0.000000 -1.115573 -0.000000  0.000000 -0.000000
  0C   2dxy      -0.014381  0.000000 -0.000000  1.115573 -0.000000  0.000000
  0C   3dz2      -0.000000 -0.514214 -0.000000 -0.000000  0.107789  0.000000
  0C   3dxz      -0.000000 -0.000000  0.000000  0.000000 -0.000000 -0.000000
  0C   3dyz      -0.000000 -0.000000 -0.000000 -0.000000  0.000000  0.496000
  0C   3dx2y2    -0.000000  0.000001 -0.266794 -0.000000 -0.000001 -0.000000
  0C   3dxy       1.920012 -0.000000 -0.000000  0.266793 -0.000000  0.000000
  0C   1f0        0.000000  0.000000 -0.000000  0.000000 -0.000000  0.000000
  0C   1f+1       0.000000 -0.000000 -0.003827 -0.000000 -0.000000  0.000000
  0C   1f-1       0.027907 -0.000000  0.000000 -0.003827  0.000000  0.000000
  0C   1f+2      -0.000000 -0.000000 -0.000000  0.000000  0.000000  0.000000
  0C   1f-2      -0.000000  0.000000 -0.000000 -0.000000  0.000000  0.032905
  0C   1f+3      -0.000000 -0.021320  0.000000  0.000000 -0.053516  0.000000
  0C   1f-3      -0.000000  0.000000 -0.000000  0.000000  0.000000 -0.000000
  1H   1s         0.000000 -0.012159 -0.310934 -0.000000  0.257080 -0.000000
  1H   2s         0.000000 -0.477979  1.826813  0.000000 -0.909044  0.000000
  1H   3s         0.000000 -0.941225  0.085518  0.000000  0.097754 -0.000000
  2H   1s         0.043108 -0.012160  0.155467 -0.269276  0.257080 -0.000000
  2H   2s         2.597332 -0.477976 -0.913408  1.582067 -0.909044  0.000000
  2H   3s         0.946594 -0.941225 -0.042759  0.074061  0.097753  0.000000
  3H   1s        -0.043108 -0.012160  0.155467  0.269276  0.257080  0.000000
  3H   2s        -2.597332 -0.477976 -0.913408 -1.582067 -0.909044 -0.000000
  3H   3s        -0.946594 -0.941225 -0.042759 -0.074061  0.097753  0.000000
                     24        25        26        27        28        29   
                   1.87226   2.58604   2.80171   2.80171   2.99316   3.04979
                   0.00000   0.00000   0.00000   0.00000   0.00000   0.00000
                  --------  --------  --------  --------  --------  --------
  0C   1s         0.000000 -0.024272 -0.000000  0.000000 -0.000000 -0.000000
  0C   2s         0.000000 -0.027791 -0.000000  0.000000  0.000000 -0.000000
  0C   1pz        0.000000  0.000000 -0.000000 -0.000000  0.000000  1.205333
  0C   1px       -0.000000  0.000001 -0.000000  0.746638 -0.000000  0.000000
  0C   1py       -0.000000  0.000000  0.746638  0.000000  0.000001 -0.000000
  0C   3s        -0.000000  0.123012  0.000000 -0.000000 -0.000000  0.000000
  0C   2pz        0.000000 -0.000000  0.000000  0.000000 -0.000000 -1.261804
  0C   2px       -0.000000 -0.000001  0.000000 -0.905565  0.000000 -0.000000
  0C   2py       -0.000000 -0.000000 -0.905565 -0.000000 -0.000001  0.000000
  0C   4s         0.000000 -1.738360 -0.000000  0.000004  0.000000 -0.000000
  0C   3pz       -0.000000  0.000000 -0.000000 -0.000000  0.000000  0.492238
  0C   3px       -0.000000 -0.000001  0.000000 -1.103666  0.000000  0.000000
  0C   3py       -0.000000 -0.000000 -1.103668 -0.000000  0.000001 -0.000000
  0C   1dz2      -0.000000 -0.000023  0.000000 -0.000000 -0.000000 -0.000000
  0C   1dxz      -0.017098  0.000000  0.000000 -0.000000 -0.000000 -0.000000
  0C   1dyz      -0.000000 -0.000000  0.000000  0.000000 -0.000000  0.000000
  0C   1dx2y2     0.000000  0.000000 -0.000000  0.002046  0.000000 -0.000000
  0C   1dxy      -0.000000 -0.000000 -0.002046 -0.000000 -0.000000 -0.000000
  0C   2dz2       0.000000 -0.444329 -0.000000  0.000000  0.000000  0.000000
  0C   2dxz       1.133085 -0.000000  0.000000  0.000000  0.000000 -0.000000
  0C   2dyz       0.000000  0.000000  0.000000  0.000000  0.000000  0.000000
  0C   2dx2y2    -0.000000  0.000000 -0.000000  0.305998 -0.000000  0.000000
  0C   2dxy       0.000000  0.000000 -0.305998 -0.000000 -0.000000 -0.000000
  0C   3dz2      -0.000000  0.600594  0.000000 -0.000001 -0.000000  0.000000
  0C   3dxz      -0.496000  0.000000 -0.000000 -0.000000 -0.000000  0.000000
  0C   3dyz      -0.000000 -0.000000 -0.000000 -0.000000 -0.000000 -0.000000
  0C   3dx2y2    -0.000000 -0.000001  0.000000 -0.831174  0.000000  0.000000
  0C   3dxy       0.000000  0.000000  0.831174  0.000000 -0.000000  0.000000
  0C   1f0        0.000000  0.000000 -0.000000 -0.000000  0.000000  0.420457
  0C   1f+1      -0.000000  0.000000 -0.000000  0.341827  0.000000 -0.000000
  0C   1f-1      -0.000000 -0.000000  0.341827  0.000000  0.000001  0.000000
  0C   1f+2       0.032905 -0.000000 -0.000000 -0.000000 -0.000000  0.000001
  0C   1f-2      -0.000000  0.000000  0.000000 -0.000000  0.000000  0.000000
  0C   1f+3       0.000000  0.491617  0.000000 -0.000001 -0.000000 -0.000000
  0C   1f-3      -0.000000  0.000000 -0.000001 -0.000000  1.000000 -0.000000
  1H   1s        -0.000000 -0.622433  0.000000 -0.898366  0.000000  0.000000
  1H   2s         0.000000  1.305818 -0.000000  2.199730 -0.000000 -0.000000
  1H   3s        -0.000000 -0.035544  0.000000 -0.011096  0.000000 -0.000000
  2H   1s        -0.000000 -0.622431 -0.778009  0.449184 -0.000000 -0.000000
  2H   2s         0.000000  1.305813  1.905025 -1.099868  0.000000  0.000000
  2H   3s        -0.000000 -0.035543 -0.009609  0.005548 -0.000001  0.000000
  3H   1s         0.000000 -0.622431  0.778008  0.449184  0.000000  0.000000
  3H   2s        -0.000000  1.305813 -1.905025 -1.099868 -0.000000 -0.000000
  3H   3s        -0.000000 -0.035543  0.009609  0.005548  0.000001  0.000000
                     30        31        32        33        34        35   
                   3.09853   3.09853   3.13037   3.24652   3.24652   4.03932
                   0.00000   0.00000   0.00000   0.00000   0.00000   0.00000
                  --------  --------  --------  --------  --------  --------
  0C   1s         0.000000  0.000000  0.000000  0.000000  0.000000  0.000000
  0C   2s        -0.000000 -0.000000  0.000000  0.000000  0.000000  0.000000
  0C   1pz       -0.000002 -0.000000  0.551746  0.000000  0.000000  0.000000
  0C   1px        0.000000 -0.000000 -0.000000  0.000000 -0.868818 -0.781772
  0C   1py        0.000000  0.000000  0.000000  0.868818  0.000000 -0.000000
  0C   3s         0.000000  0.000000 -0.000000 -0.000000 -0.000000 -0.000001
  0C   2pz        0.000002  0.000000 -0.602243 -0.000000 -0.000000 -0.000000
  0C   2px       -0.000000  0.000000  0.000000 -0.000000  1.057974  1.124174
  0C   2py       -0.000000 -0.000000 -0.000000 -1.057975 -0.000000  0.000000
  0C   4s        -0.000000 -0.000000  0.000000  0.000000  0.000001  0.000001
  0C   3pz       -0.000001 -0.000000  0.224466  0.000000  0.000000  0.000000
  0C   3px       -0.000000 -0.000000  0.000000  0.000000 -1.727011 -1.051397
  0C   3py        0.000000  0.000000  0.000000  1.727011  0.000000 -0.000000
  0C   1dz2       0.000000  0.000000 -0.000000  0.000000 -0.000000 -0.000000
  0C   1dxz      -0.002515 -0.000000 -0.000000  0.000000 -0.000000 -0.000000
  0C   1dyz      -0.000000  0.002515  0.000000  0.000000 -0.000000 -0.000000
  0C   1dx2y2    -0.000000  0.000000  0.000000 -0.000000  0.001776  0.059829
  0C   1dxy       0.000000  0.000000  0.000000  0.001776  0.000000 -0.000000
  0C   2dz2       0.000000 -0.000000  0.000000  0.000000 -0.000000 -0.000000
  0C   2dxz      -0.035474 -0.000000 -0.000000 -0.000000 -0.000000  0.000000
  0C   2dyz      -0.000000  0.035474  0.000000 -0.000000  0.000000 -0.000000
  0C   2dx2y2     0.000000  0.000000  0.000000 -0.000000  0.030293  0.524712
  0C   2dxy      -0.000000  0.000000  0.000000  0.030293  0.000000 -0.000000
  0C   3dz2       0.000000  0.000000 -0.000000 -0.000000 -0.000000 -0.000000
  0C   3dxz       0.006759  0.000000  0.000000 -0.000000  0.000000  0.000000
  0C   3dyz       0.000000 -0.006759 -0.000000  0.000000 -0.000000  0.000000
  0C   3dx2y2    -0.000000 -0.000000  0.000000  0.000000 -0.534800 -0.331391
  0C   3dxy      -0.000000 -0.000000 -0.000000 -0.534799 -0.000000  0.000000
  0C   1f0        0.000001  0.000000 -0.907035  0.000000  0.000000  0.000000
  0C   1f+1       0.000000  0.000000  0.000000 -0.000000  0.777790 -0.689424
  0C   1f-1      -0.000000 -0.000000 -0.000000 -0.777790 -0.000000 -0.000000
  0C   1f+2       0.999415  0.000000  0.000001 -0.000000 -0.000000 -0.000000
  0C   1f-2      -0.000000  0.999415  0.000000 -0.000000 -0.000000 -0.000000
  0C   1f+3       0.000000 -0.000000  0.000000  0.000000 -0.000000 -0.000001
  0C   1f-3       0.000000 -0.000000  0.000000  0.000000  0.000000  0.000000
  1H   1s        -0.000000 -0.000000  0.000000  0.000000 -0.109170 -1.174384
  1H   2s         0.000000  0.000000 -0.000000 -0.000000  0.691330  1.019711
  1H   3s         0.000000  0.000000 -0.000000 -0.000000  0.941480  0.334636
  2H   1s         0.000000  0.000000  0.000000  0.094544  0.054585  0.587190
  2H   2s        -0.000000 -0.000000 -0.000000 -0.598708 -0.345665 -0.509855
  2H   3s        -0.000000 -0.000000 -0.000000 -0.815345 -0.470740 -0.167319
  3H   1s         0.000000  0.000000 -0.000000 -0.094544  0.054585  0.587191
  3H   2s         0.000000 -0.000000  0.000000  0.598709 -0.345665 -0.509855
  3H   3s         0.000000  0.000000  0.000000  0.815346 -0.470740 -0.167319
                     36        37        38        39        40        41   
                   4.03932   4.45652   7.46061   7.46061   7.61014   7.62942
                   0.00000   0.00000   0.00000   0.00000   0.00000   0.00000
                  --------  --------  --------  --------  --------  --------
  0C   1s         0.000000 -0.029960 -0.000000  0.000000  0.012683  0.000000
  0C   2s         0.000000 -0.018214  0.000000 -0.000000  0.004664  0.000000
  0C   1pz        0.000000  0.000000 -0.000000 -0.000000 -0.000000 -0.000000
  0C   1px       -0.000000  0.000001 -0.000000  0.000000  0.000001  0.000000
  0C   1py        0.781773  0.000000  0.000000 -0.000000  0.000000 -0.114324
  0C   3s        -0.000000 -0.221207  0.000000 -0.000000  0.022449  0.000000
  0C   2pz       -0.000000 -0.000000  0.000000  0.000000  0.000000  0.000000
  0C   2px        0.000000 -0.000002  0.000000 -0.000000 -0.000002 -0.000000
  0C   2py       -1.124175 -0.000000 -0.000000  0.000000 -0.000000  0.238520
  0C   4s         0.000000  0.548798 -0.000000  0.000000 -0.151244 -0.000000
  0C   3pz        0.000000  0.000000  0.000000 -0.000000 -0.000000 -0.000000
  0C   3px       -0.000000  0.000002 -0.000000  0.000000  0.000001  0.000000
  0C   3py        1.051397  0.000000  0.000000 -0.000000  0.000000 -0.073012
  0C   1dz2      -0.000000 -0.072616  0.000000  0.000000 -1.154124 -0.000000
  0C   1dxz       0.000000  0.000000  0.000001 -1.142255 -0.000000  0.000000
  0C   1dyz       0.000000 -0.000000  1.142255  0.000001  0.000000  0.000000
  0C   1dx2y2     0.000000 -0.000000 -0.000000  0.000000  0.000010  0.000000
  0C   1dxy       0.059829  0.000000 -0.000000  0.000000 -0.000000  1.161818
  0C   2dz2       0.000000 -0.417649 -0.000000 -0.000000  0.710662  0.000000
  0C   2dxz       0.000000  0.000000 -0.000000  0.597500  0.000000 -0.000000
  0C   2dyz       0.000000  0.000000 -0.597500 -0.000000 -0.000000 -0.000000
  0C   2dx2y2     0.000000 -0.000001  0.000000 -0.000000 -0.000006 -0.000000
  0C   2dxy       0.524712  0.000000  0.000000 -0.000000  0.000000 -0.752883
  0C   3dz2      -0.000000  0.005327  0.000000  0.000000 -0.157064 -0.000000
  0C   3dxz      -0.000000 -0.000000  0.000000 -0.178332 -0.000000  0.000000
  0C   3dyz      -0.000000 -0.000000  0.178332  0.000000  0.000000  0.000000
  0C   3dx2y2    -0.000000  0.000001 -0.000000  0.000000  0.000002  0.000000
  0C   3dxy      -0.331391 -0.000000 -0.000000  0.000000 -0.000000  0.169670
  0C   1f0        0.000000 -0.000000  0.000000 -0.000000  0.000000  0.000000
  0C   1f+1      -0.000000  0.000001 -0.000000  0.000000  0.000001  0.000000
[...]
                                         0.0027  0.0115  0.9999
  41. (0.00119) RY ( 1) H  3            s(100.00%)
                                        -0.0025  0.9999 -0.0115
  42. (0.00024) RY ( 2) H  3            s(100.00%)
                                         0.0027  0.0115  0.9999
  43. (0.00119) RY ( 1) H  4            s(100.00%)
                                        -0.0025  0.9999 -0.0115
  44. (0.00024) RY ( 2) H  4            s(100.00%)
                                         0.0027  0.0115  0.9999


 NHO DIRECTIONALITY AND BOND BENDING (deviation from line of nuclear centers at
                                      the position of maximum hybrid amplitude)

         [Thresholds for printing:  angular deviation  >  1.0 degree]
                                    p- or d-character  > 25.0%
                                    orbital occupancy  >  0.10e

                        Line of Centers        Hybrid 1             Hybrid 2
                        ---------------  -------------------  ------------------
           NBO            Theta   Phi    Theta   Phi    Dev   Theta   Phi    Dev
 ===============================================================================
    None exceeding thresholds


 NATURAL BOND ORBITALS (Summary):

           NBO                 Occupancy
 ========================================
 Molecular unit  1  (CH3)
 ------ Lewis ---------------------------
    1. CR ( 1) C  1             0.99955
    2. BD ( 1) C  1- H  2       0.98682
    3. BD ( 1) C  1- H  3       0.98682
    4. BD ( 1) C  1- H  4       0.98682
 ------ non-Lewis -----------------------
    5. LV ( 1) C  1             0.00343
    6. BD*( 1) C  1- H  2       0.00580
    7. BD*( 1) C  1- H  3       0.00580
    8. BD*( 1) C  1- H  4       0.00580
    9. RY ( 1) C  1             0.00315
   10. RY ( 2) C  1             0.00315
   11. RY ( 3) C  1             0.00150
   12. RY ( 4) C  1             0.00142
   13. RY ( 5) C  1             0.00142
   14. RY ( 6) C  1             0.00075
   15. RY ( 7) C  1             0.00075
   16. RY ( 8) C  1             0.00040
   17. RY ( 9) C  1             0.00033
   18. RY (10) C  1             0.00022
   19. RY (11) C  1             0.00020
   20. RY (12) C  1             0.00020
   21. RY (13) C  1             0.00017
   22. RY (14) C  1             0.00015
   23. RY (15) C  1             0.00015
   24. RY (16) C  1             0.00015
   25. RY (17) C  1             0.00012
   26. RY (18) C  1             0.00012
   27. RY (19) C  1             0.00010
   28. RY (20) C  1             0.00010
   29. RY (21) C  1             0.00010
   30. RY (22) C  1             0.00005
   31. RY (23) C  1             0.00004
   32. RY (24) C  1             0.00004
   33. RY (25) C  1             0.00002
   34. RY (26) C  1             0.00002
   35. RY (27) C  1             0.00002
   36. RY (28) C  1             0.00002
   37. RY (29) C  1             0.00002
   38. RY (30) C  1             0.00001
   39. RY ( 1) H  2             0.00119
   40. RY ( 2) H  2             0.00024
   41. RY ( 1) H  3             0.00119
   42. RY ( 2) H  3             0.00024
   43. RY ( 1) H  4             0.00119
   44. RY ( 2) H  4             0.00024
          -------------------------------
                 Total Lewis    3.96000  ( 99.0000%)
           Valence non-Lewis    0.02083  (  0.5208%)
           Rydberg non-Lewis    0.01917  (  0.4792%)
          -------------------------------
               Total unit  1    4.00000  (100.0000%)
              Charge unit  1    0.50000

 $CHOOSE
  ALPHA
   LONE 1 1 END
   BOND S 1 2 S 1 3 S 1 4 END
  END
  BETA
   BOND S 1 2 S 1 3 S 1 4 END
  END
 $END

 NBO analysis completed in 0.09 CPU seconds (1 wall second)
 Maximum scratch memory used by NBO was 464159 words (3.54 MB)
Stopping NBO...Storing NBOs: CH3·.pmp2re.nbo

                                *** returned from   NBO  program ***


----------------------------------
MP2 DERIVATIVE INTEGRAL GENERATION
----------------------------------


Input Wavefunction Amplitudes       ... CH3·.mp2tbb.tmp
Input Correlated Electron Density   ... CH3·.pmp2re
Input Energy Weighted Density       ... CH3·.wmp2.tmp
Input SCF Electron Density          ... CH3·.scfp

One-Electron Terms    ...
                        ... One-Electron Terms done
Prescreening matrices              ... done

Batch handling in the gradient evaluation:
Memory available                      ... 3000.0 MB
Memory per occupied orbital in Q2     ...    0.1 MB
Memory per occupied orbital in Q3     ...    0.0 MB
Total memory requirement per |i>      ...    0.1 MB
Max. Number of orbitals possible      ...  20082
Number of orbitals treated per batch  ...      9
Number of batches to be done          ...      1
Batch   0: i=    0 ...     8

---------------------------------------
MP2 TOTAL ENERGY:      -39.731857711 Eh
---------------------------------------

-----------------------------------
NORM OF THE MP2 GRADIENT:  0.000000
-----------------------------------

-------------------------   --------------------
FINAL SINGLE POINT ENERGY       -39.731857710682
-------------------------   --------------------

                                *** OPTIMIZATION RUN DONE ***

                            ***************************************
                            *     ORCA property calculations      *
                            ***************************************

                                    ---------------------
                                    Active property flags
                                    ---------------------
   (+) Dipole Moment


------------------------------------------------------------------------------
                       ORCA ELECTRIC PROPERTIES CALCULATION
------------------------------------------------------------------------------

Dipole Moment Calculation                       ... on
Quadrupole Moment Calculation                   ... off
Polarizability Calculation                      ... off
GBWName                                         ... CH3·.gbw
Electron density file                           ... CH3·.scfp
The origin for moment calculation is the CENTER OF MASS  = ( 0.000000,  0.000000 -0.000000)

-------------
DIPOLE MOMENT
-------------
                                X             Y             Z
Electronic contribution:     -0.00000       0.00000      -0.00000
Nuclear contribution   :      0.00000      -0.00000       0.00000
                        -----------------------------------------
Total Dipole Moment    :      0.00000       0.00000       0.00000
                        -----------------------------------------
Magnitude (a.u.)       :      0.00000
Magnitude (Debye)      :      0.00000



--------------------
Rotational spectrum 
--------------------
 
Rotational constants in cm-1:     9.656745     9.656742     4.828372 
Rotational constants in MHz : 289501.940383 289501.837820 144750.944551 

 Dipole components along the rotational axes: 
x,y,z [a.u.] :    -0.000000    -0.000000     0.000000 
x,y,z [Debye]:    -0.000000    -0.000000     0.000000 

 

                         *** MP2 UNRELAXED DENSITY ***

------------------------------------------------------------------------------
                       ORCA ELECTRIC PROPERTIES CALCULATION
------------------------------------------------------------------------------

Dipole Moment Calculation                       ... on
Quadrupole Moment Calculation                   ... off
Polarizability Calculation                      ... off
GBWName                                         ... CH3·.gbw
Electron density file                           ... CH3·.pmp2ur
The origin for moment calculation is the CENTER OF MASS  = ( 0.000000,  0.000000 -0.000000)

-------------
DIPOLE MOMENT
-------------
                                X             Y             Z
Electronic contribution:     -0.00000       0.00000      -0.00000
Nuclear contribution   :      0.00000      -0.00000       0.00000
                        -----------------------------------------
Total Dipole Moment    :      0.00000      -0.00000       0.00000
                        -----------------------------------------
Magnitude (a.u.)       :      0.00000
Magnitude (Debye)      :      0.00000



--------------------
Rotational spectrum 
--------------------
 
Rotational constants in cm-1:     9.656745     9.656742     4.828372 
Rotational constants in MHz : 289501.940383 289501.837820 144750.944551 

 Dipole components along the rotational axes: 
x,y,z [a.u.] :    -0.000000    -0.000000     0.000000 
x,y,z [Debye]:    -0.000000    -0.000000     0.000000 

 

                           *** MP2 RELAXED DENSITY ***

------------------------------------------------------------------------------
                       ORCA ELECTRIC PROPERTIES CALCULATION
------------------------------------------------------------------------------

Dipole Moment Calculation                       ... on
Quadrupole Moment Calculation                   ... off
Polarizability Calculation                      ... off
GBWName                                         ... CH3·.gbw
Electron density file                           ... CH3·.pmp2re
The origin for moment calculation is the CENTER OF MASS  = ( 0.000000,  0.000000 -0.000000)

-------------
DIPOLE MOMENT
-------------
                                X             Y             Z
Electronic contribution:     -0.00000       0.00000      -0.00000
Nuclear contribution   :      0.00000      -0.00000       0.00000
                        -----------------------------------------
Total Dipole Moment    :      0.00000      -0.00000       0.00000
                        -----------------------------------------
Magnitude (a.u.)       :      0.00000
Magnitude (Debye)      :      0.00000



--------------------
Rotational spectrum 
--------------------
 
Rotational constants in cm-1:     9.656745     9.656742     4.828372 
Rotational constants in MHz : 289501.940383 289501.837820 144750.944551 

 Dipole components along the rotational axes: 
x,y,z [a.u.] :    -0.000000    -0.000000     0.000000 
x,y,z [Debye]:    -0.000000    -0.000000     0.000000 

 
------------------------------------------------------------------------------
                         ORCA MP2 H E S S I A N CALCULATION
------------------------------------------------------------------------------

Calculating analytic MP2 second derivatives ... (>CH3·.last_mp2) done

-----------------------
VIBRATIONAL FREQUENCIES
-----------------------

Scaling factor for frequencies =  1.000000000  (already applied!)

   0:         0.00 cm**-1
   1:         0.00 cm**-1
   2:         0.00 cm**-1
   3:         0.00 cm**-1
   4:         0.00 cm**-1
   5:         0.00 cm**-1
   6:       492.90 cm**-1
   7:      1428.83 cm**-1
   8:      1428.85 cm**-1
   9:      3196.51 cm**-1
  10:      3394.61 cm**-1
  11:      3394.61 cm**-1


------------
NORMAL MODES
------------

These modes are the Cartesian displacements weighted by the diagonal matrix
M(i,i)=1/sqrt(m[i]) where m[i] is the mass of the displaced atom
Thus, these vectors are normalized but *not* orthogonal

                  0          1          2          3          4          5    
      0       0.000000   0.000000   0.000000   0.000000   0.000000   0.000000
      1       0.000000   0.000000   0.000000   0.000000   0.000000   0.000000
      2       0.000000   0.000000   0.000000   0.000000   0.000000   0.000000
      3       0.000000   0.000000   0.000000   0.000000   0.000000   0.000000
      4       0.000000   0.000000   0.000000   0.000000   0.000000   0.000000
      5       0.000000   0.000000   0.000000   0.000000   0.000000   0.000000
      6       0.000000   0.000000   0.000000   0.000000   0.000000   0.000000
      7       0.000000   0.000000   0.000000   0.000000   0.000000   0.000000
      8       0.000000   0.000000   0.000000   0.000000   0.000000   0.000000
      9       0.000000   0.000000   0.000000   0.000000   0.000000   0.000000
     10       0.000000   0.000000   0.000000   0.000000   0.000000   0.000000
     11       0.000000   0.000000   0.000000   0.000000   0.000000   0.000000
                  6          7          8          9         10         11    
      0      -0.000000  -0.092178   0.000000  -0.000001  -0.000000   0.100540
      1      -0.000000  -0.000000  -0.092178   0.000000  -0.100541  -0.000000
      2      -0.143847  -0.000000  -0.000000  -0.000000   0.000000  -0.000000
      3       0.000000  -0.077114   0.000000  -0.577342   0.000002  -0.812253
      4      -0.000000   0.000000   0.809355  -0.000000  -0.013571  -0.000000
      5       0.571346   0.000000   0.000000   0.000000  -0.000000   0.000000
      6      -0.000000   0.587739   0.383853   0.288675  -0.357588  -0.192878
      7       0.000000   0.383850   0.144502  -0.500005   0.605791   0.357586
      8       0.571346   0.000000   0.000000   0.000000  -0.000000   0.000000
      9      -0.000000   0.587739  -0.383853   0.288675   0.357589  -0.192877
     10      -0.000000  -0.383850   0.144502   0.500005   0.605793  -0.357583
     11       0.571346   0.000000   0.000000   0.000000  -0.000000   0.000000


-----------
IR SPECTRUM
-----------

 Mode    freq (cm**-1)   T**2         TX         TY         TZ
-------------------------------------------------------------------
   6:       492.90   71.757733  ( -0.000000  -0.000000   8.470994)
   7:      1428.83    2.513126  (  1.585284   0.000000   0.000000)
   8:      1428.85    2.509556  ( -0.000000   1.584158   0.000000)
   9:      3196.51    0.000000  (  0.000207   0.000000   0.000000)
  10:      3394.61    1.416521  ( -0.000003  -1.190177  -0.000000)
  11:      3394.61    1.418874  (  1.191165  -0.000003   0.000000)

The first frequency considered to be a vibration is 6
The total number of vibrations considered is 6


--------------------------
THERMOCHEMISTRY AT 298.15K
--------------------------

Temperature         ... 298.15 K
Pressure            ... 1.00 atm
Total Mass          ... 15.03 AMU

Throughout the following assumptions are being made:
  (1) The electronic state is orbitally nondegenerate
      but the spin degeneracy is treated
  (2) There are no thermally accessible electronically excited states
  (3) Hindered rotations indicated by low frequency modes are not
      treated as such but are treated as vibrations and this may
      cause some error
  (4) All equations used are the standard statistical mechanics
      equations for an ideal gas
  (5) All vibrations are strictly harmonic

freq.     492.90  E(vib)   ...       0.14 
freq.    1428.83  E(vib)   ...       0.00 
freq.    1428.85  E(vib)   ...       0.00 
freq.    3196.51  E(vib)   ...       0.00 
freq.    3394.61  E(vib)   ...       0.00 
freq.    3394.61  E(vib)   ...       0.00 

------------
INNER ENERGY
------------

The inner energy is: U= E(el) + E(ZPE) + E(vib) + E(rot) + E(trans)
    E(el)   - is the total energy from the electronic structure calculation
              = E(kin-el) + E(nuc-el) + E(el-el) + E(nuc-nuc)
    E(ZPE)  - the the zero temperature vibrational energy from the frequency calculation
    E(vib)  - the the finite temperature correction to E(ZPE) due to population
              of excited vibrational states
    E(rot)  - is the rotational thermal energy
    E(trans)- is the translational thermal energy

Summary of contributions to the inner energy U:
Electronic energy                ...    -39.73185771 Eh
Zero point energy                ...      0.03038232 Eh      19.07 kcal/mol
Thermal vibrational correction   ...      0.00024263 Eh       0.15 kcal/mol
Thermal rotational correction    ...      0.00141627 Eh       0.89 kcal/mol
Thermal translational correction ...      0.00141627 Eh       0.89 kcal/mol
-----------------------------------------------------------------------
Total thermal energy                    -39.69840022 Eh


Summary of corrections to the electronic energy:
(perhaps to be used in another calculation)
Total thermal correction                  0.00307518 Eh       1.93 kcal/mol
Non-thermal (ZPE) correction              0.03038232 Eh      19.07 kcal/mol
-----------------------------------------------------------------------
Total correction                          0.03345749 Eh      20.99 kcal/mol


--------
ENTHALPY
--------

The enthalpy is H = U + kB*T
                kB is Boltzmann's constant
Total free energy                 ...    -39.69840022 Eh 
Thermal Enthalpy correction       ...      0.00094421 Eh       0.59 kcal/mol
-----------------------------------------------------------------------
Total Enthalpy                    ...    -39.69745601 Eh


Note: Rotational entropy computed according to Herzberg 
Infrared and Raman Spectra, Chapter V,1, Van Nostrand Reinhold, 1945 
Point Group:  D3h, Symmetry Number:   6  
Rotational constants in cm-1:     9.656745     9.656742     4.828372 

Vibrational entropy computed according to the QRRHO of S. Grimme
Chem.Eur.J. 2012 18 9955


-------
ENTROPY
-------

The entropy contributions are T*S = T*(S(el)+S(vib)+S(rot)+S(trans))
     S(el)   - electronic entropy
     S(vib)  - vibrational entropy
     S(rot)  - rotational entropy
     S(trans)- translational entropy
The entropies will be listed as mutliplied by the temperature to get
units of energy

Electronic entropy                ...      0.00065446 Eh      0.41 kcal/mol
Vibrational entropy               ...      0.00033686 Eh      0.21 kcal/mol
Rotational entropy                ...      0.00493468 Eh      3.10 kcal/mol
Translational entropy             ...      0.01618771 Eh     10.16 kcal/mol
-----------------------------------------------------------------------
Final entropy term                ...      0.02211370 Eh     13.88 kcal/mol

In case the symmetry of your molecule has not been determined correctly
or in case you have a reason to use a different symmetry number we print 
out the resulting rotational entropy values for sn=1,12 :
 --------------------------------------------------------
|  sn= 1 | S(rot)=       0.00662642 Eh      4.16 kcal/mol|
|  sn= 2 | S(rot)=       0.00597196 Eh      3.75 kcal/mol|
|  sn= 3 | S(rot)=       0.00558913 Eh      3.51 kcal/mol|
|  sn= 4 | S(rot)=       0.00531751 Eh      3.34 kcal/mol|
|  sn= 5 | S(rot)=       0.00510682 Eh      3.20 kcal/mol|
|  sn= 6 | S(rot)=       0.00493468 Eh      3.10 kcal/mol|
|  sn= 7 | S(rot)=       0.00478913 Eh      3.01 kcal/mol|
|  sn= 8 | S(rot)=       0.00466305 Eh      2.93 kcal/mol|
|  sn= 9 | S(rot)=       0.00455184 Eh      2.86 kcal/mol|
|  sn=10 | S(rot)=       0.00445236 Eh      2.79 kcal/mol|
|  sn=11 | S(rot)=       0.00436237 Eh      2.74 kcal/mol|
|  sn=12 | S(rot)=       0.00428022 Eh      2.69 kcal/mol|
 --------------------------------------------------------


-------------------
GIBBS FREE ENERGY
-------------------

The Gibbs free energy is G = H - T*S

Total enthalpy                    ...    -39.69745601 Eh 
Total entropy correction          ...     -0.02211370 Eh    -13.88 kcal/mol
-----------------------------------------------------------------------
Final Gibbs free energy         ...    -39.71956971 Eh

For completeness - the Gibbs free energy minus the electronic energy
G-E(el)                           ...      0.01228800 Eh      7.71 kcal/mol


Timings for individual modules:

Sum of individual times         ...       86.510 sec (=   1.442 min)
GTO integral calculation        ...        6.136 sec (=   0.102 min)   7.1 %
SCF iterations                  ...       21.700 sec (=   0.362 min)  25.1 %
MP2 module                      ...       21.104 sec (=   0.352 min)  24.4 %
Geometry relaxation             ...        0.088 sec (=   0.001 min)   0.1 %
Analytical frequency calculation...       37.482 sec (=   0.625 min)  43.3 %
                             ****ORCA TERMINATED NORMALLY****
TOTAL RUN TIME: 0 days 0 hours 1 minutes 28 seconds 205 msec
