
                                 *****************
                                 * O   R   C   A *
                                 *****************

           --- An Ab Initio, DFT and Semiempirical electronic structure package ---

                  #######################################################
                  #                        -***-                        #
                  #          Department of theory and spectroscopy      #
                  #               Directorship: Frank Neese             #
                  #        Max Planck Institute fuer Kohlenforschung    #
                  #                Kaiser Wilhelm Platz 1               #
                  #                 D-45470 Muelheim/Ruhr               #
                  #                      Germany                        #
                  #                                                     #
                  #                  All rights reserved                #
                  #                        -***-                        #
                  #######################################################


                         Program Version 4.2.1 -  RELEASE  -


 With contributions from (in alphabetic order):
   Daniel Aravena         : Magnetic Suceptibility
   Michael Atanasov       : Ab Initio Ligand Field Theory (pilot matlab implementation)
   Alexander A. Auer      : GIAO ZORA, VPT2
   Ute Becker             : Parallelization
   Giovanni Bistoni       : ED, misc. LED, open-shell LED, HFLD
   Martin Brehm           : Molecular dynamics
   Dmytro Bykov           : SCF Hessian
   Vijay G. Chilkuri      : MRCI spin determinant printing, contributions to CSF-ICE
   Dipayan Datta          : RHF DLPNO-CCSD density
   Achintya Kumar Dutta   : EOM-CC, STEOM-CC
   Dmitry Ganyushin       : Spin-Orbit,Spin-Spin,Magnetic field MRCI
   Miquel Garcia          : C-PCM Hessian, Gaussian charge scheme
   Yang Guo               : DLPNO-NEVPT2, CIM, IAO-localization
   Andreas Hansen         : Spin unrestricted coupled pair/coupled cluster methods
   Benjamin Helmich-Paris : CASSCF linear response (MC-RPA)
   Lee Huntington         : MR-EOM, pCC
   Robert Izsak           : Overlap fitted RIJCOSX, COSX-SCS-MP3, EOM
   Christian Kollmar      : KDIIS, OOCD, Brueckner-CCSD(T), CCSD density
   Simone Kossmann        : Meta GGA functionals, TD-DFT gradient, OOMP2, MP2 Hessian
   Martin Krupicka        : AUTO-CI
   Lucas Lang             : DCDCAS
   Dagmar Lenk            : GEPOL surface, SMD
   Dimitrios Liakos       : Extrapolation schemes; Compound Job, initial MDCI parallelization
   Dimitrios Manganas     : Further ROCIS development; embedding schemes
   Dimitrios Pantazis     : SARC Basis sets
   Taras Petrenko         : DFT Hessian,TD-DFT gradient, ASA, ECA, R-Raman, ABS, FL, XAS/XES, NRVS
   Peter Pinski           : DLPNO-MP2, DLPNO-MP2 Gradient
   Christoph Reimann      : Effective Core Potentials
   Marius Retegan         : Local ZFS, SOC
   Christoph Riplinger    : Optimizer, TS searches, QM/MM, DLPNO-CCSD(T), (RO)-DLPNO pert. Triples
   Tobias Risthaus        : Range-separated hybrids, TD-DFT gradient, RPA, STAB
   Michael Roemelt        : Original ROCIS implementation
   Masaaki Saitow         : Open-shell DLPNO-CCSD energy and density
   Barbara Sandhoefer     : DKH picture change effects
   Avijit Sen             : IP-ROCIS
   Kantharuban Sivalingam : CASSCF convergence, NEVPT2, FIC-MRCI
   Bernardo de Souza      : ESD, SOC TD-DFT
   Georgi Stoychev        : AutoAux, RI-MP2 NMR
   Willem Van den Heuvel  : Paramagnetic NMR
   Boris Wezisla          : Elementary symmetry handling
   Frank Wennmohs         : Technical directorship


 We gratefully acknowledge several colleagues who have allowed us to
 interface, adapt or use parts of their codes:
   Stefan Grimme, W. Hujo, H. Kruse,             : VdW corrections, initial TS optimization,
                  C. Bannwarth                     DFT functionals, gCP, sTDA/sTD-DF
   Ed Valeev, F. Pavosevic, A. Kumar             : LibInt (2-el integral package), F12 methods
   Garnet Chan, S. Sharma, J. Yang, R. Olivares  : DMRG
   Ulf Ekstrom                                   : XCFun DFT Library
   Mihaly Kallay                                 : mrcc  (arbitrary order and MRCC methods)
   Andreas Klamt, Michael Diedenhofen            : otool_cosmo (COSMO solvation model)
   Jiri Pittner, Ondrej Demel                    : Mk-CCSD
   Frank Weinhold                                : gennbo (NPA and NBO analysis)
   Christopher J. Cramer and Donald G. Truhlar   : smd solvation model
   Lars Goerigk                                  : TD-DFT with DH, B97 family of functionals
   V. Asgeirsson, H. Jonsson                     : NEB implementation
   FAccTs GmbH                                   : IRC, NEB, NEB-TS, Multilevel, MM, QM/MM, CI optimization
   S Lehtola, MJT Oliveira, MAL Marques          : LibXC Library


 Your calculation uses the libint2 library for the computation of 2-el integrals
 For citations please refer to: http://libint.valeyev.net

 Your ORCA version has been built with support for libXC version: 4.2.3
 For citations please refer to: https://tddft.org/programs/libxc/

 This ORCA versions uses:
   CBLAS   interface :  Fast vector & matrix operations
   LAPACKE interface :  Fast linear algebra routines
   SCALAPACK package :  Parallel linear algebra routines


----- Orbital basis set information -----
Your calculation utilizes the basis: 6-311G(3df)
   H, Li - Ne  : R. Krishnan, J. S. Binkley, R. Seeger and J. A. Pople, J. Chem. Phys. 72, 650 (1980).
   Na - Ar     : A. D. McLean and G. S. Chandler J. Chem. Phys. 72, 5639, (1980).
   K  - Ca     : J.-P. Blaudeau, M. P. McGrath, L. A. Curtiss and L. Radom, J. Chem. Phys. 107, 5016 (1997).
   Ga - Kr     : L. A. Curtiss, M. P. McGrath, J.-P. Blandeau, N. E. Davis, R. C. Binning and L. Radom, J. Chem. Phys. 103, 6104 (1995).
   Pol./Diff.
   H, Li - Cl  : T. Clark, J. Chandrasekhar and P. v. R. Schleyer, J. Comp. Chem. 4, 294 (1983).
   H - Ne      : M. J. Frisch, J. A. Pople and J. S. Binkley, J. Chem. Phys. 80, 3265 (1984).

================================================================================
                                        WARNINGS
                       Please study these warnings very carefully!
================================================================================


WARNING: Geometry Optimization
  ===> : Switching off AutoStart
         For restart on a previous wavefunction, please use MOREAD

WARNING: Post HF methods need fully converged wavefunctions
  ===> : Setting SCFConvForced true
         You can overwrite this default with %scf ConvForced false 


INFO   : the flag for use of LIBINT has been found!

================================================================================
                                       INPUT FILE
================================================================================
NAME = H3CHCl‡.inp
|  1> ! UHF MP2 6-311G(3df) OptTS Freq IRC NoFrozenCore TightOpt TightSCF Grid4 FinalGrid5 PrintBasis PrintMOs NBO
|  2> %maxcore 2000
|  3> 
|  4> *xyz 0 2
|  5> C        0.000084000      0.000009000      1.937284000
|  6> H       -1.056738000      0.000072000      2.154239000
|  7> H        0.528433000     -0.915241000      2.154332000
|  8> H       -0.000001000     -0.000097000      0.597378000
|  9> H        0.528527000      0.915228000      2.154201000
| 10> Cl      -0.000303000      0.000029000     -0.853145000
| 11> *
| 12> 
| 13> %pal
| 14>  nprocs 12
| 15> end
| 16> 
| 17> %geom
| 18>  inhess read
| 19>  inhessname "freq.hess"
| 20>  ts_mode
| 21>   {B 0 3}
| 22>  end
| 23>  ts_active_atoms
| 24>   {0 3 5}
| 25>  end
| 26>  modify_internal
| 27>   {B 0 3 A}
| 28>   {B 3 5 A}
| 29>  end
| 30> end
| 31> 
| 32> %irc
| 33>  maxiter 1000
| 34>  de_init_displ 0.25
| 35> end
| 36> 
| 37>                          ****END OF INPUT****
================================================================================

                       *****************************
                       * Geometry Optimization Run *
                       *****************************

Geometry optimization settings:
Update method            Update   .... Bofill
Choice of coordinates    CoordSys .... Z-matrix Internals
Initial Hessian          InHess   .... Read

Convergence Tolerances:
Energy Change            TolE     ....  1.0000e-06 Eh
Max. Gradient            TolMAXG  ....  1.0000e-04 Eh/bohr
RMS Gradient             TolRMSG  ....  3.0000e-05 Eh/bohr
Max. Displacement        TolMAXD  ....  1.0000e-03 bohr
RMS Displacement         TolRMSD  ....  6.0000e-04 bohr
Strict Convergence                ....  False
------------------------------------------------------------------------------
                        ORCA OPTIMIZATION COORDINATE SETUP
------------------------------------------------------------------------------

The optimization will be done in new redundant internal coordinates
Making redundant internal coordinates   ...  (new redundants) Bond   3,  0 is already included
Bond   5,  3 is already included
done
Following TS mode number                ...    internal coordinate number:  3
TS-active-atoms for coordinate setup... 0 3 5 
Evaluating the initial hessian          ... (Reading Exact Hessian)...  
InHessName: freq.hess	The file <freq.hess> is opened as a .hess file
done
done
Diagonalizing the Hessian               .... done
Dimension of the hessian                .... 14
Lowest eigenvalues of the non projected Hessian:
 -0.028652719 -0.000000000  0.000000000  0.001920074  0.024217739
done
Evaluating the coordinates              ...  done
Calculating the B-matrix                .... done
Calculating the G-matrix                .... done
Diagonalizing the G-matrix              .... done
The first mode is                       ....    2
The number of degrees of freedom        ....   12

    -----------------------------------------------------------------
                    Redundant Internal Coordinates


    -----------------------------------------------------------------
         Definition                    Initial Value    d2E/dq (diagonal element)
    -----------------------------------------------------------------
      1. B(H   1,C   0)                  1.0789         0.369589   
      2. B(H   2,C   0)                  1.0789         0.369587   
      3. B(H   3,C   0)                  1.3399        -0.009533   
      4. B(H   4,C   0)                  1.0789         0.369581   
      5. B(Cl  5,C   0)                  2.7904         0.039989   
      6. B(Cl  5,H   3)                  1.4505         0.015899   
      7. A(H   1,C   0,H   2)          116.0602         0.083776   
      8. A(H   1,C   0,H   4)          116.0611         0.083773   
      9. A(H   1,C   0,H   3)          101.5974         0.068937   
     10. A(H   2,C   0,H   4)          116.0621         0.083767   
     11. A(H   3,C   0,H   4)          101.6048         0.068941   
     12. A(H   2,C   0,H   3)          101.6040         0.068931   
     13. L(C   0,H   3,Cl  5,H   1, 1) 179.9917         0.024564   
     14. L(C   0,H   3,Cl  5,H   1, 2) 179.9831         0.001938   
    -----------------------------------------------------------------

Number of atoms                         .... 6
Number of degrees of freedom            .... 14

         *************************************************************
         *                GEOMETRY OPTIMIZATION CYCLE   1            *
         *************************************************************
---------------------------------
CARTESIAN COORDINATES (ANGSTROEM)
---------------------------------
  C      0.000084    0.000009    1.937284
  H     -1.056738    0.000072    2.154239
  H      0.528433   -0.915241    2.154332
  H     -0.000001   -0.000097    0.597378
  H      0.528527    0.915228    2.154201
  Cl    -0.000303    0.000029   -0.853145

----------------------------
CARTESIAN COORDINATES (A.U.)
----------------------------
  NO LB      ZA    FRAG     MASS         X           Y           Z
   0 C     6.0000    0    12.011    0.000159    0.000017    3.660936
   1 H     1.0000    0     1.008   -1.996945    0.000136    4.070922
   2 H     1.0000    0     1.008    0.998594   -1.729555    4.071097
   3 H     1.0000    0     1.008   -0.000002   -0.000183    1.128881
   4 H     1.0000    0     1.008    0.998771    1.729530    4.070850
   5 Cl   17.0000    0    35.453   -0.000573    0.000055   -1.612210

--------------------------------
INTERNAL COORDINATES (ANGSTROEM)
--------------------------------
 C      0   0   0     0.000000000000     0.00000000     0.00000000
 H      1   0   0     1.078861536842     0.00000000     0.00000000
 H      1   2   0     1.078862856254   116.06023616     0.00000000
 H      1   2   3     1.339906006889   101.59743710   109.20437234
 H      1   2   3     1.078856249506   116.06108958   218.41004330
 Cl     4   1   2     1.450523036911   179.98738136    48.90260338

---------------------------
INTERNAL COORDINATES (A.U.)
---------------------------
 C      0   0   0     0.000000000000     0.00000000     0.00000000
 H      1   0   0     2.038752841054     0.00000000     0.00000000
 H      1   2   0     2.038755334381   116.06023616     0.00000000
 H      1   2   3     2.532055398216   101.59743710   109.20437234
 H      1   2   3     2.038742849436   116.06108958   218.41004330
 Cl     4   1   2     2.741091290705   179.98738136    48.90260338

---------------------
BASIS SET INFORMATION
---------------------
There are 3 groups of distinct atoms

 Group   1 Type C   : 11s5p3d1f contracted to 4s3p3d1f pattern {6311/311/111/1}
 Group   2 Type H   : 5s contracted to 3s pattern {311}
 Group   3 Type Cl  : 13s10p3d1f contracted to 6s5p3d1f pattern {631111/52111/111/1}

Atom   0C    basis set group =>   1
Atom   1H    basis set group =>   2
Atom   2H    basis set group =>   2
Atom   3H    basis set group =>   2
Atom   4H    basis set group =>   2
Atom   5Cl   basis set group =>   3

-------------------------
BASIS SET IN INPUT FORMAT
-------------------------

 # Basis set for element : H 
 NewGTO H 
 S 3 
   1      33.8650000000      0.0254938145
   2       5.0947900000      0.1903731086
   3       1.1587900000      0.8521614860
 S 1 
   1       0.3258400000      1.0000000000
 S 1 
   1       0.1027410000      1.0000000000
  end;

 # Basis set for element : C 
 NewGTO C 
 S 6 
   1    4563.2400000000      0.0019666502
   2     682.0240000000      0.0152306019
   3     154.9730000000      0.0761269097
   4      44.4553000000      0.2608010331
   5      13.0290000000      0.6164620782
   6       1.8277300000      0.2210060280
 S 3 
   1      20.9642000000      0.1146600807
   2       4.8033100000      0.9199996477
   3       1.4593300000     -0.0030306821
 P 3 
   1      20.9642000000      0.0402486927
   2       4.8033100000      0.2375939567
   3       1.4593300000      0.8158538515
 S 1 
   1       0.4834560000      1.0000000000
 P 1 
   1       0.4834560000      1.0000000000
 S 1 
   1       0.1455850000      1.0000000000
 P 1 
   1       0.1455850000      1.0000000000
 D 1 
   1       2.5040000000      1.0000000000
 D 1 
   1       0.6260000000      1.0000000000
 D 1 
   1       0.1565000000      1.0000000000
 F 1 
   1       0.8000000000      1.0000000000
  end;

 # Basis set for element : Cl
 NewGTO Cl
 S 6 
   1  105819.0000000000      0.0007380002
   2   15872.0000000000      0.0057180019
   3    3619.6500000000      0.0294950099
   4    1030.8000000000      0.1172860392
   5     339.9080000000      0.3629491212
   6     124.5380000000      0.5841491951
 S 3 
   1     124.5380000000      0.1341769734
   2      49.5135000000      0.6242498762
   3      20.8056000000      0.2917559421
 S 1 
   1       6.5834600000      1.0000000000
 S 1 
   1       2.5646800000      1.0000000000
 S 1 
   1       0.5597630000      1.0000000000
 S 1 
   1       0.1832730000      1.0000000000
 P 5 
   1     589.7760000000      0.0023909997
   2     139.8490000000      0.0185039976
   3      45.1413000000      0.0813769893
   4      16.8733000000      0.2215519708
   5       6.7411000000      0.7725688983
 P 2 
   1       6.7411000000     -1.5722438126
   2       2.7715200000      0.9923888817
 P 1 
   1       1.0238700000      1.0000000000
 P 1 
   1       0.3813680000      1.0000000000
 P 1 
   1       0.1094370000      1.0000000000
 D 1 
   1       3.0000000000      1.0000000000
 D 1 
   1       0.7500000000      1.0000000000
 D 1 
   1       0.1875000000      1.0000000000
 F 1 
   1       0.7000000000      1.0000000000
  end;



           ************************************************************
           *        Program running with 12 parallel MPI-processes    *
           *              working on a common directory               *
           ************************************************************
------------------------------------------------------------------------------
                           ORCA GTO INTEGRAL CALCULATION
------------------------------------------------------------------------------

                         BASIS SET STATISTICS AND STARTUP INFO

 # of primitive gaussian shells          ...   67
 # of primitive gaussian functions       ...  133
 # of contracted shells                  ...   38
 # of contracted basis functions         ...   90
 Highest angular momentum                ...    3
 Maximum contraction depth               ...    6
 Integral package used                   ... LIBINT
 Integral threshhold            Thresh   ...  2.500e-11
 Primitive cut-off              TCut     ...  2.500e-12


------------------------------ INTEGRAL EVALUATION ----------------------------


 * One electron integrals 
 Pre-screening matrix                    ... done
 Shell pair data                         ... done (   0.000 sec)



           ************************************************************
           *        Program running with 12 parallel MPI-processes    *
           *              working on a common directory               *
           ************************************************************
-------------------------------------------------------------------------------
                                 ORCA SCF
-------------------------------------------------------------------------------

------------
SCF SETTINGS
------------
Hamiltonian:
 Ab initio Hamiltonian  Method          .... Hartree-Fock(GTOs)


General Settings:
 Integral files         IntName         .... H3CHCl‡
 Hartree-Fock type      HFTyp           .... UHF
 Total Charge           Charge          ....    0
 Multiplicity           Mult            ....    2
 Number of Electrons    NEL             ....   27
 Basis Dimension        Dim             ....   90
 Nuclear Repulsion      ENuc            ....     46.9210599865 Eh

Convergence Acceleration:
 DIIS                   CNVDIIS         .... on
   Start iteration      DIISMaxIt       ....    12
   Startup error        DIISStart       ....  0.200000
   # of expansion vecs  DIISMaxEq       ....     5
   Bias factor          DIISBfac        ....   1.050
   Max. coefficient     DIISMaxC        ....  10.000
 Newton-Raphson         CNVNR           .... off
 SOSCF                  CNVSOSCF        .... off
 Level Shifting         CNVShift        .... on
   Level shift para.    LevelShift      ....    0.2500
   Turn off err/grad.   ShiftErr        ....    0.0010
 Zerner damping         CNVZerner       .... off
 Static damping         CNVDamp         .... on
   Fraction old density DampFac         ....    0.7000
   Max. Damping (<1)    DampMax         ....    0.9800
   Min. Damping (>=0)   DampMin         ....    0.0000
   Turn off err/grad.   DampErr         ....    0.1000
 Fernandez-Rico         CNVRico         .... off

SCF Procedure:
 Maximum # iterations   MaxIter         ....   125
 SCF integral mode      SCFMode         .... Direct
   Integral package                     .... LIBINT
 Reset frequency        DirectResetFreq ....    20
 Integral Threshold     Thresh          ....  2.500e-11 Eh
 Primitive CutOff       TCut            ....  2.500e-12 Eh

Convergence Tolerance:
 Convergence Check Mode ConvCheckMode   .... Total+1el-Energy
 Convergence forced     ConvForced      .... 1
 Energy Change          TolE            ....  1.000e-08 Eh
 1-El. energy change                    ....  1.000e-05 Eh
 DIIS Error             TolErr          ....  5.000e-07


Diagonalization of the overlap matrix:
Smallest eigenvalue                        ... 5.762e-03
Time for diagonalization                   ...    0.005 sec
Threshold for overlap eigenvalues          ... 1.000e-08
Number of eigenvalues below threshold      ... 0
Time for construction of square roots      ...    0.019 sec
Total time needed                          ...    0.025 sec

-------------------
DFT GRID GENERATION
-------------------

General Integration Accuracy     IntAcc      ...  4.670
Radial Grid Type                 RadialGrid  ... Gauss-Chebyshev
Angular Grid (max. acc.)         AngularGrid ... Lebedev-302
Angular grid pruning method      GridPruning ... 3 (G Style)
Weight generation scheme         WeightScheme... Becke
Basis function cutoff            BFCut       ...    1.0000e-11
Integration weight cutoff        WCut        ...    1.0000e-14
Grids for H and He will be reduced by one unit

# of grid points (after initial pruning)     ...  26526 (   0.0 sec)
# of grid points (after weights+screening)   ...  25705 (   0.1 sec)
nearest neighbour list constructed           ...    0.0 sec
Grid point re-assignment to atoms done       ...    0.0 sec
Grid point division into batches done        ...    0.2 sec
Reduced shell lists constructed in    0.2 sec

Total number of grid points                  ...    25705
Total number of batches                      ...      405
Average number of points per batch           ...       63
Average number of grid points per atom       ...     4284
Average number of shells per batch           ...    29.83 (78.50%)
Average number of basis functions per batch  ...    71.89 (79.87%)
Average number of large shells per batch     ...    27.83 (93.30%)
Average number of large basis fcns per batch ...    64.80 (90.14%)
Maximum spatial batch extension              ...   1.47,  1.65,  3.00 au
Average spatial batch extension              ...   0.08,  0.08,  0.08 au

Time for grid setup =    0.552 sec

------------------------------
INITIAL GUESS: MODEL POTENTIAL
------------------------------
Loading Hartree-Fock densities                     ... done
Calculating cut-offs                               ... done
Setting up the integral package                    ... done
Initializing the effective Hamiltonian             ... done
Starting the Coulomb interaction                   ... done (   0.0 sec)
Reading the grid                                   ... done
Mapping shells                                     ... done
Starting the XC term evaluation                    ... done (   0.1 sec)
Transforming the Hamiltonian                       ... done (   0.0 sec)
Diagonalizing the Hamiltonian                      ... done (   0.0 sec)
Back transforming the eigenvectors                 ... done (   0.0 sec)
Now organizing SCF variables                       ... done
                      ------------------
                      INITIAL GUESS DONE (   1.0 sec)
                      ------------------
--------------
SCF ITERATIONS
--------------
ITER       Energy         Delta-E        Max-DP      RMS-DP      [F,P]     Damp
               ***  Starting incremental Fock matrix formation  ***
  0   -499.5414885329   0.000000000000 0.02653788  0.00061209  0.6492159 0.7000
  1   -499.5744062643  -0.032917731451 0.01878973  0.00047109  0.4563129 0.7000
  2   -499.5956778761  -0.021271611777 0.01112626  0.00031422  0.3206819 0.7000
  3   -499.6098454397  -0.014167563621 0.00625649  0.00021128  0.2254116 0.7000
                               ***Turning on DIIS***
  4   -499.6197244353  -0.009878995611 0.00398208  0.00015092  0.1584677 0.7000
  5   -499.7022505024  -0.082526067042 0.00413005  0.00013046  0.1114149 0.7000
  6   -499.6947495110   0.007500991335 0.01288858  0.00038819  0.0781305 0.0000
  7   -499.6469670316   0.047782479452 0.00325517  0.00009698  0.0046773 0.0000
  8   -499.6439934770   0.002973554536 0.00304617  0.00009338  0.0031509 0.0000
  9   -499.6454874874  -0.001494010405 0.00155284  0.00005504  0.0018436 0.0000
 10   -499.6449994200   0.000488067393 0.00122472  0.00004149  0.0009747 0.0000
 11   -499.6452463658  -0.000246945706 0.00059203  0.00001812  0.0003624 0.0000
 12   -499.6453991498  -0.000152784000 0.00031624  0.00000723  0.0001088 0.0000
 13   -499.6453540873   0.000045062439 0.00019114  0.00000396  0.0000452 0.0000
 14   -499.6454781268  -0.000124039484 0.00006418  0.00000154  0.0000175 0.0000
 15   -499.6455219573  -0.000043830455 0.00001710  0.00000059  0.0000056 0.0000
 16   -499.6455274226  -0.000005465390 0.00000673  0.00000024  0.0000022 0.0000
                            ***DIIS convergence achieved***

               *****************************************************
               *                     SUCCESS                       *
               *           SCF CONVERGED AFTER  17 CYCLES          *
               *****************************************************


----------------
TOTAL SCF ENERGY
----------------

Total Energy       :         -499.64552903 Eh          -13596.04605 eV

Components:
Nuclear Repulsion  :           46.92105999 Eh            1276.78695 eV
Electronic Energy  :         -546.56658901 Eh          -14872.83301 eV
One Electron Energy:         -781.80692126 Eh          -21274.04788 eV
Two Electron Energy:          235.24033225 Eh            6401.21487 eV

Virial components:
Potential Energy   :         -999.37415676 Eh          -27194.35334 eV
Kinetic Energy     :          499.72862773 Eh           13598.30729 eV
Virial Ratio       :            1.99983371


---------------
SCF CONVERGENCE
---------------

  Last Energy change         ...   -1.6040e-06  Tolerance :   1.0000e-08
  Last MAX-Density change    ...    4.3408e-06  Tolerance :   1.0000e-07
  Last RMS-Density change    ...    1.4507e-07  Tolerance :   5.0000e-09
  Last DIIS Error            ...    9.0451e-07  Tolerance :   5.0000e-07

             **** THE GBW FILE WAS UPDATED (H3CHCl‡.gbw) ****
             **** DENSITY FILE WAS UPDATED (H3CHCl‡.scfp) ****
             **** ENERGY FILE WAS UPDATED (H3CHCl‡.en.tmp) ****
----------------------
UHF SPIN CONTAMINATION
----------------------

Expectation value of <S**2>     :     0.787359
Ideal value S*(S+1) for S=0.5   :     0.750000
Deviation                       :     0.037359

             **** THE GBW FILE WAS UPDATED (H3CHCl‡.gbw) ****
             **** DENSITY FILE WAS UPDATED (H3CHCl‡.scfp) ****
----------------
ORBITAL ENERGIES
----------------
                 SPIN UP ORBITALS
  NO   OCC          E(Eh)            E(eV) 
   0   1.0000    -104.825367     -2852.4432 
   1   1.0000     -11.278137      -306.8937 
   2   1.0000     -10.550897      -287.1045 
   3   1.0000      -8.028090      -218.4554 
   4   1.0000      -8.014637      -218.0894 
   5   1.0000      -8.014637      -218.0894 
   6   1.0000      -1.105801       -30.0904 
   7   1.0000      -1.002084       -27.2681 
   8   1.0000      -0.650250       -17.6942 
   9   1.0000      -0.618476       -16.8296 
  10   1.0000      -0.618471       -16.8295 
  11   1.0000      -0.456091       -12.4109 
  12   1.0000      -0.456091       -12.4109 
  13   1.0000      -0.419150       -11.4057 
  14   0.0000       0.144300         3.9266 
  15   0.0000       0.200887         5.4664 
  16   0.0000       0.200889         5.4665 
  17   0.0000       0.249327         6.7845 
  18   0.0000       0.272791         7.4230 
  19   0.0000       0.315097         8.5742 
  20   0.0000       0.315101         8.5743 
  21   0.0000       0.362682         9.8691 
  22   0.0000       0.362688         9.8692 
  23   0.0000       0.428332        11.6555 
  24   0.0000       0.435894        11.8613 
  25   0.0000       0.435894        11.8613 
  26   0.0000       0.456184        12.4134 
  27   0.0000       0.456186        12.4135 
  28   0.0000       0.470476        12.8023 
  29   0.0000       0.572378        15.5752 
  30   0.0000       0.572381        15.5753 
  31   0.0000       0.744265        20.2525 
  32   0.0000       0.771820        21.0023 
  33   0.0000       0.771822        21.0023 
  34   0.0000       0.792233        21.5578 
  35   0.0000       0.829853        22.5815 
  36   0.0000       0.870434        23.6857 
  37   0.0000       0.870456        23.6863 
  38   0.0000       1.067102        29.0373 
  39   0.0000       1.309742        35.6399 
  40   0.0000       1.418777        38.6069 
  41   0.0000       1.418783        38.6070 
  42   0.0000       1.431103        38.9423 
  43   0.0000       1.431113        38.9426 
  44   0.0000       1.463550        39.8252 
  45   0.0000       1.744189        47.4618 
  46   0.0000       1.744191        47.4619 
  47   0.0000       1.815432        49.4004 
  48   0.0000       1.815459        49.4011 
  49   0.0000       1.819934        49.5229 
  50   0.0000       2.380712        64.7825 
  51   0.0000       2.380715        64.7826 
  52   0.0000       2.390576        65.0509 
  53   0.0000       2.390592        65.0513 
  54   0.0000       2.408104        65.5278 
  55   0.0000       2.412494        65.6473 
  56   0.0000       2.412550        65.6488 
  57   0.0000       2.491904        67.8081 
  58   0.0000       2.491905        67.8082 
  59   0.0000       2.517734        68.5110 
  60   0.0000       2.725086        74.1534 
  61   0.0000       2.775419        75.5230 
  62   0.0000       2.775434        75.5234 
  63   0.0000       2.955569        80.4251 
  64   0.0000       2.997796        81.5742 
  65   0.0000       2.997802        81.5743 
  66   0.0000       3.092888        84.1618 
  67   0.0000       3.140247        85.4505 
  68   0.0000       3.140249        85.4505 
  69   0.0000       3.263805        88.8126 
  70   0.0000       3.537239        96.2532 
  71   0.0000       3.992208       108.6335 
  72   0.0000       3.992231       108.6341 
  73   0.0000       4.365642       118.7952 
  74   0.0000       5.662757       154.0914 
  75   0.0000       5.662760       154.0915 
  76   0.0000       5.671740       154.3359 
  77   0.0000       5.671747       154.3361 
  78   0.0000       5.757107       156.6589 
  79   0.0000       7.381321       200.8560 
  80   0.0000       7.381327       200.8561 
  81   0.0000       7.585456       206.4107 
  82   0.0000       7.585463       206.4109 
  83   0.0000       7.607931       207.0223 
  84   0.0000      10.452976       284.4399 
  85   0.0000      24.531189       667.5276 
  86   0.0000      26.264813       714.7019 
  87   0.0000      26.264817       714.7020 
  88   0.0000      26.973070       733.9745 
  89   0.0000     219.321477      5968.0408 

                 SPIN DOWN ORBITALS
  NO   OCC          E(Eh)            E(eV) 
   0   1.0000    -104.819007     -2852.2702 
   1   1.0000     -11.259646      -306.3905 
   2   1.0000     -10.544182      -286.9218 
   3   1.0000      -8.010929      -217.9885 
   4   1.0000      -8.010929      -217.9885 
   5   1.0000      -8.001808      -217.7403 
   6   1.0000      -1.050809       -28.5940 
   7   1.0000      -0.931651       -25.3515 
   8   1.0000      -0.607275       -16.5248 
   9   1.0000      -0.607271       -16.5247 
  10   1.0000      -0.554985       -15.1019 
  11   1.0000      -0.444789       -12.1033 
  12   1.0000      -0.444789       -12.1033 
  13   0.0000       0.016873         0.4591 
  14   0.0000       0.153134         4.1670 
  15   0.0000       0.205151         5.5824 
  16   0.0000       0.205153         5.5825 
  17   0.0000       0.263443         7.1687 
  18   0.0000       0.297061         8.0834 
  19   0.0000       0.319004         8.6805 
  20   0.0000       0.319008         8.6806 
  21   0.0000       0.369310        10.0494 
  22   0.0000       0.369316        10.0496 
  23   0.0000       0.447679        12.1820 
  24   0.0000       0.447679        12.1820 
  25   0.0000       0.456284        12.4161 
  26   0.0000       0.456286        12.4162 
  27   0.0000       0.468492        12.7483 
  28   0.0000       0.538541        14.6545 
  29   0.0000       0.590780        16.0759 
  30   0.0000       0.590781        16.0760 
  31   0.0000       0.753136        20.4939 
  32   0.0000       0.784302        21.3419 
  33   0.0000       0.784304        21.3420 
  34   0.0000       0.801222        21.8024 
  35   0.0000       0.866903        23.5896 
  36   0.0000       0.877353        23.8740 
  37   0.0000       0.877375        23.8746 
  38   0.0000       1.110270        30.2120 
  39   0.0000       1.323808        36.0226 
  40   0.0000       1.423476        38.7348 
  41   0.0000       1.423478        38.7348 
  42   0.0000       1.460350        39.7381 
  43   0.0000       1.460356        39.7383 
  44   0.0000       1.503976        40.9253 
  45   0.0000       1.761243        47.9259 
  46   0.0000       1.761245        47.9259 
  47   0.0000       1.859867        50.6096 
  48   0.0000       1.859891        50.6102 
  49   0.0000       1.868011        50.8312 
  50   0.0000       2.400082        65.3095 
  51   0.0000       2.400086        65.3097 
  52   0.0000       2.409909        65.5770 
  53   0.0000       2.409927        65.5775 
  54   0.0000       2.413309        65.6695 
  55   0.0000       2.413311        65.6695 
  56   0.0000       2.434220        66.2385 
  57   0.0000       2.498166        67.9786 
  58   0.0000       2.498168        67.9786 
  59   0.0000       2.531887        68.8962 
  60   0.0000       2.763360        75.1949 
  61   0.0000       2.782484        75.7152 
  62   0.0000       2.782499        75.7157 
  63   0.0000       2.959559        80.5337 
  64   0.0000       3.027687        82.3875 
  65   0.0000       3.027692        82.3877 
  66   0.0000       3.089078        84.0581 
  67   0.0000       3.168687        86.2244 
  68   0.0000       3.168688        86.2244 
  69   0.0000       3.296190        89.6939 
  70   0.0000       3.580646        97.4343 
  71   0.0000       3.999719       108.8379 
  72   0.0000       3.999742       108.8385 
  73   0.0000       4.373580       119.0112 
  74   0.0000       5.664240       154.1318 
  75   0.0000       5.664242       154.1319 
  76   0.0000       5.679343       154.5428 
  77   0.0000       5.679348       154.5429 
  78   0.0000       5.766822       156.9232 
  79   0.0000       7.412928       201.7160 
  80   0.0000       7.412935       201.7162 
  81   0.0000       7.599439       206.7912 
  82   0.0000       7.599446       206.7914 
  83   0.0000       7.650578       208.1828 
  84   0.0000      10.462405       284.6965 
  85   0.0000      24.544849       667.8993 
  86   0.0000      26.267542       714.7762 
  87   0.0000      26.267546       714.7763 
  88   0.0000      26.985427       734.3108 
  89   0.0000     219.325044      5968.1379 
------------------
MOLECULAR ORBITALS
------------------
                      0         1         2         3         4         5   
                 -104.82537 -11.27814 -10.55090  -8.02809  -8.01464  -8.01464
                   1.00000   1.00000   1.00000   1.00000   1.00000   1.00000
                  --------  --------  --------  --------  --------  --------
  0C   1s        -0.000000  0.563083 -0.000014  0.000003  0.000000 -0.000000
  0C   2s         0.000000  0.466430  0.000005  0.000001 -0.000000  0.000000
  0C   1pz        0.000000 -0.000208  0.000004 -0.000024  0.000000 -0.000000
  0C   1px        0.000000  0.000000  0.000000 -0.000000 -0.000000  0.000000
  0C   1py       -0.000000 -0.000000 -0.000000  0.000000  0.000000  0.000000
  0C   3s        -0.000005  0.005402 -0.000552  0.000149  0.000000 -0.000000
  0C   2pz        0.000000 -0.000139 -0.000095  0.000076 -0.000000  0.000000
  0C   2px       -0.000000 -0.000000 -0.000000  0.000000  0.000000 -0.000002
  0C   2py        0.000000  0.000000  0.000000 -0.000000 -0.000002 -0.000000
  0C   4s         0.000052 -0.001129  0.005117 -0.000919 -0.000000  0.000000
  0C   3pz       -0.000028  0.000414 -0.003099  0.000740  0.000000 -0.000000
  0C   3px        0.000000  0.000000  0.000001 -0.000000  0.000007 -0.000037
  0C   3py       -0.000000  0.000000 -0.000001  0.000000 -0.000038 -0.000007
  0C   1dz2      -0.000000  0.000517 -0.000045  0.000024 -0.000000  0.000000
  0C   1dxz      -0.000000  0.000000 -0.000000  0.000000 -0.000001  0.000003
  0C   1dyz       0.000000  0.000000  0.000000  0.000000  0.000003  0.000001
  0C   1dx2y2     0.000000 -0.000000  0.000000  0.000000  0.000000 -0.000002
  0C   1dxy       0.000000  0.000000  0.000000 -0.000000  0.000002  0.000000
  0C   2dz2       0.000002 -0.000036  0.000265 -0.000119  0.000000 -0.000000
  0C   2dxz       0.000000  0.000000  0.000000 -0.000000  0.000002 -0.000010
  0C   2dyz      -0.000000 -0.000000 -0.000000 -0.000000 -0.000010 -0.000002
  0C   2dx2y2    -0.000000 -0.000000 -0.000000  0.000000 -0.000001  0.000008
  0C   2dxy      -0.000000  0.000000 -0.000000  0.000000 -0.000008 -0.000001
  0C   3dz2      -0.000002 -0.000110  0.000055 -0.000176  0.000000 -0.000000
  0C   3dxz      -0.000000 -0.000000 -0.000000 -0.000000 -0.000013  0.000076
  0C   3dyz       0.000000 -0.000000  0.000000 -0.000000  0.000076  0.000013
  0C   3dx2y2    -0.000000 -0.000000 -0.000000  0.000000  0.000001 -0.000005
  0C   3dxy      -0.000000 -0.000000 -0.000000  0.000000  0.000005  0.000001
  0C   1f0        0.000000 -0.000229 -0.000029  0.000052 -0.000000  0.000000
  0C   1f+1       0.000000  0.000000  0.000000  0.000000  0.000001 -0.000006
  0C   1f-1      -0.000000 -0.000000 -0.000000  0.000000 -0.000006 -0.000001
  0C   1f+2      -0.000000 -0.000000 -0.000000  0.000000 -0.000000  0.000001
  0C   1f-2      -0.000000 -0.000000 -0.000000  0.000000 -0.000001 -0.000000
  0C   1f+3       0.000001  0.000385  0.000062 -0.000009 -0.000000  0.000000
  0C   1f-3      -0.000000 -0.000000 -0.000000  0.000000  0.000000 -0.000000
  1H   1s         0.000000  0.000175  0.000023 -0.000011 -0.000001  0.000005
  1H   2s        -0.000005  0.000020 -0.000451  0.000092  0.000008 -0.000045
  1H   3s         0.000009  0.000145  0.000887 -0.000144 -0.000017  0.000098
  2H   1s         0.000000  0.000175  0.000023 -0.000011  0.000005 -0.000002
  2H   2s        -0.000005  0.000020 -0.000453  0.000092 -0.000043  0.000016
  2H   3s         0.000009  0.000145  0.000886 -0.000144  0.000093 -0.000034
  3H   1s         0.000002  0.000129  0.000166  0.000070  0.000000 -0.000000
  3H   2s        -0.000024  0.000194 -0.002875  0.000881 -0.000000  0.000000
  3H   3s        -0.000134  0.000602 -0.012069  0.000924  0.000000 -0.000000
  4H   1s         0.000000  0.000175  0.000023 -0.000011 -0.000004 -0.000004
  4H   2s        -0.000005  0.000020 -0.000452  0.000092  0.000035  0.000029
  4H   3s         0.000009  0.000145  0.000886 -0.000144 -0.000076 -0.000064
  5Cl  1s        -0.411723  0.000001  0.121964  0.000424 -0.000000  0.000000
  5Cl  2s        -0.654658  0.000001  0.331586  0.001171 -0.000000  0.000000
  5Cl  3s        -0.012120  0.000001 -0.512553 -0.001858  0.000000 -0.000000
  5Cl  4s         0.000930 -0.000001 -0.604297 -0.002362  0.000000  0.000000
  5Cl  5s        -0.000235  0.000027 -0.045669  0.000700 -0.000000 -0.000000
  5Cl  6s         0.000198 -0.000270  0.017105 -0.000674 -0.000000  0.000000
  5Cl  1pz       -0.000077  0.000007 -0.003732  1.230645  0.000117 -0.000230
  5Cl  1px       -0.000000  0.000000 -0.000001  0.000247 -0.212436  1.212862
  5Cl  1py        0.000000 -0.000000  0.000000 -0.000076  1.212862  0.212436
  5Cl  2pz       -0.000045 -0.000003 -0.000865  0.327196  0.000031 -0.000061
  5Cl  2px       -0.000000 -0.000000 -0.000000  0.000066 -0.056465  0.322373
  5Cl  2py        0.000000  0.000000  0.000000 -0.000020  0.322373  0.056465
  5Cl  3pz        0.000043  0.000017 -0.000909  0.050505  0.000005 -0.000009
  5Cl  3px        0.000000  0.000000 -0.000000  0.000010 -0.008487  0.048457
  5Cl  3py       -0.000000 -0.000000  0.000000 -0.000003  0.048457  0.008487
  5Cl  4pz       -0.000020 -0.000133  0.000617 -0.002467 -0.000000  0.000000
  5Cl  4px       -0.000000 -0.000000  0.000000 -0.000000  0.000362 -0.002066
  5Cl  4py        0.000000  0.000000 -0.000000  0.000000 -0.002066 -0.000362
  5Cl  5pz        0.000063 -0.000002  0.004865  0.000587  0.000000 -0.000000
  5Cl  5px        0.000000 -0.000000  0.000001  0.000000 -0.000123  0.000699
  5Cl  5py       -0.000000  0.000000 -0.000001 -0.000000  0.000699  0.000123
  5Cl  1dz2      -0.000003  0.000011 -0.000733  0.000437  0.000000 -0.000000
  5Cl  1dxz      -0.000000  0.000000 -0.000000  0.000000 -0.000083  0.000475
  5Cl  1dyz       0.000000 -0.000000  0.000000 -0.000000  0.000475  0.000083
  5Cl  1dx2y2     0.000000  0.000000  0.000000  0.000000  0.000000 -0.000000
  5Cl  1dxy       0.000000 -0.000000  0.000000 -0.000000  0.000000  0.000000
  5Cl  2dz2      -0.000000 -0.000044 -0.000363  0.000110 -0.000000 -0.000000
  5Cl  2dxz      -0.000000 -0.000000 -0.000000  0.000000 -0.000011  0.000064
  5Cl  2dyz       0.000000 -0.000000  0.000000 -0.000000  0.000064  0.000011
  5Cl  2dx2y2    -0.000000 -0.000000 -0.000000  0.000000 -0.000000  0.000001
  5Cl  2dxy      -0.000000  0.000000 -0.000000  0.000000 -0.000001 -0.000000
  5Cl  3dz2       0.000020  0.000073  0.001884 -0.000104  0.000000 -0.000000
  5Cl  3dxz       0.000000 -0.000000  0.000001 -0.000000 -0.000007  0.000038
  5Cl  3dyz      -0.000000  0.000000 -0.000000  0.000000  0.000038  0.000007
  5Cl  3dx2y2     0.000000  0.000000  0.000000 -0.000000  0.000000 -0.000002
  5Cl  3dxy       0.000000 -0.000000  0.000000 -0.000000  0.000002  0.000000
  5Cl  1f0        0.000003  0.000003  0.000214  0.000320  0.000000 -0.000000
  5Cl  1f+1       0.000000 -0.000000  0.000000  0.000000 -0.000046  0.000260
  5Cl  1f-1      -0.000000  0.000000 -0.000000 -0.000000  0.000260  0.000046
  5Cl  1f+2       0.000000  0.000000  0.000000 -0.000000  0.000000 -0.000000
  5Cl  1f-2       0.000000  0.000000  0.000000 -0.000000  0.000000  0.000000
  5Cl  1f+3      -0.000000 -0.000000 -0.000001  0.000000 -0.000000  0.000000
  5Cl  1f-3       0.000000  0.000000  0.000000 -0.000000  0.000000  0.000000
                      6         7         8         9        10        11   
                  -1.10580  -1.00208  -0.65025  -0.61848  -0.61847  -0.45609
                   1.00000   1.00000   1.00000   1.00000   1.00000   1.00000
                  --------  --------  --------  --------  --------  --------
  0C   1s         0.031356  0.102063 -0.014003  0.000000  0.000002 -0.000000
  0C   2s         0.053118  0.173010 -0.023739  0.000000  0.000004 -0.000000
  0C   1pz        0.015821  0.002966  0.126568 -0.000020 -0.000026  0.000007
  0C   1px        0.000002  0.000001  0.000046  0.059140  0.185933 -0.001641
  0C   1py        0.000001  0.000000  0.000006  0.185933 -0.059140  0.015116
  0C   3s        -0.139172 -0.451691  0.059996  0.000000 -0.000010  0.000002
  0C   2pz        0.027528  0.008733  0.223921 -0.000035 -0.000045  0.000012
  0C   2px        0.000003  0.000002  0.000082  0.105222  0.330812 -0.003035
  0C   2py        0.000001  0.000001  0.000012  0.330812 -0.105222  0.027955
  0C   4s        -0.124863 -0.412453  0.058883 -0.000003 -0.000014 -0.000012
  0C   3pz        0.016856  0.026591  0.178680 -0.000027 -0.000037  0.000026
  0C   3px       -0.000003  0.000007  0.000066  0.079933  0.251306 -0.000368
  0C   3py        0.000003  0.000001  0.000004  0.251299 -0.079932  0.003391
  0C   1dz2      -0.000937  0.000266 -0.003257 -0.000000  0.000001  0.000000
  0C   1dxz      -0.000000 -0.000000  0.000000  0.000436  0.001373 -0.000034
  0C   1dyz      -0.000000  0.000000 -0.000000  0.001373 -0.000437  0.000309
  0C   1dx2y2    -0.000000  0.000000 -0.000001 -0.001362 -0.004284  0.000045
  0C   1dxy      -0.000000 -0.000000 -0.000000  0.004284 -0.001362  0.000416
  0C   2dz2      -0.003315  0.001356 -0.026326 -0.000000  0.000007 -0.000002
  0C   2dxz      -0.000001 -0.000001  0.000002  0.003728  0.011731 -0.000327
  0C   2dyz      -0.000000 -0.000000 -0.000004  0.011731 -0.003734  0.003007
  0C   2dx2y2     0.000000  0.000000 -0.000009 -0.011329 -0.035636  0.000317
  0C   2dxy      -0.000000 -0.000000 -0.000001  0.035634 -0.011328  0.002917
  0C   3dz2       0.003903 -0.011809 -0.017995  0.000000  0.000005 -0.000007
  0C   3dxz       0.000001 -0.000002  0.000001  0.002837  0.008927 -0.000665
  0C   3dyz      -0.000001 -0.000001 -0.000003  0.008926 -0.002841  0.006124
  0C   3dx2y2     0.000002 -0.000002 -0.000009 -0.007968 -0.025063 -0.000444
  0C   3dxy       0.000001 -0.000001 -0.000003  0.025060 -0.007967 -0.004081
  0C   1f0        0.002469  0.011055  0.001063  0.000000 -0.000001  0.000001
  0C   1f+1       0.000000  0.000000  0.000000 -0.000732 -0.002301  0.000134
  0C   1f-1       0.000000  0.000002  0.000000 -0.002301  0.000731 -0.001232
  0C   1f+2       0.000000  0.000000 -0.000001 -0.000746 -0.002349  0.000028
  0C   1f-2       0.000000  0.000001 -0.000000  0.002350 -0.000747  0.000257
  0C   1f+3      -0.004125 -0.013496  0.003757  0.000000 -0.000001  0.000000
  0C   1f-3       0.000001  0.000002 -0.000001  0.000000 -0.000000  0.000000
  1H   1s        -0.020664 -0.079041  0.038556 -0.049595 -0.155952  0.001409
  1H   2s        -0.013442 -0.067299  0.043397 -0.055748 -0.175304  0.002862
  1H   3s        -0.000502  0.005570  0.006936 -0.011975 -0.037656  0.001946
  2H   1s        -0.020662 -0.079040  0.038618 -0.110257  0.120911 -0.011924
  2H   2s        -0.013436 -0.067305  0.043457 -0.123941  0.135917 -0.024228
  2H   3s        -0.000499  0.005567  0.006938 -0.026625  0.029197 -0.016496
  3H   1s        -0.069321 -0.037815 -0.131830  0.000006  0.000030  0.000000
  3H   2s        -0.067013 -0.047694 -0.215712  0.000010  0.000053  0.000012
  3H   3s         0.053857  0.032433  0.021620 -0.000002 -0.000002  0.000015
  4H   1s        -0.020663 -0.079040  0.038613  0.159845  0.035014  0.010519
  4H   2s        -0.013438 -0.067303  0.043457  0.179683  0.039359  0.021371
  4H   3s        -0.000499  0.005569  0.006944  0.038598  0.008454  0.014547
  5Cl  1s        -0.033319  0.012960  0.008129 -0.000000 -0.000001 -0.000000
  5Cl  2s        -0.096425  0.037563  0.023717 -0.000001 -0.000004 -0.000000
  5Cl  3s         0.190681 -0.074770 -0.048502  0.000003  0.000009  0.000000
  5Cl  4s         0.380695 -0.148117 -0.092216  0.000006  0.000016  0.000000
  5Cl  5s        -0.567429  0.221507  0.140839 -0.000009 -0.000024  0.000000
  5Cl  6s        -0.543606  0.219273  0.174332 -0.000009 -0.000032 -0.000005
  5Cl  1pz        0.035484  0.015371  0.217549 -0.000016 -0.000049  0.000025
  5Cl  1px        0.000007  0.000002  0.000041 -0.005140 -0.016160 -0.036049
  5Cl  1py       -0.000002 -0.000001 -0.000016 -0.016157  0.005139  0.332004
  5Cl  2pz        0.008668  0.004181  0.052917 -0.000004 -0.000012  0.000006
  5Cl  2px        0.000002  0.000001  0.000010 -0.001217 -0.003826 -0.008594
  5Cl  2py       -0.000001 -0.000000 -0.000004 -0.003825  0.001217  0.079148
  5Cl  3pz       -0.021171 -0.013186 -0.153552  0.000011  0.000035 -0.000018
  5Cl  3px       -0.000004 -0.000002 -0.000029  0.003525  0.011083  0.025843
  5Cl  3py        0.000001  0.000001  0.000012  0.011082 -0.003525 -0.238007
  5Cl  4pz       -0.062794 -0.013930 -0.367129  0.000028  0.000083 -0.000046
  5Cl  4px       -0.000012 -0.000001 -0.000069  0.009221  0.028990  0.064443
  5Cl  4py        0.000004 -0.000000  0.000027  0.028987 -0.009220 -0.593505
  5Cl  5pz       -0.031399  0.007822 -0.141573  0.000012  0.000034 -0.000026
  5Cl  5px       -0.000007  0.000000 -0.000028  0.004093  0.012867  0.036934
  5Cl  5py        0.000003  0.000001  0.000012  0.012865 -0.004092 -0.340155
  5Cl  1dz2      -0.003426 -0.000302 -0.005491  0.000000  0.000001 -0.000000
  5Cl  1dxz      -0.000001 -0.000000 -0.000002  0.000154  0.000485  0.000233
  5Cl  1dyz       0.000000  0.000000  0.000001  0.000485 -0.000154 -0.002149
  5Cl  1dx2y2    -0.000000 -0.000000 -0.000000 -0.000007 -0.000023  0.000001
  5Cl  1dxy      -0.000000 -0.000000  0.000000  0.000023 -0.000007  0.000008
  5Cl  2dz2      -0.027748  0.002331 -0.027210  0.000002  0.000005 -0.000001
  5Cl  2dxz      -0.000010  0.000001 -0.000009  0.000788  0.002479  0.001257
  5Cl  2dyz       0.000004 -0.000001  0.000004  0.002478 -0.000788 -0.011577
  5Cl  2dx2y2     0.000000  0.000000 -0.000000 -0.000033 -0.000105 -0.000002
  5Cl  2dxy       0.000000  0.000000 -0.000000  0.000106 -0.000034 -0.000018
  5Cl  3dz2      -0.018824  0.015778 -0.005258  0.000001 -0.000000 -0.000002
  5Cl  3dxz      -0.000007  0.000004 -0.000002  0.000859  0.002701  0.002337
  5Cl  3dyz       0.000003 -0.000001  0.000002  0.002701 -0.000859 -0.021524
  5Cl  3dx2y2    -0.000000 -0.000000  0.000000 -0.000027 -0.000085  0.000018
  5Cl  3dxy      -0.000000 -0.000000  0.000000  0.000086 -0.000028  0.000169
  5Cl  1f0       -0.006298  0.001721 -0.012882  0.000001  0.000002 -0.000003
  5Cl  1f+1      -0.000003  0.000001 -0.000006  0.000451  0.001419  0.001361
  5Cl  1f-1       0.000001 -0.000001  0.000002  0.001419 -0.000451 -0.012536
  5Cl  1f+2      -0.000000 -0.000000  0.000000 -0.000014 -0.000045  0.000000
  5Cl  1f-2      -0.000000 -0.000000  0.000000  0.000046 -0.000015  0.000007
  5Cl  1f+3      -0.000005 -0.000008  0.000003  0.000000  0.000000 -0.000000
  5Cl  1f-3       0.000000  0.000000 -0.000000 -0.000000  0.000000 -0.000000
                     12        13        14        15        16        17   
                  -0.45609  -0.41915   0.14430   0.20089   0.20089   0.24933
                   1.00000   1.00000   0.00000   0.00000   0.00000   0.00000
                  --------  --------  --------  --------  --------  --------
  0C   1s        -0.000000  0.015803  0.046313 -0.000001  0.000000 -0.000442
  0C   2s        -0.000001  0.027881  0.075214 -0.000001  0.000000 -0.004292
  0C   1pz        0.000004  0.186604 -0.045841 -0.000005  0.000006  0.058364
  0C   1px       -0.015119 -0.000000 -0.000003 -0.024857 -0.123674 -0.000008
  0C   1py       -0.001642  0.000010  0.000001  0.123674 -0.024856  0.000005
  0C   3s         0.000004 -0.075125 -0.078082 -0.000002 -0.000010  0.100900
  0C   2pz        0.000007  0.348728 -0.044394 -0.000001  0.000013  0.025410
  0C   2px       -0.027960  0.000002 -0.000001 -0.022787 -0.113375 -0.000005
  0C   2py       -0.003036  0.000020  0.000000  0.113374 -0.022786 -0.000002
  0C   4s        -0.000006 -0.218221 -2.141625  0.000076  0.000060 -0.669063
  0C   3pz        0.000013  0.400498 -0.351193 -0.000113 -0.000047  1.415461
  0C   3px       -0.003385 -0.000001 -0.000062 -0.324238 -1.613276 -0.000036
  0C   3py       -0.000368  0.000032  0.000019  1.613264 -0.324256  0.000166
  0C   1dz2       0.000000 -0.001057 -0.001143  0.000000  0.000000 -0.002604
  0C   1dxz      -0.000309  0.000000  0.000000  0.000167  0.000833 -0.000000
  0C   1dyz      -0.000034 -0.000000 -0.000000 -0.000833  0.000167 -0.000000
  0C   1dx2y2     0.000416 -0.000000  0.000000  0.000020  0.000102  0.000000
  0C   1dxy      -0.000045 -0.000000  0.000000  0.000102 -0.000020  0.000000
  0C   2dz2      -0.000001 -0.031926 -0.007666  0.000001  0.000003 -0.009557
  0C   2dxz      -0.003007 -0.000001 -0.000002  0.000041  0.000204 -0.000007
  0C   2dyz      -0.000326 -0.000006  0.000000 -0.000205  0.000041  0.000006
  0C   2dx2y2     0.002917 -0.000001  0.000001  0.000096  0.000476  0.000000
  0C   2dxy      -0.000317 -0.000001  0.000000  0.000475 -0.000096  0.000003
  0C   3dz2      -0.000003 -0.034126  0.125127 -0.000007  0.000045 -0.592182
  0C   3dxz      -0.006123 -0.000000 -0.000008 -0.022328 -0.110961 -0.000046
  0C   3dyz      -0.000665 -0.000008  0.000019  0.110989 -0.022282 -0.000082
  0C   3dx2y2    -0.004087  0.000001  0.000026  0.071328  0.354676  0.000032
  0C   3dxy       0.000444  0.000002  0.000011  0.354643 -0.071348  0.000041
  0C   1f0        0.000000  0.006249  0.006453  0.000001 -0.000002  0.015291
  0C   1f+1       0.001232  0.000001  0.000000  0.001608  0.008005  0.000003
  0C   1f-1       0.000134  0.000002  0.000001 -0.008004  0.001610  0.000002
  0C   1f+2       0.000258 -0.000000  0.000001  0.001178  0.005852  0.000001
  0C   1f-2      -0.000028  0.000000  0.000001  0.005853 -0.001176  0.000000
  0C   1f+3       0.000000 -0.000546 -0.013861  0.000001 -0.000000  0.004158
  0C   1f-3      -0.000000  0.000000  0.000002  0.000001 -0.000000 -0.000001
  1H   1s         0.012959  0.023782  0.018902  0.001296  0.006455  0.006671
  1H   2s         0.026336  0.040428  0.036584 -0.038293 -0.190482  0.011583
  1H   3s         0.017929  0.017705  1.010157 -0.500677 -2.490327 -0.786498
  2H   1s        -0.005259  0.023787  0.018896 -0.006241 -0.002105  0.006655
  2H   2s        -0.010688  0.040441  0.036611  0.184086  0.062074  0.011594
  2H   3s        -0.007278  0.017714  1.010329  2.406985  0.811594 -0.786237
  3H   1s        -0.000000 -0.039866  0.000533  0.000005  0.000013 -0.052187
  3H   2s         0.000007 -0.015072 -0.015229 -0.000008 -0.000030  0.306792
  3H   3s         0.000007  0.031196  0.151682 -0.000024 -0.000143  4.459790
  4H   1s        -0.007697  0.023783  0.018899  0.004943 -0.004356  0.006668
  4H   2s        -0.015643  0.040427  0.036603 -0.145805  0.128404  0.011554
  4H   3s        -0.010652  0.017704  1.010243 -1.906386  1.678764 -0.786256
  5Cl  1s         0.000000  0.002266 -0.003098  0.000000  0.000000 -0.010369
  5Cl  2s         0.000000  0.006583 -0.009159  0.000001  0.000001 -0.031763
  5Cl  3s         0.000000 -0.013249  0.019755 -0.000002 -0.000003  0.077712
  5Cl  4s        -0.000000 -0.026732  0.033780 -0.000004 -0.000004  0.078468
  5Cl  5s         0.000001  0.036488 -0.044248  0.000005 -0.000001  0.073329
  5Cl  6s        -0.000003  0.072789 -0.172831  0.000021  0.000070 -1.828626
  5Cl  1pz        0.000063 -0.248242  0.021022  0.000000  0.000001 -0.045398
  5Cl  1px       -0.332004 -0.000044  0.000002  0.003805  0.018938  0.000004
  5Cl  1py       -0.036049  0.000006 -0.000000 -0.018932  0.003807 -0.000007
  5Cl  2pz        0.000015 -0.058731  0.005171  0.000000  0.000001 -0.010777
  5Cl  2px       -0.079148 -0.000010  0.000000  0.000729  0.003630  0.000001
  5Cl  2py       -0.008594  0.000001 -0.000000 -0.003629  0.000730 -0.000002
  5Cl  3pz       -0.000045  0.173140 -0.018317 -0.000001 -0.000003  0.037655
  5Cl  3px        0.238007  0.000030 -0.000001 -0.001716 -0.008544 -0.000002
  5Cl  3py        0.025843 -0.000003 -0.000000  0.008540 -0.001717  0.000005
  5Cl  4pz       -0.000114  0.475267 -0.027924  0.000003  0.000011  0.096620
  5Cl  4px        0.593506  0.000086 -0.000002 -0.013435 -0.066869 -0.000010
  5Cl  4py        0.064443 -0.000014  0.000001  0.066851 -0.013441  0.000014
  5Cl  5pz       -0.000065  0.275664 -0.205529  0.000014  0.000033 -1.319787
  5Cl  5px        0.340155  0.000046 -0.000026  0.005373  0.026736 -0.000307
  5Cl  5py        0.036934 -0.000004  0.000002 -0.026732  0.005374  0.000156
  5Cl  1dz2      -0.000001 -0.000589 -0.001746  0.000001  0.000002 -0.012165
  5Cl  1dxz       0.002149 -0.000000 -0.000001  0.000321  0.001599 -0.000002
  5Cl  1dyz       0.000233 -0.000000  0.000000 -0.001598  0.000321 -0.000001
  5Cl  1dx2y2     0.000009 -0.000000  0.000000 -0.000290 -0.001444 -0.000000
  5Cl  1dxy      -0.000001 -0.000000  0.000000 -0.001444  0.000290  0.000000
  5Cl  2dz2      -0.000004  0.005001  0.004123  0.000004  0.000007 -0.034959
  5Cl  2dxz       0.011577  0.000003 -0.000000  0.000732  0.003644  0.000001
  5Cl  2dyz       0.001257 -0.000002  0.000000 -0.003641  0.000732 -0.000009
  5Cl  2dx2y2    -0.000013  0.000000  0.000001 -0.000557 -0.002772 -0.000001
  5Cl  2dxy       0.000001  0.000000  0.000000 -0.002771  0.000558  0.000000
  5Cl  3dz2      -0.000006  0.018266 -0.081796  0.000015  0.000028 -0.361363
  5Cl  3dxz       0.021523  0.000004 -0.000020  0.003690  0.018382 -0.000124
  5Cl  3dyz       0.002337 -0.000001  0.000000 -0.018360  0.003695  0.000053
  5Cl  3dx2y2     0.000177 -0.000000 -0.000001 -0.004278 -0.021270 -0.000001
  5Cl  3dxy      -0.000020 -0.000000 -0.000000 -0.021270  0.004279  0.000002
  5Cl  1f0       -0.000006  0.013197 -0.004679  0.000001  0.000003 -0.015411
  5Cl  1f+1       0.012536  0.000007 -0.000002 -0.000245 -0.001218 -0.000008
  5Cl  1f-1       0.001361 -0.000003  0.000000  0.001218 -0.000245  0.000004
  5Cl  1f+2       0.000016  0.000000  0.000000 -0.000124 -0.000619 -0.000000
  5Cl  1f-2      -0.000002 -0.000000  0.000000 -0.000618  0.000125  0.000000
  5Cl  1f+3      -0.000000  0.000005  0.000109  0.000000  0.000000 -0.000117
  5Cl  1f-3      -0.000000 -0.000000 -0.000000  0.000000 -0.000000  0.000000
                     18        19        20        21        22        23   
                   0.27279   0.31510   0.31510   0.36268   0.36269   0.42833
                   0.00000   0.00000   0.00000   0.00000   0.00000   0.00000
                  --------  --------  --------  --------  --------  --------
  0C   1s         0.008576  0.000001  0.000002  0.000000 -0.000001 -0.023116
  0C   2s         0.014955  0.000001  0.000003  0.000001 -0.000001 -0.044443
  0C   1pz        0.074833  0.000003 -0.000000 -0.000007 -0.000007 -0.047404
  0C   1px        0.000007 -0.002061 -0.027137  0.019975  0.000799  0.000001
  0C   1py        0.000002  0.027135 -0.002061  0.000799 -0.019974 -0.000007
  0C   3s        -0.037201  0.000013  0.000002  0.000005  0.000015  0.163341
  0C   2pz        0.110437  0.000004 -0.000004  0.000001 -0.000005 -0.182317
  0C   2px        0.000007 -0.001513 -0.019900  0.025027  0.001001  0.000012
  0C   2py        0.000005  0.019902 -0.001510  0.001001 -0.025022 -0.000030
  0C   4s        -0.386758 -0.000184 -0.000113 -0.000096 -0.000100  0.111878
  0C   3pz        0.384910  0.000146  0.000109 -0.000039 -0.000012  0.094028
  0C   3px        0.000074  0.001358  0.018048 -0.231608 -0.009288 -0.000065
  0C   3py        0.000009 -0.017988  0.001378 -0.009247  0.231622  0.000051
  0C   1dz2       0.010974  0.000003  0.000000 -0.000000  0.000002  0.010279
  0C   1dxz       0.000000  0.000479  0.006303  0.008041  0.000321  0.000001
  0C   1dyz       0.000002 -0.006304  0.000478  0.000322 -0.008041  0.000001
  0C   1dx2y2     0.000000 -0.000814 -0.010709  0.008764  0.000353 -0.000000
  0C   1dxy       0.000001 -0.010708  0.000815 -0.000352  0.008764 -0.000000
  0C   2dz2       0.017430 -0.000000 -0.000004 -0.000007 -0.000006  0.012217
  0C   2dxz      -0.000002  0.001275  0.016775  0.003251  0.000129 -0.000002
  0C   2dyz       0.000007 -0.016776  0.001273  0.000131 -0.003247  0.000005
  0C   2dx2y2     0.000001 -0.001135 -0.014926  0.008273  0.000332  0.000001
  0C   2dxy       0.000002 -0.014926  0.001137 -0.000332  0.008271  0.000000
  0C   3dz2       0.508184  0.000098 -0.000046 -0.000016  0.000085  0.715262
  0C   3dxz       0.000001  0.031364  0.412513  0.494512  0.019741  0.000075
  0C   3dyz       0.000124 -0.412520  0.031290  0.019832 -0.494507  0.000087
  0C   3dx2y2     0.000014 -0.052583 -0.691596  0.715021  0.028763 -0.000003
  0C   3dxy       0.000060 -0.691504  0.052663 -0.028675  0.715072 -0.000010
  0C   1f0       -0.006249  0.000000  0.000003  0.000002  0.000002 -0.010721
  0C   1f+1       0.000000 -0.000585 -0.007716  0.001378  0.000055 -0.000002
  0C   1f-1      -0.000002  0.007715 -0.000587  0.000055 -0.001378 -0.000002
  0C   1f+2       0.000000 -0.000675 -0.008864  0.000392  0.000016 -0.000000
  0C   1f-2       0.000002 -0.008863  0.000674 -0.000016  0.000393  0.000001
  0C   1f+3      -0.008033 -0.000002 -0.000000 -0.000000 -0.000001 -0.004264
  0C   1f-3       0.000001 -0.000000  0.000001  0.000000  0.000000  0.000001
  1H   1s        -0.037460 -0.006634 -0.087238  0.032891  0.001318 -0.046228
  1H   2s        -0.053427 -0.003163 -0.041400 -0.106491 -0.004274 -0.173955
  1H   3s         0.084158  0.033993  0.447413 -0.396558 -0.015873  0.124524
  2H   1s        -0.037475  0.078855  0.037880 -0.015301 -0.029143 -0.046227
  2H   2s        -0.053423  0.037481  0.017996  0.049607  0.094422 -0.173882
  2H   3s         0.083921 -0.404472 -0.194315  0.184538  0.351377  0.124417
  3H   1s         0.135755  0.000008  0.000004 -0.000004 -0.000008 -0.006891
  3H   2s         0.383108  0.000154  0.000121  0.000073  0.000110 -0.305223
  3H   3s         0.782514  0.000471  0.000335  0.000129  0.000127  0.135343
  4H   1s        -0.037453 -0.072237  0.049363 -0.017582  0.027825 -0.046226
  4H   2s        -0.053404 -0.034317  0.023424  0.056973 -0.090119 -0.173932
  4H   3s         0.083943  0.370436 -0.253194  0.212043 -0.335441  0.124504
  5Cl  1s        -0.008523 -0.000003 -0.000002 -0.000001 -0.000001 -0.002225
  5Cl  2s        -0.025268 -0.000009 -0.000007 -0.000004 -0.000004 -0.006336
  5Cl  3s         0.055096  0.000021  0.000014  0.000009  0.000009  0.011690
  5Cl  4s         0.092453  0.000033  0.000024  0.000012  0.000012  0.032989
  5Cl  5s        -0.119190 -0.000033 -0.000025 -0.000005 -0.000004 -0.073017
  5Cl  6s        -0.545357 -0.000268 -0.000187 -0.000115 -0.000121 -0.080636
  5Cl  1pz        0.031614 -0.000008  0.000003 -0.000017 -0.000021  0.070928
  5Cl  1px        0.000018 -0.004546 -0.059829 -0.034138 -0.001364  0.000083
  5Cl  1py       -0.000020  0.059838 -0.004542 -0.001368  0.034127 -0.000079
  5Cl  2pz        0.011561 -0.000000  0.000001 -0.000002 -0.000003  0.011485
  5Cl  2px        0.000005 -0.000908 -0.011956 -0.007794 -0.000311  0.000013
  5Cl  2py       -0.000005  0.011958 -0.000908 -0.000312  0.007791 -0.000012
  5Cl  3pz       -0.057956 -0.000006 -0.000008 -0.000001  0.000004 -0.017786
  5Cl  3px       -0.000019  0.002385  0.031388  0.025542  0.001021 -0.000016
  5Cl  3py        0.000015 -0.031395  0.002383  0.001023 -0.025535  0.000015
  5Cl  4pz        0.107871  0.000083  0.000027  0.000114  0.000118 -0.364347
  5Cl  4px       -0.000011  0.015591  0.205226  0.082876  0.003309 -0.000447
  5Cl  4py        0.000044 -0.205247  0.015581  0.003322 -0.082843  0.000422
  5Cl  5pz       -0.924397 -0.000413 -0.000267 -0.000310 -0.000311  0.345589
  5Cl  5px       -0.000170 -0.009880 -0.130116 -0.005001 -0.000198  0.000564
  5Cl  5py        0.000044  0.130107 -0.009881 -0.000202  0.004991 -0.000546
  5Cl  1dz2       0.028313  0.000006  0.000009  0.000010  0.000004 -0.040794
  5Cl  1dxz       0.000014 -0.001673 -0.022020 -0.026300 -0.001051 -0.000031
  5Cl  1dyz      -0.000009  0.022025 -0.001672 -0.001053  0.026292  0.000020
  5Cl  1dx2y2     0.000000 -0.000460 -0.006056  0.010993  0.000444 -0.000001
  5Cl  1dxy       0.000000 -0.006047  0.000461 -0.000440  0.011007 -0.000001
  5Cl  2dz2       0.114448  0.000028  0.000032  0.000038  0.000020 -0.115321
  5Cl  2dxz       0.000051 -0.004761 -0.062644 -0.080886 -0.003232 -0.000091
  5Cl  2dyz      -0.000030  0.062662 -0.004756 -0.003239  0.080862  0.000060
  5Cl  2dx2y2     0.000001 -0.001091 -0.014378  0.026154  0.001056 -0.000003
  5Cl  2dxy       0.000001 -0.014354  0.001095 -0.001047  0.026193 -0.000003
  5Cl  3dz2       0.149220 -0.000012  0.000053  0.000064 -0.000016 -0.575349
  5Cl  3dxz       0.000107 -0.022139 -0.291423 -0.334382 -0.013366 -0.000423
  5Cl  3dyz      -0.000095  0.291484 -0.022128 -0.013389  0.334280  0.000262
  5Cl  3dx2y2     0.000004 -0.006755 -0.089002  0.162013  0.006538 -0.000017
  5Cl  3dxy       0.000006 -0.088876  0.006781 -0.006484  0.162207 -0.000016
  5Cl  1f0        0.005283 -0.000002  0.000000  0.000001 -0.000002 -0.009018
  5Cl  1f+1       0.000004 -0.000462 -0.006084 -0.007013 -0.000280 -0.000009
  5Cl  1f-1      -0.000003  0.006086 -0.000462 -0.000281  0.007010  0.000006
  5Cl  1f+2       0.000000 -0.000217 -0.002861  0.003651  0.000148 -0.000000
  5Cl  1f-2       0.000000 -0.002857  0.000218 -0.000146  0.003657 -0.000000
  5Cl  1f+3      -0.000001  0.000000  0.000001 -0.000001 -0.000000 -0.000008
  5Cl  1f-3       0.000000  0.000001 -0.000000  0.000000 -0.000001  0.000000
                     24        25        26        27        28        29   
                   0.43589   0.43589   0.45618   0.45619   0.47048   0.57238
                   0.00000   0.00000   0.00000   0.00000   0.00000   0.00000
                  --------  --------  --------  --------  --------  --------
  0C   1s        -0.000007 -0.000017  0.000000 -0.000001 -0.022765 -0.000003
  0C   2s        -0.000013 -0.000034  0.000000 -0.000001 -0.044323 -0.000005
  0C   1pz       -0.000017 -0.000047  0.000001 -0.000004 -0.153935  0.000016
  0C   1px        0.004587 -0.010983 -0.017103  0.003174 -0.000002  0.007397
  0C   1py        0.010982  0.004585 -0.003175 -0.017099 -0.000011 -0.042806
  0C   3s         0.000055  0.000149  0.000003  0.000006  0.266307 -0.000001
  0C   2pz       -0.000059 -0.000143  0.000004 -0.000009 -0.263318  0.000042
  0C   2px        0.015480 -0.037062 -0.036204  0.006718  0.000021  0.027627
  0C   2py        0.037058  0.015473 -0.006720 -0.036193 -0.000034 -0.159882
  0C   4s         0.000010 -0.000061 -0.000041  0.000009 -0.628045  0.000204
  0C   3pz        0.000070  0.000062 -0.000029  0.000033 -0.583699 -0.000005
  0C   3px       -0.041965  0.100417 -0.306434  0.056892 -0.000236 -0.184497
  0C   3py       -0.100330 -0.041866 -0.056874 -0.306482  0.000129  1.068067
  0C   1dz2       0.000003  0.000007 -0.000000  0.000000  0.004677 -0.000000
  0C   1dxz      -0.000804  0.001925 -0.000676  0.000126 -0.000001 -0.001857
  0C   1dyz      -0.001925 -0.000804 -0.000126 -0.000678  0.000002  0.010751
  0C   1dx2y2    -0.000509  0.001220 -0.004160  0.000773 -0.000001 -0.000020
  0C   1dxy       0.001220  0.000509  0.000773  0.004160 -0.000001 -0.000113
  0C   2dz2       0.000002 -0.000001  0.000001 -0.000002 -0.060773  0.000002
  0C   2dxz      -0.001899  0.004546 -0.000539  0.000101 -0.000018 -0.002145
  0C   2dyz      -0.004545 -0.001898 -0.000100 -0.000543  0.000003  0.012412
  0C   2dx2y2     0.000740 -0.001771 -0.004267  0.000792  0.000006  0.003316
  0C   2dxy      -0.001771 -0.000738  0.000793  0.004265  0.000004  0.019183
  0C   3dz2       0.000183  0.000457  0.000026  0.000012  0.431104 -0.000127
  0C   3dxz      -0.058955  0.141151 -0.127909  0.023773 -0.000109 -0.171441
  0C   3dyz      -0.141126 -0.058923 -0.023734 -0.128036  0.000163  0.992219
  0C   3dx2y2    -0.011318  0.027176 -0.113411  0.021077  0.000030  0.078430
  0C   3dxy       0.027194  0.011377  0.021066  0.113444  0.000019  0.453889
  0C   1f0       -0.000001 -0.000004 -0.000000 -0.000000  0.007285  0.000000
  0C   1f+1      -0.000452  0.001084  0.001688 -0.000313  0.000000 -0.000043
  0C   1f-1      -0.001084 -0.000453  0.000313  0.001688  0.000002  0.000239
  0C   1f+2       0.000777 -0.001861 -0.001705  0.000316  0.000003  0.002096
  0C   1f-2      -0.001861 -0.000777  0.000317  0.001704  0.000003  0.012118
  0C   1f+3      -0.000001 -0.000004 -0.000001  0.000000 -0.008578  0.000003
  0C   1f-3      -0.000000  0.000000 -0.000000 -0.000001  0.000001  0.000000
  1H   1s         0.001383 -0.003366 -0.019411  0.003603  0.008596  0.006782
  1H   2s        -0.032127  0.076698 -0.221484  0.041123  0.203389 -0.067412
  1H   3s         0.039852 -0.095302 -0.072127  0.013406  0.416465 -0.204034
  2H   1s         0.002183  0.002851  0.006584 -0.018608  0.008572 -0.037429
  2H   2s        -0.050441 -0.066176  0.075164 -0.212445  0.203600  0.370966
  2H   3s         0.062737  0.082289  0.024474 -0.069146  0.416653  1.124249
  3H   1s        -0.000005 -0.000017  0.000001 -0.000004 -0.105521 -0.000003
  3H   2s        -0.000020 -0.000071 -0.000017  0.000026  0.329347 -0.000026
  3H   3s         0.000050  0.000081 -0.000010 -0.000011 -0.950827  0.000142
  4H   1s        -0.003602  0.000436  0.012827  0.015005  0.008586  0.030620
  4H   2s         0.082417 -0.010741  0.146390  0.171279  0.203478 -0.303854
  4H   3s        -0.102502  0.013284  0.047660  0.055771  0.416512 -0.920345
  5Cl  1s        -0.000001 -0.000002 -0.000000  0.000000  0.001513  0.000000
  5Cl  2s        -0.000002 -0.000005 -0.000000  0.000000  0.004128  0.000001
  5Cl  3s         0.000004  0.000009  0.000000 -0.000000 -0.006008 -0.000002
  5Cl  4s         0.000009  0.000021  0.000001 -0.000001 -0.028890 -0.000005
  5Cl  5s        -0.000016 -0.000036 -0.000003  0.000004  0.098342  0.000013
  5Cl  6s        -0.000038 -0.000096  0.000006 -0.000007  0.056971 -0.000017
  5Cl  1pz        0.000013  0.000059  0.000000 -0.000005 -0.169974 -0.000002
  5Cl  1px        0.061511 -0.147299  0.009534 -0.001767 -0.000010 -0.013680
  5Cl  1py        0.147299  0.061512  0.001772  0.009536 -0.000009  0.079186
  5Cl  2pz        0.000002  0.000009  0.000000 -0.000001 -0.031813 -0.000001
  5Cl  2px        0.009587 -0.022957  0.001562 -0.000290 -0.000002 -0.002048
  5Cl  2py        0.022957  0.009587  0.000290  0.001563 -0.000001  0.011856
  5Cl  3pz       -0.000002 -0.000008 -0.000001  0.000003  0.072561  0.000003
  5Cl  3px       -0.012530  0.030005 -0.002574  0.000477  0.000007  0.002092
  5Cl  3py       -0.030005 -0.012530 -0.000478 -0.002575  0.000001 -0.012111
  5Cl  4pz       -0.000075 -0.000330  0.000003  0.000019  0.775011 -0.000001
  5Cl  4px       -0.325018  0.778310 -0.047307  0.008768  0.000036  0.081716
  5Cl  4py       -0.778311 -0.325021 -0.008795 -0.047314  0.000048 -0.473006
  5Cl  5pz        0.000042  0.000272 -0.000000 -0.000036 -1.177765  0.000038
  5Cl  5px        0.412778 -0.988467  0.054042 -0.010011 -0.000076 -0.137131
  5Cl  5py        0.988467  0.412781  0.010051  0.054040 -0.000059  0.793765
  5Cl  1dz2      -0.000010 -0.000039 -0.000001 -0.000001 -0.028658  0.000006
  5Cl  1dxz      -0.011972  0.028669  0.001236 -0.000231 -0.000006 -0.008189
  5Cl  1dyz      -0.028671 -0.011973  0.000231  0.001256 -0.000002  0.047399
  5Cl  1dx2y2    -0.001517  0.003631  0.060299 -0.011202 -0.000001 -0.000190
  5Cl  1dxy       0.003624  0.001511 -0.011202 -0.060297  0.000001 -0.001083
  5Cl  2dz2      -0.000029 -0.000111 -0.000001 -0.000002 -0.076870  0.000014
  5Cl  2dxz      -0.034223  0.081953  0.004123 -0.000770 -0.000016 -0.023321
  5Cl  2dyz      -0.081957 -0.034225  0.000770  0.004176 -0.000007  0.134990
  5Cl  2dx2y2    -0.003692  0.008833  0.154558 -0.028712 -0.000002 -0.000317
  5Cl  2dxy       0.008812  0.003674 -0.028712 -0.154554  0.000002 -0.001797
  5Cl  3dz2      -0.000159 -0.000596 -0.000007 -0.000019 -0.577167  0.000102
  5Cl  3dxz      -0.165307  0.395860  0.012476 -0.002338 -0.000154 -0.117549
  5Cl  3dyz      -0.395881 -0.165321  0.002345  0.012756 -0.000005  0.680406
  5Cl  3dx2y2    -0.022235  0.053221  0.862881 -0.160295 -0.000016 -0.003059
  5Cl  3dxy       0.053124  0.022155 -0.160299 -0.862860  0.000008 -0.017503
  5Cl  1f0       -0.000003 -0.000014  0.000000 -0.000001 -0.016421  0.000000
  5Cl  1f+1      -0.003540  0.008476 -0.000423  0.000078 -0.000008  0.000763
  5Cl  1f-1      -0.008476 -0.003540 -0.000078 -0.000421  0.000003 -0.004419
  5Cl  1f+2      -0.000180  0.000430  0.004235 -0.000787  0.000000  0.000190
  5Cl  1f-2       0.000425  0.000176 -0.000787 -0.004235  0.000000  0.001095
  5Cl  1f+3       0.000000 -0.000000 -0.000001  0.000001  0.000171 -0.000000
  5Cl  1f-3      -0.000000 -0.000000  0.000001  0.000001 -0.000000 -0.000000
                     30        31        32        33        34        35   
                   0.57238   0.74426   0.77182   0.77182   0.79223   0.82985
                   0.00000   0.00000   0.00000   0.00000   0.00000   0.00000
                  --------  --------  --------  --------  --------  --------
  0C   1s        -0.000004  0.066211 -0.000009  0.000006  0.006194 -0.061255
  0C   2s        -0.000008  0.132713 -0.000018  0.000012  0.009146 -0.137249
  0C   1pz        0.000012 -0.019607  0.000001  0.000020  0.101653  0.155761
  0C   1px        0.042790  0.000036  0.171559 -0.148899  0.000001  0.000014
  0C   1py        0.007391 -0.000007 -0.148885 -0.171552  0.000016  0.000001
  0C   3s         0.000010 -0.481910  0.000061 -0.000039 -0.005786  1.056689
  0C   2pz        0.000026 -0.140495  0.000013  0.000069  0.244818  0.900942
  0C   2px        0.159840  0.000166  0.808052 -0.701317  0.000014  0.000075
  0C   2py        0.027609 -0.000041 -0.701267 -0.808027  0.000050  0.000016
  0C   4s         0.000236 -1.973782  0.000302 -0.000124  0.553266 -2.834358
  0C   3pz        0.000109 -0.347644 -0.000042 -0.000061  1.298549 -3.494510
  0C   3px       -1.068256 -0.000691 -2.369802  2.056629 -0.000782  0.000048
  0C   3py       -0.184577  0.000159  2.057068  2.370064 -0.000040 -0.000388
  0C   1dz2       0.000002 -0.004593  0.000000  0.000000  0.002622  0.000250
  0C   1dxz      -0.010751 -0.000000  0.000881 -0.000764  0.000001  0.000000
  0C   1dyz      -0.001857 -0.000000 -0.000765 -0.000881  0.000000  0.000000
  0C   1dx2y2    -0.000116 -0.000001 -0.000509  0.000442 -0.000001  0.000000
  0C   1dxy       0.000020  0.000000 -0.000443 -0.000510  0.000000  0.000001
  0C   2dz2       0.000003  0.011940 -0.000002  0.000005  0.053292  0.008258
  0C   2dxz      -0.012410 -0.000003 -0.000079  0.000068  0.000002 -0.000007
  0C   2dyz      -0.002143  0.000005  0.000068  0.000077  0.000016  0.000004
  0C   2dx2y2     0.019181  0.000007  0.013965 -0.012117  0.000002  0.000003
  0C   2dxy      -0.003317  0.000002  0.012114  0.013964  0.000002  0.000001
  0C   3dz2      -0.000010  0.849782 -0.000150 -0.000055 -1.490412  1.586985
  0C   3dxz      -0.992244 -0.000178 -0.078623  0.068150 -0.000225  0.000138
  0C   3dyz      -0.171398  0.000159  0.068327  0.078627 -0.000203  0.000139
  0C   3dx2y2     0.453872  0.000245  0.521561 -0.452479  0.000374 -0.000109
  0C   3dxy      -0.078537  0.000061  0.452650  0.521661 -0.000050 -0.000107
  0C   1f0        0.000001  0.007319 -0.000002  0.000003  0.006447 -0.001348
  0C   1f+1      -0.000237  0.000001  0.006902 -0.005990  0.000006 -0.000003
  0C   1f-1      -0.000040  0.000001 -0.005992 -0.006904  0.000002  0.000000
  0C   1f+2       0.012115  0.000003  0.002253 -0.001954  0.000003 -0.000000
  0C   1f-2      -0.002094  0.000003  0.001955  0.002252 -0.000001  0.000001
  0C   1f+3       0.000003 -0.024270  0.000004 -0.000001  0.010720 -0.022399
  0C   1f-3      -0.000001  0.000004 -0.000000  0.000000 -0.000002  0.000003
  1H   1s         0.039258  0.054643  0.027836 -0.024159 -0.007436 -0.007813
  1H   2s        -0.389889  1.420118 -0.326429  0.283085 -0.574301  0.616742
  1H   3s        -1.180564 -0.141624 -1.661665  1.441929 -0.180115  1.397276
  2H   1s        -0.013771  0.054627 -0.034842 -0.012022 -0.007431 -0.007829
  2H   2s         0.136406  1.420495  0.408335  0.141261 -0.573573  0.616326
  2H   3s         0.413521 -0.140715  2.079713  0.718110 -0.179556  1.397152
  3H   1s        -0.000005  0.078932 -0.000008  0.000011  0.098116  0.048418
  3H   2s        -0.000017  0.332834 -0.000150  0.000279  2.730622 -0.734929
  3H   3s         0.000182 -0.046286  0.000119 -0.000015 -0.194739 -2.982689
  4H   1s        -0.025523  0.054633  0.006993  0.036191 -0.007424 -0.007821
  4H   2s         0.253099  1.420388 -0.082482 -0.424129 -0.573463  0.616614
  4H   3s         0.766884 -0.140963 -0.418087 -2.160123 -0.179467  1.397240
  5Cl  1s         0.000000 -0.006080 -0.000001 -0.000001 -0.006153 -0.003497
  5Cl  2s         0.000001 -0.017425 -0.000002 -0.000002 -0.017663 -0.009553
  5Cl  3s        -0.000003  0.033023  0.000003  0.000004  0.033811  0.013920
  5Cl  4s        -0.000007  0.090441  0.000013  0.000010  0.090155  0.069471
  5Cl  5s         0.000017 -0.221803 -0.000048 -0.000018 -0.182264 -0.277987
  5Cl  6s        -0.000022 -0.064979  0.000045 -0.000030 -0.099832  0.883531
  5Cl  1pz        0.000005  0.080568  0.000002  0.000011  0.083497  0.029505
  5Cl  1px       -0.079190  0.000012  0.001039 -0.000899  0.000024  0.000007
  5Cl  1py       -0.013681 -0.000002 -0.000906 -0.001041 -0.000015 -0.000002
  5Cl  2pz        0.000000  0.016006  0.000001  0.000002  0.015046  0.011421
  5Cl  2px       -0.011857  0.000003 -0.001196  0.001039  0.000004  0.000003
  5Cl  2py       -0.002049 -0.000001  0.001038  0.001196 -0.000003 -0.000001
  5Cl  3pz        0.000002 -0.046947 -0.000008 -0.000002 -0.032059 -0.070917
  5Cl  3px        0.012114 -0.000012  0.010708 -0.009294 -0.000005 -0.000017
  5Cl  3py        0.002093  0.000006 -0.009291 -0.010706  0.000008  0.000004
  5Cl  4pz       -0.000047 -0.324123  0.000025 -0.000066 -0.396138  0.181521
  5Cl  4px        0.473014 -0.000017 -0.062900  0.054581 -0.000133  0.000032
  5Cl  4py        0.081720 -0.000013  0.054609  0.062911  0.000064 -0.000006
  5Cl  5pz        0.000125  0.061165  0.000008  0.000002 -0.170906 -0.136303
  5Cl  5px       -0.793770 -0.000094  0.135937 -0.117965  0.000023  0.000057
  5Cl  5py       -0.137134  0.000063 -0.118006 -0.135952  0.000015 -0.000103
  5Cl  1dz2       0.000015 -0.003460 -0.000003  0.000002 -0.014446 -0.017226
  5Cl  1dxz      -0.047396 -0.000007  0.015799 -0.013711  0.000002 -0.000007
  5Cl  1dyz      -0.008188  0.000005 -0.013713 -0.015800  0.000002  0.000001
  5Cl  1dx2y2    -0.001097 -0.000002 -0.000181  0.000156 -0.000002 -0.000001
  5Cl  1dxy       0.000187 -0.000001 -0.000164 -0.000187  0.000001  0.000000
  5Cl  2dz2       0.000039  0.022525 -0.000006  0.000012 -0.006690 -0.005257
  5Cl  2dxz      -0.134987 -0.000007  0.051962 -0.045094  0.000025 -0.000010
  5Cl  2dyz      -0.023321  0.000012 -0.045106 -0.051967 -0.000006  0.000004
  5Cl  2dx2y2    -0.001836 -0.000009  0.000750 -0.000656 -0.000006 -0.000003
  5Cl  2dxy       0.000311 -0.000004  0.000626  0.000728  0.000003 -0.000000
  5Cl  3dz2       0.000238 -0.309065  0.000001 -0.000053 -0.845438 -0.321357
  5Cl  3dxz      -0.680361 -0.000188  0.182542 -0.158426 -0.000262 -0.000062
  5Cl  3dyz      -0.117538  0.000092 -0.158428 -0.182542  0.000166 -0.000049
  5Cl  3dx2y2    -0.017695 -0.000022 -0.005221  0.004517 -0.000019 -0.000004
  5Cl  3dxy       0.003028 -0.000008 -0.004600 -0.005287  0.000006  0.000001
  5Cl  1f0       -0.000001  0.004743  0.000005 -0.000004  0.001160  0.015575
  5Cl  1f+1       0.004418  0.000005 -0.011759  0.010206 -0.000005  0.000012
  5Cl  1f-1       0.000763 -0.000003  0.010205  0.011758 -0.000000 -0.000005
  5Cl  1f+2       0.001097  0.000002  0.001661 -0.001440  0.000002  0.000000
  5Cl  1f-2      -0.000189  0.000001  0.001447  0.001667 -0.000001 -0.000000
  5Cl  1f+3      -0.000000  0.000400 -0.000001  0.000000 -0.000300  0.001039
  5Cl  1f-3       0.000000 -0.000000 -0.000000 -0.000000  0.000000 -0.000000
                     36        37        38        39        40        41   
                   0.87043   0.87046   1.06710   1.30974   1.41878   1.41878
                   0.00000   0.00000   0.00000   0.00000   0.00000   0.00000
                  --------  --------  --------  --------  --------  --------
  0C   1s        -0.000010 -0.000011 -0.086448  0.002875  0.000001 -0.000002
  0C   2s        -0.000022 -0.000023 -0.206593 -0.000082  0.000001 -0.000004
  0C   1pz       -0.000000 -0.000012 -0.100860  0.030262  0.000002  0.000000
  0C   1px       -0.032160 -0.088654  0.000001  0.000006 -0.011685  0.004303
  0C   1py        0.088687 -0.032161 -0.000005 -0.000001 -0.004302 -0.011686
  0C   3s         0.000148  0.000151  1.890452  0.211903  0.000002  0.000022
  0C   2pz        0.000027 -0.000003 -0.559385  0.042986  0.000013 -0.000023
  0C   2px       -0.128045 -0.352970 -0.000014  0.000049 -0.039170  0.014415
  0C   2py        0.353125 -0.128055 -0.000029 -0.000032 -0.014423 -0.039154
  0C   4s        -0.000228 -0.000374 -4.332800 -1.988739 -0.000105  0.000071
  0C   3pz       -0.000612 -0.000420  2.663660  0.850551 -0.000053  0.000099
  0C   3px       -1.298403 -3.580092  0.000466 -0.000328 -0.108053  0.039878
[...]
      7       0.000000   0.000000   0.000000   0.000000   0.000000   0.000000
      8       0.000000   0.000000   0.000000   0.000000   0.000000   0.000000
      9       0.000000   0.000000   0.000000   0.000000   0.000000   0.000000
     10       0.000000   0.000000   0.000000   0.000000   0.000000   0.000000
     11       0.000000   0.000000   0.000000   0.000000   0.000000   0.000000
     12       0.000000   0.000000   0.000000   0.000000   0.000000   0.000000
     13       0.000000   0.000000   0.000000   0.000000   0.000000   0.000000
     14       0.000000   0.000000   0.000000   0.000000   0.000000   0.000000
     15       0.000000   0.000000   0.000000   0.000000   0.000000   0.000000
     16       0.000000   0.000000   0.000000   0.000000   0.000000   0.000000
     17       0.000000   0.000000   0.000000   0.000000   0.000000   0.000000
                  6          7          8          9         10         11    
      0       0.000014  -0.022272   0.024547   0.000027   0.048725   0.046022
      1       0.000005   0.024539   0.022281  -0.000072  -0.046024   0.048716
      2       0.134070   0.000122   0.000099   0.298418  -0.000009  -0.000002
      3      -0.033324   0.060928  -0.067117   0.031107  -0.018697  -0.017613
      4      -0.000005  -0.078182  -0.070971   0.000168   0.035045  -0.037130
      5      -0.117637   0.441840  -0.486437   0.504006  -0.322926  -0.304674
      6       0.016637   0.063587  -0.079812  -0.015468  -0.024926  -0.038728
      7      -0.028861  -0.065504  -0.068227   0.027060   0.013981  -0.030812
      8      -0.117636  -0.642010  -0.139068   0.504981   0.425350  -0.126939
      9      -0.000090  -0.381280   0.419957   0.000056  -0.605952  -0.572476
     10      -0.000020   0.420064   0.381175  -0.000488   0.572399  -0.606019
     11      -0.968048   0.000174   0.000079   0.349514   0.000079   0.000022
     12       0.016642   0.073248  -0.070967  -0.015493  -0.040091  -0.022695
     13       0.028848  -0.074202  -0.058583  -0.026758   0.030014  -0.015685
     14      -0.117644   0.200707   0.626009   0.503127  -0.102785   0.432046
     15      -0.000001   0.012763  -0.014061  -0.000015   0.003101   0.002932
     16      -0.000000  -0.014062  -0.012763   0.000025  -0.002929   0.003104
     17      -0.007864  -0.000062  -0.000050  -0.154030   0.000011  -0.000012
                 12         13         14         15         16         17    
      0      -0.000009   0.026477   0.080165   0.000002   0.019884  -0.096471
      1      -0.000020   0.080170  -0.026476   0.000001  -0.096471  -0.019883
      2      -0.144140  -0.000001   0.000001  -0.024036   0.000002   0.000008
      3       0.113432   0.031989   0.097035  -0.568988  -0.161137   0.781497
      4       0.000008  -0.751187   0.248054   0.000038  -0.011046  -0.002332
      5       0.499766   0.049946   0.151171   0.096703   0.030810  -0.149406
      6      -0.056679  -0.545312  -0.417876   0.284468  -0.381754   0.116342
      7       0.098195  -0.236289  -0.329288  -0.492742   0.654149  -0.222968
      8       0.499829   0.106009  -0.118802   0.096648  -0.144724   0.048014
      9      -0.000028   0.006813   0.020631  -0.000001   0.001683  -0.008156
     10       0.000246   0.020576  -0.006796   0.000002  -0.008157  -0.001680
     11      -0.437091   0.000019   0.000028  -0.016263   0.000001  -0.000001
     12      -0.056674   0.189241  -0.660397   0.284491   0.304675   0.257898
     13      -0.098136   0.006231   0.405299   0.492685   0.512643   0.463504
     14       0.499670  -0.155933  -0.032345   0.096582   0.113889   0.101291
     15       0.000002   0.000050   0.000153   0.000000  -0.000011   0.000055
     16      -0.000002   0.000153  -0.000051  -0.000000   0.000055   0.000011
     17       0.018633  -0.000001  -0.000002   0.000362   0.000000   0.000000


-----------
IR SPECTRUM
-----------

 Mode    freq (cm**-1)   T**2         TX         TY         TZ
-------------------------------------------------------------------
   7:       386.46    0.339717  ( -0.392042   0.431294   0.002436)
   8:       386.52    0.339198  (  0.431537   0.391117   0.001203)
   9:       524.13   14.214026  (  0.000459   0.000223   3.770149)
  10:       963.34    7.143577  ( -1.942877   1.835431  -0.000045)
  11:       963.43    7.143647  ( -1.835320  -1.943000   0.000301)
  12:      1195.86    9.813297  (  0.000007   0.000700  -3.132618)
  13:      1436.51    5.121670  ( -0.708918  -2.149210  -0.000621)
  14:      1436.53    5.110771  ( -2.146386   0.709783  -0.002006)
  15:      3150.02    0.619860  ( -0.002106  -0.000000   0.787309)
  16:      3331.09    0.290628  ( -0.108250   0.528119  -0.000334)
  17:      3331.11    0.287475  (  0.525009   0.108810   0.000749)

The first frequency considered to be a vibration is 7
The total number of vibrations considered is 11


--------------------------
THERMOCHEMISTRY AT 298.15K
--------------------------

Temperature         ... 298.15 K
Pressure            ... 1.00 atm
Total Mass          ... 51.50 AMU

Throughout the following assumptions are being made:
  (1) The electronic state is orbitally nondegenerate
      but the spin degeneracy is treated
  (2) There are no thermally accessible electronically excited states
  (3) Hindered rotations indicated by low frequency modes are not
      treated as such but are treated as vibrations and this may
      cause some error
  (4) All equations used are the standard statistical mechanics
      equations for an ideal gas
  (5) All vibrations are strictly harmonic

freq.     386.46  E(vib)   ...       0.20 
freq.     386.52  E(vib)   ...       0.20 
freq.     524.13  E(vib)   ...       0.13 
freq.     963.34  E(vib)   ...       0.03 
freq.     963.43  E(vib)   ...       0.03 
freq.    1195.86  E(vib)   ...       0.01 
freq.    1436.51  E(vib)   ...       0.00 
freq.    1436.53  E(vib)   ...       0.00 
freq.    3150.02  E(vib)   ...       0.00 
freq.    3331.09  E(vib)   ...       0.00 
freq.    3331.11  E(vib)   ...       0.00 

------------
INNER ENERGY
------------

The inner energy is: U= E(el) + E(ZPE) + E(vib) + E(rot) + E(trans)
    E(el)   - is the total energy from the electronic structure calculation
              = E(kin-el) + E(nuc-el) + E(el-el) + E(nuc-nuc)
    E(ZPE)  - the the zero temperature vibrational energy from the frequency calculation
    E(vib)  - the the finite temperature correction to E(ZPE) due to population
              of excited vibrational states
    E(rot)  - is the rotational thermal energy
    E(trans)- is the translational thermal energy

Summary of contributions to the inner energy U:
Electronic energy                ...   -500.10909996 Eh
Zero point energy                ...      0.03896809 Eh      24.45 kcal/mol
Thermal vibrational correction   ...      0.00096706 Eh       0.61 kcal/mol
Thermal rotational correction    ...      0.00141627 Eh       0.89 kcal/mol
Thermal translational correction ...      0.00141627 Eh       0.89 kcal/mol
-----------------------------------------------------------------------
Total thermal energy                   -500.06633227 Eh


Summary of corrections to the electronic energy:
(perhaps to be used in another calculation)
Total thermal correction                  0.00379960 Eh       2.38 kcal/mol
Non-thermal (ZPE) correction              0.03896809 Eh      24.45 kcal/mol
-----------------------------------------------------------------------
Total correction                          0.04276769 Eh      26.84 kcal/mol


--------
ENTHALPY
--------

The enthalpy is H = U + kB*T
                kB is Boltzmann's constant
Total free energy                 ...   -500.06633227 Eh 
Thermal Enthalpy correction       ...      0.00094421 Eh       0.59 kcal/mol
-----------------------------------------------------------------------
Total Enthalpy                    ...   -500.06538806 Eh


Note: Only C1 symmetry has been detected, increase convergence thresholds 
      if your molecule has a higher symmetry. Symmetry factor of 1.0 is   
      used for the rotational entropy correction. 
 

Note: Rotational entropy computed according to Herzberg 
Infrared and Raman Spectra, Chapter V,1, Van Nostrand Reinhold, 1945 
Point Group:  C1, Symmetry Number:   1  
Rotational constants in cm-1:     4.948030     0.188923     0.188923 

Vibrational entropy computed according to the QRRHO of S. Grimme
Chem.Eur.J. 2012 18 9955


-------
ENTROPY
-------

The entropy contributions are T*S = T*(S(el)+S(vib)+S(rot)+S(trans))
     S(el)   - electronic entropy
     S(vib)  - vibrational entropy
     S(rot)  - rotational entropy
     S(trans)- translational entropy
The entropies will be listed as mutliplied by the temperature to get
units of energy

Electronic entropy                ...      0.00065446 Eh      0.41 kcal/mol
Vibrational entropy               ...      0.00138877 Eh      0.87 kcal/mol
Rotational entropy                ...      0.01032934 Eh      6.48 kcal/mol
Translational entropy             ...      0.01793131 Eh     11.25 kcal/mol
-----------------------------------------------------------------------
Final entropy term                ...      0.03030388 Eh     19.02 kcal/mol

In case the symmetry of your molecule has not been determined correctly
or in case you have a reason to use a different symmetry number we print 
out the resulting rotational entropy values for sn=1,12 :
 --------------------------------------------------------
|  sn= 1 | S(rot)=       0.01032934 Eh      6.48 kcal/mol|
|  sn= 2 | S(rot)=       0.00967489 Eh      6.07 kcal/mol|
|  sn= 3 | S(rot)=       0.00929205 Eh      5.83 kcal/mol|
|  sn= 4 | S(rot)=       0.00902043 Eh      5.66 kcal/mol|
|  sn= 5 | S(rot)=       0.00880974 Eh      5.53 kcal/mol|
|  sn= 6 | S(rot)=       0.00863760 Eh      5.42 kcal/mol|
|  sn= 7 | S(rot)=       0.00849205 Eh      5.33 kcal/mol|
|  sn= 8 | S(rot)=       0.00836597 Eh      5.25 kcal/mol|
|  sn= 9 | S(rot)=       0.00825476 Eh      5.18 kcal/mol|
|  sn=10 | S(rot)=       0.00815528 Eh      5.12 kcal/mol|
|  sn=11 | S(rot)=       0.00806529 Eh      5.06 kcal/mol|
|  sn=12 | S(rot)=       0.00798314 Eh      5.01 kcal/mol|
 --------------------------------------------------------


-------------------
GIBBS FREE ENERGY
-------------------

The Gibbs free energy is G = H - T*S

Total enthalpy                    ...   -500.06538806 Eh 
Total entropy correction          ...     -0.03030388 Eh    -19.02 kcal/mol
-----------------------------------------------------------------------
Final Gibbs free energy         ...   -500.09569194 Eh

For completeness - the Gibbs free energy minus the electronic energy
G-E(el)                           ...      0.01340801 Eh      8.41 kcal/mol




------------------------------------------------------------------------------- 
                    Intrinsic Reaction Coordinate Calculation                  
------------------------------------------------------------------------------- 

System:
Nr. of atoms                        .... 6
Algorithm: SD (steepest descent step) plus correction
Settings:
Max. no of cycles        MaxIter    .... 1000
Direction                           .... Forward and backward
Initial displacement Hessian type   .... Read
Hessian Filename                    .... H3CHCl‡.hess
Following Hessian mode              .... 0
Initial displacement type           .... Energy
  Initial displacement energy change.... 0.250 mEh
Coordinate system following type    .... Cartesian
Length of steepest descent step     .... 0.150 bohr
Do parabolic fit 
  if SD step is uphill              .... YES
Do Correction to SD step            .... YES
Scaling for length of correction
  compared to SD step               .... 0.333
Do parabolic fit to SD correction   .... YES
Only interpolate for parabolic fit  .... YES
Do update to length of
  SD step and correction            .... YES
Convergence Tolerances:
  Max. Gradient            TolMAXG  ....  2.0000e-03 Eh/bohr
  RMS Gradient             TolRMSG  ....  5.0000e-04 Eh/bohr
Storing full IRC trajectory in      .... H3CHCl‡_IRC_Full_trj.xyz
Storing forward trajectory in       .... H3CHCl‡_IRC_F_trj.xyz
Storing backward trajectory in      .... H3CHCl‡_IRC_B_trj.xyz


 ...good, the file H3CHCl‡.hess exists
Reading the hessian file           ...... done
Determining length of initial displacement:
  Requested energy change (quadratic behavior): 0.250 mEh
  Resulting scaling factor for initial displacement along normalized TS mode: 0.0859

         *************************************************************
         *                          FORWARD IRC                      *
         *************************************************************

Iteration    E(Eh)      dE(kcal/mol)  max(|G|)   RMS(G) 
Convergence thresholds                0.002000  0.000500            
    0      -500.109297   -0.123603    0.007371  0.002012
    1      -500.110725   -1.019634    0.008605  0.002953
    2      -500.112432   -2.090964    0.007773  0.002701
    3      -500.113944   -3.039483    0.006145  0.002248
    4      -500.115102   -3.766539    0.005158  0.001715
    5      -500.115988   -4.322570    0.004482  0.001680
    6      -500.116091   -4.386638    0.003144  0.001418
    7      -500.116203   -4.457082    0.003030  0.001359
    8      -500.116366   -4.559311    0.002811  0.001115
    9      -500.116536   -4.666020    0.002638  0.001057
   10      -500.116689   -4.762200    0.002365  0.000957
   11      -500.116835   -4.853583    0.002403  0.000907
   12      -500.116964   -4.934972    0.002252  0.000826
   13      -500.117085   -5.010808    0.001934  0.000756
   14      -500.117196   -5.080133    0.001750  0.000707
   15      -500.117294   -5.141582    0.001669  0.000724
   16      -500.117330   -5.164137    0.001491  0.000726
   17      -500.117370   -5.189322    0.001448  0.000576
   18      -500.117414   -5.217180    0.001337  0.000556
   19      -500.117456   -5.243363    0.001341  0.000522
   20      -500.117496   -5.268391    0.001239  0.000495

                      ***********************HURRAY********************
                      ***            THE IRC HAS CONVERGED          ***
                      *************************************************


         *************************************************************
         *                          BACKWARD IRC                     *
         *************************************************************

Iteration    E(Eh)      dE(kcal/mol)  max(|G|)   RMS(G) 
Convergence thresholds                0.002000  0.000500            
    0      -500.109390   -0.182236    0.007705  0.002316
    1      -500.112283   -1.997302    0.018312  0.006747
    2      -500.114973   -3.685213    0.013862  0.004679
    3      -500.117186   -5.074250    0.013306  0.003529
    4      -500.119144   -6.302847    0.011103  0.003007
    5      -500.120792   -7.336553    0.009581  0.002542
    6      -500.122151   -8.189810    0.007820  0.002210
    7      -500.123170   -8.829196    0.006541  0.002497
    8      -500.123354   -8.944573    0.006275  0.001842
    9      -500.123778   -9.210573    0.005572  0.001558
   10      -500.124171   -9.457030    0.004976  0.001517
   11      -500.124483   -9.653077    0.004455  0.001614
   12      -500.124597   -9.724279    0.004306  0.001360
   13      -500.124744   -9.816475    0.004075  0.001059
   14      -500.124904   -9.916983    0.003800  0.001001
   15      -500.125052   -10.009753    0.003549  0.000930
   16      -500.125190   -10.096388    0.003309  0.000865
   17      -500.125318   -10.177159    0.003078  0.000810
   18      -500.125437   -10.251889    0.002863  0.000761
   19      -500.125546   -10.320290    0.002658  0.000726
   20      -500.125645   -10.381891    0.002475  0.000739
   21      -500.125726   -10.432794    0.002308  0.000784
   22      -500.125761   -10.454854    0.002250  0.000701
   23      -500.125800   -10.479181    0.002177  0.000563
   24      -500.125844   -10.506810    0.002090  0.000545
   25      -500.125885   -10.532911    0.002007  0.000519
   26      -500.125925   -10.558133    0.001925  0.000498

                      ***********************HURRAY********************
                      ***            THE IRC HAS CONVERGED          ***
                      *************************************************


---------------------------------------------------------------
                       IRC PATH SUMMARY              
---------------------------------------------------------------
All gradients are in Eh/Bohr.

Step        E(Eh)      dE(kcal/mol)  max(|G|)   RMS(G) 
   1      -500.125925   -10.558133    0.001925  0.000498
   2      -500.125885   -10.532911    0.002007  0.000519
   3      -500.125844   -10.506810    0.002090  0.000545
   4      -500.125800   -10.479181    0.002177  0.000563
   5      -500.125761   -10.454854    0.002250  0.000701
   6      -500.125726   -10.432794    0.002308  0.000784
   7      -500.125645   -10.381891    0.002475  0.000739
   8      -500.125546   -10.320290    0.002658  0.000726
   9      -500.125437   -10.251889    0.002863  0.000761
  10      -500.125318   -10.177159    0.003078  0.000810
  11      -500.125190   -10.096388    0.003309  0.000865
  12      -500.125052   -10.009753    0.003549  0.000930
  13      -500.124904   -9.916983    0.003800  0.001001
  14      -500.124744   -9.816475    0.004075  0.001059
  15      -500.124597   -9.724279    0.004306  0.001360
  16      -500.124483   -9.653077    0.004455  0.001614
  17      -500.124171   -9.457030    0.004976  0.001517
  18      -500.123778   -9.210573    0.005572  0.001558
  19      -500.123354   -8.944573    0.006275  0.001842
  20      -500.123170   -8.829196    0.006541  0.002497
  21      -500.122151   -8.189810    0.007820  0.002210
  22      -500.120792   -7.336553    0.009581  0.002542
  23      -500.119144   -6.302847    0.011103  0.003007
  24      -500.117186   -5.074250    0.013306  0.003529
  25      -500.114973   -3.685213    0.013862  0.004679
  26      -500.112283   -1.997302    0.018312  0.006747
  27      -500.109390   -0.182236    0.007705  0.002316
  28      -500.109100    0.000000    0.000003  0.000001 <= TS
  29      -500.109297   -0.123603    0.007371  0.002012
  30      -500.110725   -1.019634    0.008605  0.002953
  31      -500.112432   -2.090964    0.007773  0.002701
  32      -500.113944   -3.039483    0.006145  0.002248
  33      -500.115102   -3.766539    0.005158  0.001715
  34      -500.115988   -4.322570    0.004482  0.001680
  35      -500.116091   -4.386638    0.003144  0.001418
  36      -500.116203   -4.457082    0.003030  0.001359
  37      -500.116366   -4.559311    0.002811  0.001115
  38      -500.116536   -4.666020    0.002638  0.001057
  39      -500.116689   -4.762200    0.002365  0.000957
  40      -500.116835   -4.853583    0.002403  0.000907
  41      -500.116964   -4.934972    0.002252  0.000826
  42      -500.117085   -5.010808    0.001934  0.000756
  43      -500.117196   -5.080133    0.001750  0.000707
  44      -500.117294   -5.141582    0.001669  0.000724
  45      -500.117330   -5.164137    0.001491  0.000726
  46      -500.117370   -5.189322    0.001448  0.000576
  47      -500.117414   -5.217180    0.001337  0.000556
  48      -500.117456   -5.243363    0.001341  0.000522
  49      -500.117496   -5.268391    0.001239  0.000495

Timings for individual modules:

Sum of individual times         ...     8336.107 sec (= 138.935 min)
GTO integral calculation        ...      454.626 sec (=   7.577 min)   5.5 %
SCF iterations                  ...     2679.516 sec (=  44.659 min)  32.1 %
MP2 module                      ...     4617.573 sec (=  76.960 min)  55.4 %
Geometry relaxation             ...        0.315 sec (=   0.005 min)   0.0 %
Analytical frequency calculation...      584.077 sec (=   9.735 min)   7.0 %
                             ****ORCA TERMINATED NORMALLY****
TOTAL RUN TIME: 0 days 2 hours 19 minutes 4 seconds 104 msec
