
                                 *****************
                                 * O   R   C   A *
                                 *****************

           --- An Ab Initio, DFT and Semiempirical electronic structure package ---

                  #######################################################
                  #                        -***-                        #
                  #          Department of theory and spectroscopy      #
                  #               Directorship: Frank Neese             #
                  #        Max Planck Institute fuer Kohlenforschung    #
                  #                Kaiser Wilhelm Platz 1               #
                  #                 D-45470 Muelheim/Ruhr               #
                  #                      Germany                        #
                  #                                                     #
                  #                  All rights reserved                #
                  #                        -***-                        #
                  #######################################################


                         Program Version 4.2.1 -  RELEASE  -


 With contributions from (in alphabetic order):
   Daniel Aravena         : Magnetic Suceptibility
   Michael Atanasov       : Ab Initio Ligand Field Theory (pilot matlab implementation)
   Alexander A. Auer      : GIAO ZORA, VPT2
   Ute Becker             : Parallelization
   Giovanni Bistoni       : ED, misc. LED, open-shell LED, HFLD
   Martin Brehm           : Molecular dynamics
   Dmytro Bykov           : SCF Hessian
   Vijay G. Chilkuri      : MRCI spin determinant printing, contributions to CSF-ICE
   Dipayan Datta          : RHF DLPNO-CCSD density
   Achintya Kumar Dutta   : EOM-CC, STEOM-CC
   Dmitry Ganyushin       : Spin-Orbit,Spin-Spin,Magnetic field MRCI
   Miquel Garcia          : C-PCM Hessian, Gaussian charge scheme
   Yang Guo               : DLPNO-NEVPT2, CIM, IAO-localization
   Andreas Hansen         : Spin unrestricted coupled pair/coupled cluster methods
   Benjamin Helmich-Paris : CASSCF linear response (MC-RPA)
   Lee Huntington         : MR-EOM, pCC
   Robert Izsak           : Overlap fitted RIJCOSX, COSX-SCS-MP3, EOM
   Christian Kollmar      : KDIIS, OOCD, Brueckner-CCSD(T), CCSD density
   Simone Kossmann        : Meta GGA functionals, TD-DFT gradient, OOMP2, MP2 Hessian
   Martin Krupicka        : AUTO-CI
   Lucas Lang             : DCDCAS
   Dagmar Lenk            : GEPOL surface, SMD
   Dimitrios Liakos       : Extrapolation schemes; Compound Job, initial MDCI parallelization
   Dimitrios Manganas     : Further ROCIS development; embedding schemes
   Dimitrios Pantazis     : SARC Basis sets
   Taras Petrenko         : DFT Hessian,TD-DFT gradient, ASA, ECA, R-Raman, ABS, FL, XAS/XES, NRVS
   Peter Pinski           : DLPNO-MP2, DLPNO-MP2 Gradient
   Christoph Reimann      : Effective Core Potentials
   Marius Retegan         : Local ZFS, SOC
   Christoph Riplinger    : Optimizer, TS searches, QM/MM, DLPNO-CCSD(T), (RO)-DLPNO pert. Triples
   Tobias Risthaus        : Range-separated hybrids, TD-DFT gradient, RPA, STAB
   Michael Roemelt        : Original ROCIS implementation
   Masaaki Saitow         : Open-shell DLPNO-CCSD energy and density
   Barbara Sandhoefer     : DKH picture change effects
   Avijit Sen             : IP-ROCIS
   Kantharuban Sivalingam : CASSCF convergence, NEVPT2, FIC-MRCI
   Bernardo de Souza      : ESD, SOC TD-DFT
   Georgi Stoychev        : AutoAux, RI-MP2 NMR
   Willem Van den Heuvel  : Paramagnetic NMR
   Boris Wezisla          : Elementary symmetry handling
   Frank Wennmohs         : Technical directorship


 We gratefully acknowledge several colleagues who have allowed us to
 interface, adapt or use parts of their codes:
   Stefan Grimme, W. Hujo, H. Kruse,             : VdW corrections, initial TS optimization,
                  C. Bannwarth                     DFT functionals, gCP, sTDA/sTD-DF
   Ed Valeev, F. Pavosevic, A. Kumar             : LibInt (2-el integral package), F12 methods
   Garnet Chan, S. Sharma, J. Yang, R. Olivares  : DMRG
   Ulf Ekstrom                                   : XCFun DFT Library
   Mihaly Kallay                                 : mrcc  (arbitrary order and MRCC methods)
   Andreas Klamt, Michael Diedenhofen            : otool_cosmo (COSMO solvation model)
   Jiri Pittner, Ondrej Demel                    : Mk-CCSD
   Frank Weinhold                                : gennbo (NPA and NBO analysis)
   Christopher J. Cramer and Donald G. Truhlar   : smd solvation model
   Lars Goerigk                                  : TD-DFT with DH, B97 family of functionals
   V. Asgeirsson, H. Jonsson                     : NEB implementation
   FAccTs GmbH                                   : IRC, NEB, NEB-TS, Multilevel, MM, QM/MM, CI optimization
   S Lehtola, MJT Oliveira, MAL Marques          : LibXC Library


 Your calculation uses the libint2 library for the computation of 2-el integrals
 For citations please refer to: http://libint.valeyev.net

 Your ORCA version has been built with support for libXC version: 4.2.3
 For citations please refer to: https://tddft.org/programs/libxc/

 This ORCA versions uses:
   CBLAS   interface :  Fast vector & matrix operations
   LAPACKE interface :  Fast linear algebra routines
   SCALAPACK package :  Parallel linear algebra routines


----- Orbital basis set information -----
Your calculation utilizes the basis: 6-311G(3df)
   H, Li - Ne  : R. Krishnan, J. S. Binkley, R. Seeger and J. A. Pople, J. Chem. Phys. 72, 650 (1980).
   Na - Ar     : A. D. McLean and G. S. Chandler J. Chem. Phys. 72, 5639, (1980).
   K  - Ca     : J.-P. Blaudeau, M. P. McGrath, L. A. Curtiss and L. Radom, J. Chem. Phys. 107, 5016 (1997).
   Ga - Kr     : L. A. Curtiss, M. P. McGrath, J.-P. Blandeau, N. E. Davis, R. C. Binning and L. Radom, J. Chem. Phys. 103, 6104 (1995).
   Pol./Diff.
   H, Li - Cl  : T. Clark, J. Chandrasekhar and P. v. R. Schleyer, J. Comp. Chem. 4, 294 (1983).
   H - Ne      : M. J. Frisch, J. A. Pople and J. S. Binkley, J. Chem. Phys. 80, 3265 (1984).

================================================================================
                                        WARNINGS
                       Please study these warnings very carefully!
================================================================================


WARNING: Geometry Optimization
  ===> : Switching off AutoStart
         For restart on a previous wavefunction, please use MOREAD

WARNING: Post HF methods need fully converged wavefunctions
  ===> : Setting SCFConvForced true
         You can overwrite this default with %scf ConvForced false 


INFO   : the flag for use of LIBINT has been found!

================================================================================
                                       INPUT FILE
================================================================================
NAME = HCl.inp
|  1> ! UHF MP2 6-311G(3df) Opt Freq NoFrozenCore TightOpt TightSCF Grid4 FinalGrid5 PrintBasis PrintMOs NBO
|  2> %maxcore 3000
|  3> 
|  4> *xyz 0 1
|  5> Cl       0.000000000      0.000000000      0.034379000
|  6> H        0.000000000      0.000000000     -1.236571000
|  7> *
|  8> 
|  9> %pal
| 10>  nprocs 12
| 11> end
| 12> 
| 13>                          ****END OF INPUT****
================================================================================

                       *****************************
                       * Geometry Optimization Run *
                       *****************************

Geometry optimization settings:
Update method            Update   .... BFGS
Choice of coordinates    CoordSys .... Z-matrix Internals
Initial Hessian          InHess   .... Almoef's Model

Convergence Tolerances:
Energy Change            TolE     ....  1.0000e-06 Eh
Max. Gradient            TolMAXG  ....  1.0000e-04 Eh/bohr
RMS Gradient             TolRMSG  ....  3.0000e-05 Eh/bohr
Max. Displacement        TolMAXD  ....  1.0000e-03 bohr
RMS Displacement         TolRMSD  ....  6.0000e-04 bohr
Strict Convergence                ....  False
------------------------------------------------------------------------------
                        ORCA OPTIMIZATION COORDINATE SETUP
------------------------------------------------------------------------------

The optimization will be done in new redundant internal coordinates
Making redundant internal coordinates   ...  (new redundants) done
Evaluating the initial hessian          ...  (Almloef) done
Evaluating the coordinates              ...  done
Calculating the B-matrix                .... done
Calculating the G-matrix                .... done
Diagonalizing the G-matrix              .... done
The first mode is                       ....    0
The number of degrees of freedom        ....    1

    -----------------------------------------------------------------
                    Redundant Internal Coordinates


    -----------------------------------------------------------------
         Definition                    Initial Value    Approx d2E/dq
    -----------------------------------------------------------------
      1. B(H   1,Cl  0)                  1.2710         0.415647   
    -----------------------------------------------------------------

Number of atoms                         .... 2
Number of degrees of freedom            .... 1

         *************************************************************
         *                GEOMETRY OPTIMIZATION CYCLE   1            *
         *************************************************************
---------------------------------
CARTESIAN COORDINATES (ANGSTROEM)
---------------------------------
  Cl     0.000000    0.000000    0.034379
  H      0.000000    0.000000   -1.236571

----------------------------
CARTESIAN COORDINATES (A.U.)
----------------------------
  NO LB      ZA    FRAG     MASS         X           Y           Z
   0 Cl   17.0000    0    35.453    0.000000    0.000000    0.064967
   1 H     1.0000    0     1.008    0.000000    0.000000   -2.336781

--------------------------------
INTERNAL COORDINATES (ANGSTROEM)
--------------------------------
 Cl     0   0   0     0.000000000000     0.00000000     0.00000000
 H      1   0   0     1.270950000000     0.00000000     0.00000000

---------------------------
INTERNAL COORDINATES (A.U.)
---------------------------
 Cl     0   0   0     0.000000000000     0.00000000     0.00000000
 H      1   0   0     2.401747429907     0.00000000     0.00000000

---------------------
BASIS SET INFORMATION
---------------------
There are 2 groups of distinct atoms

 Group   1 Type Cl  : 13s10p3d1f contracted to 6s5p3d1f pattern {631111/52111/111/1}
 Group   2 Type H   : 5s contracted to 3s pattern {311}

Atom   0Cl   basis set group =>   1
Atom   1H    basis set group =>   2

-------------------------
BASIS SET IN INPUT FORMAT
-------------------------

 # Basis set for element : H 
 NewGTO H 
 S 3 
   1      33.8650000000      0.0254938145
   2       5.0947900000      0.1903731086
   3       1.1587900000      0.8521614860
 S 1 
   1       0.3258400000      1.0000000000
 S 1 
   1       0.1027410000      1.0000000000
  end;

 # Basis set for element : Cl
 NewGTO Cl
 S 6 
   1  105819.0000000000      0.0007380002
   2   15872.0000000000      0.0057180019
   3    3619.6500000000      0.0294950099
   4    1030.8000000000      0.1172860392
   5     339.9080000000      0.3629491212
   6     124.5380000000      0.5841491951
 S 3 
   1     124.5380000000      0.1341769734
   2      49.5135000000      0.6242498762
   3      20.8056000000      0.2917559421
 S 1 
   1       6.5834600000      1.0000000000
 S 1 
   1       2.5646800000      1.0000000000
 S 1 
   1       0.5597630000      1.0000000000
 S 1 
   1       0.1832730000      1.0000000000
 P 5 
   1     589.7760000000      0.0023909997
   2     139.8490000000      0.0185039976
   3      45.1413000000      0.0813769893
   4      16.8733000000      0.2215519708
   5       6.7411000000      0.7725688983
 P 2 
   1       6.7411000000     -1.5722438126
   2       2.7715200000      0.9923888817
 P 1 
   1       1.0238700000      1.0000000000
 P 1 
   1       0.3813680000      1.0000000000
 P 1 
   1       0.1094370000      1.0000000000
 D 1 
   1       3.0000000000      1.0000000000
 D 1 
   1       0.7500000000      1.0000000000
 D 1 
   1       0.1875000000      1.0000000000
 F 1 
   1       0.7000000000      1.0000000000
  end;



           ************************************************************
           *        Program running with 12 parallel MPI-processes    *
           *              working on a common directory               *
           ************************************************************
------------------------------------------------------------------------------
                           ORCA GTO INTEGRAL CALCULATION
------------------------------------------------------------------------------

                         BASIS SET STATISTICS AND STARTUP INFO

 # of primitive gaussian shells          ...   32
 # of primitive gaussian functions       ...   70
 # of contracted shells                  ...   18
 # of contracted basis functions         ...   46
 Highest angular momentum                ...    3
 Maximum contraction depth               ...    6
 Integral package used                   ... LIBINT
 Integral threshhold            Thresh   ...  2.500e-11
 Primitive cut-off              TCut     ...  2.500e-12


------------------------------ INTEGRAL EVALUATION ----------------------------


 * One electron integrals 
 Pre-screening matrix                    ... done
 Shell pair data                         ... done (   0.000 sec)



           ************************************************************
           *        Program running with 12 parallel MPI-processes    *
           *              working on a common directory               *
           ************************************************************
-------------------------------------------------------------------------------
                                 ORCA SCF
-------------------------------------------------------------------------------

------------
SCF SETTINGS
------------
Hamiltonian:
 Ab initio Hamiltonian  Method          .... Hartree-Fock(GTOs)


General Settings:
 Integral files         IntName         .... HCl
 Hartree-Fock type      HFTyp           .... UHF
 Total Charge           Charge          ....    0
 Multiplicity           Mult            ....    1
 Number of Electrons    NEL             ....   18
 Basis Dimension        Dim             ....   46
 Nuclear Repulsion      ENuc            ....      7.0781797404 Eh

Convergence Acceleration:
 DIIS                   CNVDIIS         .... on
   Start iteration      DIISMaxIt       ....    12
   Startup error        DIISStart       ....  0.200000
   # of expansion vecs  DIISMaxEq       ....     5
   Bias factor          DIISBfac        ....   1.050
   Max. coefficient     DIISMaxC        ....  10.000
 Newton-Raphson         CNVNR           .... off
 SOSCF                  CNVSOSCF        .... off
 Level Shifting         CNVShift        .... on
   Level shift para.    LevelShift      ....    0.2500
   Turn off err/grad.   ShiftErr        ....    0.0010
 Zerner damping         CNVZerner       .... off
 Static damping         CNVDamp         .... on
   Fraction old density DampFac         ....    0.7000
   Max. Damping (<1)    DampMax         ....    0.9800
   Min. Damping (>=0)   DampMin         ....    0.0000
   Turn off err/grad.   DampErr         ....    0.1000
 Fernandez-Rico         CNVRico         .... off

SCF Procedure:
 Maximum # iterations   MaxIter         ....   125
 SCF integral mode      SCFMode         .... Direct
   Integral package                     .... LIBINT
 Reset frequency        DirectResetFreq ....    20
 Integral Threshold     Thresh          ....  2.500e-11 Eh
 Primitive CutOff       TCut            ....  2.500e-12 Eh

Convergence Tolerance:
 Convergence Check Mode ConvCheckMode   .... Total+1el-Energy
 Convergence forced     ConvForced      .... 1
 Energy Change          TolE            ....  1.000e-08 Eh
 1-El. energy change                    ....  1.000e-05 Eh
 DIIS Error             TolErr          ....  5.000e-07


Diagonalization of the overlap matrix:
Smallest eigenvalue                        ... 2.549e-02
Time for diagonalization                   ...    0.001 sec
Threshold for overlap eigenvalues          ... 1.000e-08
Number of eigenvalues below threshold      ... 0
Time for construction of square roots      ...    0.014 sec
Total time needed                          ...    0.016 sec

-------------------
DFT GRID GENERATION
-------------------

General Integration Accuracy     IntAcc      ...  4.670
Radial Grid Type                 RadialGrid  ... Gauss-Chebyshev
Angular Grid (max. acc.)         AngularGrid ... Lebedev-302
Angular grid pruning method      GridPruning ... 3 (G Style)
Weight generation scheme         WeightScheme... Becke
Basis function cutoff            BFCut       ...    1.0000e-11
Integration weight cutoff        WCut        ...    1.0000e-14
Grids for H and He will be reduced by one unit

# of grid points (after initial pruning)     ...  10132 (   0.0 sec)
# of grid points (after weights+screening)   ...  10103 (   0.0 sec)
nearest neighbour list constructed           ...    0.0 sec
Grid point re-assignment to atoms done       ...    0.0 sec
Grid point division into batches done        ...    0.2 sec
Reduced shell lists constructed in    0.2 sec

Total number of grid points                  ...    10103
Total number of batches                      ...      159
Average number of points per batch           ...       63
Average number of grid points per atom       ...     5052
Average number of shells per batch           ...     4.47 (24.81%)
Average number of basis functions per batch  ...    11.27 (24.49%)
Average number of large shells per batch     ...     3.13 (70.15%)
Average number of large basis fcns per batch ...     9.00 (79.88%)
Maximum spatial batch extension              ...  25.31, 23.02, 15.18 au
Average spatial batch extension              ...   1.46,  1.37,  0.97 au

Time for grid setup =    0.352 sec

------------------------------
INITIAL GUESS: MODEL POTENTIAL
------------------------------
Loading Hartree-Fock densities                     ... done
Calculating cut-offs                               ... done
Setting up the integral package                    ... done
Initializing the effective Hamiltonian             ... done
Starting the Coulomb interaction                   ... done (   0.0 sec)
Reading the grid                                   ... done
Mapping shells                                     ... done
Starting the XC term evaluation                    ... done (   0.1 sec)
Transforming the Hamiltonian                       ... done (   0.0 sec)
Diagonalizing the Hamiltonian                      ... done (   0.0 sec)
Back transforming the eigenvectors                 ... done (   0.0 sec)
Now organizing SCF variables                       ... done
                      ------------------
                      INITIAL GUESS DONE (   0.8 sec)
                      ------------------
--------------
SCF ITERATIONS
--------------
ITER       Energy         Delta-E        Max-DP      RMS-DP      [F,P]     Damp
               ***  Starting incremental Fock matrix formation  ***
  0   -460.0674552049   0.000000000000 0.01409860  0.00069179  0.6476993 0.7000
  1   -460.0758057897  -0.008350584742 0.01058520  0.00052209  0.4559627 0.7000
  2   -460.0815654595  -0.005759669877 0.00671679  0.00035013  0.3209013 0.7000
  3   -460.0855398366  -0.003974377077 0.00411512  0.00023327  0.2257839 0.7000
                               ***Turning on DIIS***
  4   -460.0883165605  -0.002776723854 0.00250188  0.00015917  0.1588059 0.7000
  5   -460.1325084972  -0.044191936689 0.00136481  0.00011548  0.1116647 0.7000
  6   -460.1221859116   0.010322585584 0.00382458  0.00029404  0.0782584 0.0000
  7   -460.0951562177   0.027029693886 0.00039783  0.00002717  0.0021255 0.0000
  8   -460.0959204618  -0.000764244109 0.00022756  0.00001925  0.0010385 0.0000
  9   -460.0948765286   0.001043933203 0.00016039  0.00000941  0.0003768 0.0000
 10   -460.0949623715  -0.000085842856 0.00002726  0.00000138  0.0000322 0.0000
 11   -460.0949680430  -0.000005671574 0.00000658  0.00000033  0.0000091 0.0000
 12   -460.0949391065   0.000028936569 0.00000169  0.00000007  0.0000015 0.0000
                            ***DIIS convergence achieved***

               *****************************************************
               *                     SUCCESS                       *
               *           SCF CONVERGED AFTER  13 CYCLES          *
               *****************************************************


----------------
TOTAL SCF ENERGY
----------------

Total Energy       :         -460.09494934 Eh          -12519.82007 eV

Components:
Nuclear Repulsion  :            7.07817974 Eh             192.60706 eV
Electronic Energy  :         -467.17312908 Eh          -12712.42713 eV
One Electron Energy:         -649.80885676 Eh          -17682.19794 eV
Two Electron Energy:          182.63572768 Eh            4969.77081 eV

Virial components:
Potential Energy   :         -920.19747871 Eh          -25039.84640 eV
Kinetic Energy     :          460.10252937 Eh           12520.02633 eV
Virial Ratio       :            1.99998353


---------------
SCF CONVERGENCE
---------------

  Last Energy change         ...   -1.0236e-05  Tolerance :   1.0000e-08
  Last MAX-Density change    ...    1.2603e-07  Tolerance :   1.0000e-07
  Last RMS-Density change    ...    7.8663e-09  Tolerance :   5.0000e-09
  Last DIIS Error            ...    3.5314e-07  Tolerance :   5.0000e-07

             **** THE GBW FILE WAS UPDATED (HCl.gbw) ****
             **** DENSITY FILE WAS UPDATED (HCl.scfp) ****
             **** ENERGY FILE WAS UPDATED (HCl.en.tmp) ****
----------------------
UHF SPIN CONTAMINATION
----------------------

Expectation value of <S**2>     :    -0.000000
Ideal value S*(S+1) for S=0.0   :     0.000000
Deviation                       :    -0.000000

             **** THE GBW FILE WAS UPDATED (HCl.gbw) ****
             **** DENSITY FILE WAS UPDATED (HCl.scfp) ****
----------------
ORBITAL ENERGIES
----------------
                 SPIN UP ORBITALS
  NO   OCC          E(Eh)            E(eV) 
   0   1.0000    -104.851312     -2853.1493 
   1   1.0000     -10.577233      -287.8211 
   2   1.0000      -8.045162      -218.9200 
   3   1.0000      -8.042919      -218.8590 
   4   1.0000      -8.042919      -218.8590 
   5   1.0000      -1.120539       -30.4914 
   6   1.0000      -0.630882       -17.1672 
   7   1.0000      -0.478867       -13.0306 
   8   1.0000      -0.478867       -13.0306 
   9   0.0000       0.124674         3.3925 
  10   0.0000       0.284984         7.7548 
  11   0.0000       0.395780        10.7697 
  12   0.0000       0.395780        10.7697 
  13   0.0000       0.405545        11.0354 
  14   0.0000       0.419716        11.4210 
  15   0.0000       0.419716        11.4210 
  16   0.0000       0.428779        11.6677 
  17   0.0000       0.428779        11.6677 
  18   0.0000       0.709185        19.2979 
  19   0.0000       1.084367        29.5071 
  20   0.0000       1.349108        36.7111 
  21   0.0000       1.366648        37.1884 
  22   0.0000       1.366648        37.1884 
  23   0.0000       1.388441        37.7814 
  24   0.0000       1.388441        37.7814 
  25   0.0000       2.204536        59.9885 
  26   0.0000       2.322679        63.2033 
  27   0.0000       2.322679        63.2033 
  28   0.0000       2.362176        64.2781 
  29   0.0000       2.362176        64.2781 
  30   0.0000       2.385344        64.9085 
  31   0.0000       2.385344        64.9085 
  32   0.0000       2.449728        66.6605 
  33   0.0000       2.449728        66.6605 
  34   0.0000       2.473648        67.3114 
  35   0.0000       3.091325        84.1192 
  36   0.0000       5.610720       152.6754 
  37   0.0000       5.610720       152.6754 
  38   0.0000       5.630944       153.2258 
  39   0.0000       5.630944       153.2258 
  40   0.0000       5.683115       154.6454 
  41   0.0000      10.213287       277.9177 
  42   0.0000      26.200697       712.9572 
  43   0.0000      26.200697       712.9572 
  44   0.0000      26.535630       722.0712 
  45   0.0000     219.045339      5960.5267 

                 SPIN DOWN ORBITALS
  NO   OCC          E(Eh)            E(eV) 
   0   1.0000    -104.851312     -2853.1493 
   1   1.0000     -10.577233      -287.8211 
   2   1.0000      -8.045162      -218.9200 
   3   1.0000      -8.042919      -218.8590 
   4   1.0000      -8.042919      -218.8590 
   5   1.0000      -1.120539       -30.4914 
   6   1.0000      -0.630882       -17.1672 
   7   1.0000      -0.478867       -13.0306 
   8   1.0000      -0.478867       -13.0306 
   9   0.0000       0.124674         3.3925 
  10   0.0000       0.284984         7.7548 
  11   0.0000       0.395780        10.7697 
  12   0.0000       0.395780        10.7697 
  13   0.0000       0.405545        11.0354 
  14   0.0000       0.419716        11.4210 
  15   0.0000       0.419716        11.4210 
  16   0.0000       0.428779        11.6677 
  17   0.0000       0.428779        11.6677 
  18   0.0000       0.709185        19.2979 
  19   0.0000       1.084367        29.5071 
  20   0.0000       1.349108        36.7111 
  21   0.0000       1.366648        37.1884 
  22   0.0000       1.366648        37.1884 
  23   0.0000       1.388441        37.7814 
  24   0.0000       1.388441        37.7814 
  25   0.0000       2.204536        59.9885 
  26   0.0000       2.322679        63.2033 
  27   0.0000       2.322679        63.2033 
  28   0.0000       2.362176        64.2781 
  29   0.0000       2.362176        64.2781 
  30   0.0000       2.385344        64.9085 
  31   0.0000       2.385344        64.9085 
  32   0.0000       2.449728        66.6605 
  33   0.0000       2.449728        66.6605 
  34   0.0000       2.473648        67.3114 
  35   0.0000       3.091325        84.1192 
  36   0.0000       5.610720       152.6754 
  37   0.0000       5.610720       152.6754 
  38   0.0000       5.630944       153.2258 
  39   0.0000       5.630944       153.2258 
  40   0.0000       5.683115       154.6454 
  41   0.0000      10.213287       277.9177 
  42   0.0000      26.200697       712.9572 
  43   0.0000      26.200697       712.9572 
  44   0.0000      26.535630       722.0712 
  45   0.0000     219.045339      5960.5267 
------------------
MOLECULAR ORBITALS
------------------
                      0         1         2         3         4         5   
                 -104.85131 -10.57723  -8.04516  -8.04292  -8.04292  -1.12054
                   1.00000   1.00000   1.00000   1.00000   1.00000   1.00000
                  --------  --------  --------  --------  --------  --------
  0Cl  1s         0.411733  0.121942  0.000506  0.000000  0.000000  0.034765
  0Cl  2s         0.654663  0.331495  0.001415  0.000000  0.000000  0.100551
  0Cl  3s         0.012078 -0.511864 -0.002754 -0.000000 -0.000000 -0.198352
  0Cl  4s        -0.000900 -0.605635 -0.002042 -0.000000 -0.000000 -0.398070
  0Cl  5s         0.000209 -0.043042  0.000855 -0.000000  0.000000  0.591770
  0Cl  6s        -0.000142  0.012301 -0.000045  0.000000 -0.000000  0.553769
  0Cl  1pz       -0.000148  0.004021 -1.230115 -0.000000 -0.000000  0.040278
  0Cl  1px       -0.000000 -0.000000  0.000000 -0.260470 -1.203491  0.000000
  0Cl  1py        0.000000  0.000000 -0.000000  1.203491 -0.260470 -0.000000
  0Cl  2pz       -0.000098  0.001051 -0.327093 -0.000000 -0.000000  0.009894
  0Cl  2px       -0.000000 -0.000000  0.000000 -0.069238 -0.319909  0.000000
  0Cl  2py        0.000000  0.000000 -0.000000  0.319909 -0.069238 -0.000000
  0Cl  3pz        0.000092  0.000812 -0.051595 -0.000000 -0.000000 -0.018337
  0Cl  3px        0.000000  0.000000  0.000000 -0.010411 -0.048105 -0.000000
  0Cl  3py       -0.000000 -0.000000 -0.000000  0.048105 -0.010411 -0.000000
  0Cl  4pz       -0.000054  0.000125  0.002940  0.000000  0.000000 -0.076259
  0Cl  4px       -0.000000 -0.000000 -0.000000  0.000460  0.002123  0.000000
  0Cl  4py        0.000000  0.000000  0.000000 -0.002123  0.000460  0.000000
  0Cl  5pz        0.000051 -0.003208 -0.000864  0.000000 -0.000000 -0.031339
  0Cl  5px        0.000000  0.000000  0.000000 -0.000145 -0.000670 -0.000000
  0Cl  5py       -0.000000 -0.000000 -0.000000  0.000670 -0.000145  0.000000
  0Cl  1dz2       0.000001 -0.000608  0.000524  0.000000  0.000000  0.002976
  0Cl  1dxz       0.000000  0.000000 -0.000000  0.000154  0.000711 -0.000000
  0Cl  1dyz       0.000000 -0.000000  0.000000 -0.000711  0.000154  0.000000
  0Cl  1dx2y2    -0.000000  0.000000 -0.000000  0.000000  0.000000  0.000000
  0Cl  1dxy      -0.000000 -0.000000 -0.000000 -0.000000 -0.000000 -0.000000
  0Cl  2dz2       0.000008 -0.000304  0.000276  0.000000 -0.000000  0.027995
  0Cl  2dxz      -0.000000 -0.000000 -0.000000 -0.000017 -0.000077  0.000000
  0Cl  2dyz      -0.000000  0.000000 -0.000000  0.000077 -0.000017 -0.000000
  0Cl  2dx2y2     0.000000 -0.000000  0.000000  0.000000  0.000000  0.000000
  0Cl  2dxy      -0.000000  0.000000  0.000000  0.000000  0.000000 -0.000000
  0Cl  3dz2      -0.000014  0.001621 -0.000176 -0.000000  0.000000  0.021299
  0Cl  3dxz       0.000000  0.000000  0.000000 -0.000000 -0.000002 -0.000000
  0Cl  3dyz      -0.000000 -0.000000  0.000000  0.000002 -0.000000  0.000000
  0Cl  3dx2y2    -0.000000  0.000000 -0.000000  0.000000 -0.000000  0.000000
  0Cl  3dxy      -0.000000 -0.000000  0.000000  0.000000  0.000000  0.000000
  0Cl  1f0        0.000002 -0.000018 -0.000259  0.000000 -0.000000 -0.013927
  0Cl  1f+1       0.000000 -0.000000  0.000000 -0.000031 -0.000143 -0.000000
  0Cl  1f-1      -0.000000 -0.000000  0.000000  0.000143 -0.000031 -0.000000
  0Cl  1f+2      -0.000000 -0.000000  0.000000  0.000000 -0.000000  0.000000
  0Cl  1f-2      -0.000000 -0.000000  0.000000  0.000000  0.000000 -0.000000
  0Cl  1f+3      -0.000000 -0.000000  0.000000  0.000000 -0.000000 -0.000000
  0Cl  1f-3       0.000000  0.000000 -0.000000 -0.000000  0.000000  0.000000
  1H   1s        -0.000007  0.000093  0.000347  0.000000 -0.000000  0.090437
  1H   2s         0.000008 -0.001683  0.000552  0.000000 -0.000000  0.060136
  1H   3s         0.000052 -0.003978 -0.000359  0.000000 -0.000000 -0.016025
                      6         7         8         9        10        11   
                  -0.63088  -0.47887  -0.47887   0.12467   0.28498   0.39578
                   1.00000   1.00000   1.00000   0.00000   0.00000   0.00000
                  --------  --------  --------  --------  --------  --------
  0Cl  1s         0.010353 -0.000000  0.000000 -0.010733  0.000706 -0.000000
  0Cl  2s         0.030240 -0.000000  0.000000 -0.032109  0.001954 -0.000000
  0Cl  3s        -0.062204  0.000000 -0.000000  0.072348 -0.003075  0.000000
  0Cl  4s        -0.118784  0.000000 -0.000000  0.103586 -0.012017  0.000000
  0Cl  5s         0.197762 -0.000000  0.000000 -0.068584  0.024859 -0.000000
  0Cl  6s         0.213569 -0.000000  0.000000 -1.051001 -0.162326 -0.000000
  0Cl  1pz       -0.276709 -0.000000  0.000000 -0.129329  0.047085  0.000000
  0Cl  1px        0.000000 -0.306321 -0.134640  0.000000 -0.000000 -0.040107
  0Cl  1py       -0.000000 -0.134640  0.306321  0.000000  0.000000  0.065278
  0Cl  2pz       -0.066895 -0.000000  0.000000 -0.031217  0.013107  0.000000
  0Cl  2px        0.000000 -0.072901 -0.032043 -0.000000 -0.000000 -0.007221
  0Cl  2py       -0.000000 -0.032043  0.072901  0.000000  0.000000  0.011752
  0Cl  3pz        0.188087  0.000000 -0.000000  0.096566 -0.046902 -0.000000
  0Cl  3px       -0.000000  0.219005  0.096261 -0.000000  0.000000  0.015573
  0Cl  3py        0.000000  0.096261 -0.219005 -0.000000  0.000000 -0.025346
  0Cl  4pz        0.472525  0.000000 -0.000000  0.236009 -0.031521 -0.000000
  0Cl  4px        0.000000  0.550308  0.241882  0.000000 -0.000000  0.176876
  0Cl  4py        0.000000  0.241882 -0.550308 -0.000000 -0.000000 -0.287882
  0Cl  5pz        0.193775  0.000000 -0.000000  0.857387 -0.341032  0.000000
  0Cl  5px       -0.000000  0.310913  0.136658 -0.000000  0.000000 -0.213062
  0Cl  5py        0.000000  0.136658 -0.310913 -0.000000  0.000000  0.346779
  0Cl  1dz2      -0.012451  0.000000 -0.000000  0.010946 -0.048336 -0.000000
  0Cl  1dxz       0.000000 -0.001469 -0.000646 -0.000000 -0.000000  0.030318
  0Cl  1dyz       0.000000 -0.000646  0.001469  0.000000 -0.000000 -0.049345
  0Cl  1dx2y2     0.000000  0.000000 -0.000000 -0.000000  0.000000 -0.000000
  0Cl  1dxy      -0.000000 -0.000000 -0.000000  0.000000 -0.000000 -0.000000
  0Cl  2dz2      -0.064265  0.000000 -0.000000  0.042624 -0.139423 -0.000000
  0Cl  2dxz      -0.000000 -0.008318 -0.003656  0.000000 -0.000000  0.076929
  0Cl  2dyz       0.000000 -0.003656  0.008318  0.000000  0.000000 -0.125209
  0Cl  2dx2y2    -0.000000  0.000000  0.000000 -0.000000 -0.000000 -0.000000
  0Cl  2dxy       0.000000  0.000000  0.000000 -0.000000  0.000000  0.000000
  0Cl  3dz2      -0.045908  0.000000 -0.000000 -0.009210 -0.457864 -0.000000
  0Cl  3dxz      -0.000000 -0.022961 -0.010092 -0.000000 -0.000000  0.447848
  0Cl  3dyz       0.000000 -0.010092  0.022961 -0.000000  0.000000 -0.728915
  0Cl  3dx2y2     0.000000 -0.000000 -0.000000 -0.000000 -0.000000 -0.000000
  0Cl  3dxy       0.000000  0.000000 -0.000000 -0.000000  0.000000 -0.000000
  0Cl  1f0        0.020499 -0.000000  0.000000  0.003461  0.010676  0.000000
  0Cl  1f+1      -0.000000  0.010324  0.004538 -0.000000 -0.000000 -0.008441
  0Cl  1f-1      -0.000000  0.004538 -0.010324 -0.000000 -0.000000  0.013739
  0Cl  1f+2      -0.000000 -0.000000 -0.000000  0.000000  0.000000  0.000000
  0Cl  1f-2      -0.000000  0.000000 -0.000000 -0.000000  0.000000 -0.000000
  0Cl  1f+3      -0.000000 -0.000000 -0.000000  0.000000  0.000000 -0.000000
  0Cl  1f-3      -0.000000  0.000000 -0.000000 -0.000000  0.000000 -0.000000
  1H   1s        -0.157289  0.000000 -0.000000  0.084544 -0.113340 -0.000000
  1H   2s        -0.230776  0.000000 -0.000000  0.087936 -0.687620  0.000000
  1H   3s        -0.023975  0.000000 -0.000000  1.720123  0.903876  0.000000
                     12        13        14        15        16        17   
                   0.39578   0.40554   0.41972   0.41972   0.42878   0.42878
                   0.00000   0.00000   0.00000   0.00000   0.00000   0.00000
                  --------  --------  --------  --------  --------  --------
  0Cl  1s         0.000000 -0.006650 -0.000000 -0.000000 -0.000000  0.000000
  0Cl  2s         0.000000 -0.019494 -0.000000 -0.000000 -0.000000  0.000000
  0Cl  3s        -0.000000  0.040785  0.000000  0.000000  0.000000 -0.000000
  0Cl  4s        -0.000000  0.081310  0.000000  0.000000  0.000000 -0.000000
  0Cl  5s         0.000000 -0.128514 -0.000000 -0.000000 -0.000000 -0.000000
  0Cl  6s         0.000000 -0.504587 -0.000000 -0.000000 -0.000000  0.000000
  0Cl  1pz       -0.000000  0.186696  0.000000  0.000000  0.000000 -0.000000
  0Cl  1px        0.065278  0.000000  0.101651 -0.140842  0.000000  0.000000
  0Cl  1py        0.040107  0.000000 -0.140842 -0.101651 -0.000000  0.000000
  0Cl  2pz       -0.000000  0.032613  0.000000  0.000000  0.000000 -0.000000
  0Cl  2px        0.011752  0.000000  0.015839 -0.021946  0.000000 -0.000000
  0Cl  2py        0.007221  0.000000 -0.021946 -0.015839 -0.000000  0.000000
  0Cl  3pz        0.000000 -0.055942 -0.000000 -0.000000 -0.000000  0.000000
  0Cl  3px       -0.025346 -0.000000 -0.020652  0.028615 -0.000000  0.000000
  0Cl  3py       -0.015573 -0.000000  0.028615  0.020652  0.000000 -0.000000
  0Cl  4pz        0.000000 -0.883437 -0.000000 -0.000000 -0.000000  0.000000
  0Cl  4px       -0.287882 -0.000000 -0.538829  0.746571 -0.000000 -0.000000
  0Cl  4py       -0.176876 -0.000000  0.746571  0.538829  0.000000 -0.000000
  0Cl  5pz       -0.000000  1.703934  0.000000  0.000000  0.000000 -0.000000
  0Cl  5px        0.346779  0.000000  0.693358 -0.960677  0.000000  0.000000
  0Cl  5py        0.213062  0.000000 -0.960677 -0.693358 -0.000000  0.000000
  0Cl  1dz2       0.000000 -0.018655 -0.000000 -0.000000 -0.000000  0.000000
  0Cl  1dxz      -0.049345 -0.000000  0.012791 -0.017722  0.000000 -0.000000
  0Cl  1dyz      -0.030318 -0.000000 -0.017722 -0.012791 -0.000000  0.000000
  0Cl  1dx2y2     0.000000 -0.000000 -0.000000 -0.000000  0.045854 -0.043875
  0Cl  1dxy      -0.000000  0.000000  0.000000 -0.000000 -0.043875 -0.045854
  0Cl  2dz2       0.000000 -0.021155 -0.000000 -0.000000 -0.000000  0.000000
  0Cl  2dxz      -0.125209 -0.000000  0.038128 -0.052828  0.000000 -0.000000
  0Cl  2dyz      -0.076929 -0.000000 -0.052828 -0.038128 -0.000000  0.000000
  0Cl  2dx2y2     0.000000 -0.000000 -0.000000 -0.000000  0.118141 -0.113041
  0Cl  2dxy       0.000000  0.000000  0.000000 -0.000000 -0.113041 -0.118141
  0Cl  3dz2       0.000000 -0.556402 -0.000000 -0.000000 -0.000000  0.000000
  0Cl  3dxz      -0.728915 -0.000000  0.173003 -0.239703  0.000000 -0.000000
  0Cl  3dyz      -0.447848 -0.000000 -0.239703 -0.173003 -0.000000  0.000000
  0Cl  3dx2y2     0.000000 -0.000000 -0.000000 -0.000000  0.652762 -0.624586
  0Cl  3dxy      -0.000000  0.000000  0.000000 -0.000000 -0.624586 -0.652762
  0Cl  1f0       -0.000000  0.013136  0.000000  0.000000  0.000000 -0.000000
  0Cl  1f+1       0.013739 -0.000000 -0.005634  0.007807 -0.000000  0.000000
  0Cl  1f-1       0.008441 -0.000000  0.007807  0.005634  0.000000 -0.000000
  0Cl  1f+2      -0.000000  0.000000  0.000000  0.000000 -0.004043  0.003869
  0Cl  1f-2      -0.000000 -0.000000 -0.000000  0.000000  0.003869  0.004043
  0Cl  1f+3       0.000000 -0.000000  0.000000 -0.000000 -0.000000 -0.000000
  0Cl  1f-3      -0.000000 -0.000000  0.000000  0.000000 -0.000000  0.000000
  1H   1s         0.000000 -0.055511 -0.000000 -0.000000 -0.000000  0.000000
  1H   2s        -0.000000  0.389997  0.000000  0.000000  0.000000 -0.000000
  1H   3s        -0.000000  0.774726  0.000000  0.000000  0.000000 -0.000000
                     18        19        20        21        22        23   
                   0.70918   1.08437   1.34911   1.36665   1.36665   1.38844
                   0.00000   0.00000   0.00000   0.00000   0.00000   0.00000
                  --------  --------  --------  --------  --------  --------
  0Cl  1s        -0.012334  0.032236 -0.006643 -0.000000  0.000000  0.000000
  0Cl  2s        -0.034953  0.087694 -0.017813 -0.000000  0.000000  0.000000
  0Cl  3s         0.062902 -0.124381  0.022737  0.000000 -0.000000 -0.000000
  0Cl  4s         0.193322 -0.666727  0.150822  0.000000 -0.000000 -0.000000
  0Cl  5s        -0.438230  2.504844 -0.594874 -0.000000  0.000000  0.000000
  0Cl  6s        -0.152756 -3.208491  0.833230  0.000000 -0.000000 -0.000000
  0Cl  1pz       -0.145439  0.002732 -0.008318  0.000000 -0.000000  0.000000
  0Cl  1px       -0.000000 -0.000000  0.000000 -0.000372  0.001289 -0.000000
  0Cl  1py        0.000000 -0.000000  0.000000  0.001289  0.000372  0.000000
  0Cl  2pz       -0.026487  0.003394 -0.005975  0.000000  0.000000  0.000000
  0Cl  2px       -0.000000  0.000000 -0.000000  0.000079 -0.000275 -0.000000
  0Cl  2py        0.000000 -0.000000  0.000000 -0.000275 -0.000079  0.000000
  0Cl  3pz        0.045181 -0.028504  0.028865 -0.000000 -0.000000 -0.000000
  0Cl  3px        0.000000  0.000000 -0.000000 -0.000557  0.001931  0.000000
  0Cl  3py       -0.000000  0.000000 -0.000000  0.001931  0.000557 -0.000000
  0Cl  4pz        0.774283  0.115540  0.003803  0.000000  0.000000  0.000000
  0Cl  4px       -0.000000 -0.000000  0.000000  0.004678 -0.016219 -0.000000
  0Cl  4py        0.000000 -0.000000  0.000000 -0.016219 -0.004678  0.000000
  0Cl  5pz        0.253504  1.247570 -0.335532 -0.000000  0.000000  0.000000
  0Cl  5px        0.000000  0.000000 -0.000000 -0.003986  0.013821  0.000000
  0Cl  5py       -0.000000  0.000000 -0.000000  0.013821  0.003986 -0.000000
  0Cl  1dz2      -0.022755 -0.034309 -0.156231  0.000000  0.000000  0.000000
  0Cl  1dxz      -0.000000  0.000000 -0.000000  0.047181 -0.163577 -0.000000
  0Cl  1dyz      -0.000000 -0.000000 -0.000000 -0.163577 -0.047181  0.000000
  0Cl  1dx2y2    -0.000000  0.000000 -0.000000 -0.000000 -0.000000 -0.132216
  0Cl  1dxy      -0.000000 -0.000000  0.000000  0.000000 -0.000000  0.109679
  0Cl  2dz2      -0.047466 -0.182646 -0.976003  0.000000  0.000000  0.000000
  0Cl  2dxz       0.000000 -0.000000 -0.000000  0.277707 -0.962817 -0.000000
  0Cl  2dyz       0.000000 -0.000000 -0.000000 -0.962817 -0.277707  0.000000
  0Cl  2dx2y2     0.000000  0.000000 -0.000000 -0.000000 -0.000000 -0.770093
  0Cl  2dxy       0.000000  0.000000  0.000000  0.000000 -0.000000  0.638824
  0Cl  3dz2      -1.201158 -0.707847  0.766348 -0.000000 -0.000000 -0.000000
  0Cl  3dxz      -0.000000 -0.000000  0.000000 -0.180129  0.624510  0.000000
  0Cl  3dyz      -0.000000 -0.000000  0.000000  0.624510  0.180129 -0.000000
  0Cl  3dx2y2     0.000000 -0.000000  0.000000  0.000000  0.000000  0.502386
  0Cl  3dxy       0.000000 -0.000000 -0.000000 -0.000000  0.000000 -0.416750
  0Cl  1f0        0.019068 -0.010929  0.056602 -0.000000 -0.000000 -0.000000
  0Cl  1f+1      -0.000000 -0.000000  0.000000 -0.005332  0.018487  0.000000
  0Cl  1f-1      -0.000000  0.000000 -0.000000  0.018487  0.005332 -0.000000
  0Cl  1f+2       0.000000  0.000000  0.000000  0.000000 -0.000000  0.006214
  0Cl  1f-2      -0.000000  0.000000  0.000000 -0.000000  0.000000 -0.005155
  0Cl  1f+3       0.000000 -0.000000 -0.000000  0.000000 -0.000000  0.000000
  0Cl  1f-3      -0.000000  0.000000 -0.000000  0.000000 -0.000000  0.000000
  1H   1s         0.069890 -0.037168 -0.185472  0.000000  0.000000  0.000000
  1H   2s         2.145337  1.227382  0.206601  0.000000 -0.000000 -0.000000
  1H   3s        -0.859991  1.057416 -0.667352 -0.000000  0.000000  0.000000
                     24        25        26        27        28        29   
                   1.38844   2.20454   2.32268   2.32268   2.36218   2.36218
                   0.00000   0.00000   0.00000   0.00000   0.00000   0.00000
                  --------  --------  --------  --------  --------  --------
  0Cl  1s         0.000000 -0.003079 -0.000000 -0.000000 -0.000000 -0.000000
  0Cl  2s         0.000000 -0.009752 -0.000000 -0.000000 -0.000000 -0.000000
  0Cl  3s        -0.000000  0.026419  0.000000  0.000000  0.000000  0.000000
  0Cl  4s        -0.000000  0.027169  0.000000  0.000000  0.000000  0.000000
  0Cl  5s         0.000000 -0.258369 -0.000000 -0.000000 -0.000000 -0.000000
  0Cl  6s        -0.000000  0.765144  0.000000  0.000000  0.000000  0.000000
  0Cl  1pz        0.000000 -0.007569  0.000000 -0.000000  0.000000 -0.000000
  0Cl  1px       -0.000000 -0.000000 -0.081910 -0.019368  0.000000 -0.000000
  0Cl  1py       -0.000000  0.000000 -0.019368  0.081910  0.000000 -0.000000
  0Cl  2pz        0.000000  0.001188  0.000000 -0.000000  0.000000 -0.000000
  0Cl  2px       -0.000000 -0.000000 -0.026638 -0.006299  0.000000 -0.000000
  0Cl  2py       -0.000000  0.000000 -0.006299  0.026638  0.000000 -0.000000
  0Cl  3pz       -0.000000  0.040279 -0.000000  0.000000 -0.000000  0.000000
  0Cl  3px        0.000000  0.000000  0.191795  0.045350 -0.000000  0.000000
  0Cl  3py        0.000000 -0.000000  0.045350 -0.191795 -0.000000  0.000000
  0Cl  4pz        0.000000 -0.309282  0.000000 -0.000000  0.000000 -0.000000
  0Cl  4px       -0.000000 -0.000000 -0.168997 -0.039960  0.000000 -0.000000
  0Cl  4py        0.000000  0.000000 -0.039960  0.168997  0.000000 -0.000000
  0Cl  5pz        0.000000 -0.549270 -0.000000  0.000000 -0.000000 -0.000000
  0Cl  5px        0.000000  0.000000  0.056255  0.013302 -0.000000  0.000000
  0Cl  5py       -0.000000 -0.000000  0.013302 -0.056255 -0.000000  0.000000
  0Cl  1dz2       0.000000 -0.080084 -0.000000 -0.000000 -0.000000 -0.000000
  0Cl  1dxz       0.000000 -0.000000 -0.009483 -0.002242  0.000000 -0.000000
  0Cl  1dyz       0.000000 -0.000000 -0.002242  0.009483 -0.000000 -0.000000
  0Cl  1dx2y2    -0.109679 -0.000000  0.000000 -0.000000  0.003169  0.001635
  0Cl  1dxy      -0.132216 -0.000000  0.000000 -0.000000  0.001635 -0.003169
  0Cl  2dz2       0.000000 -0.153841 -0.000000  0.000000 -0.000000 -0.000000
  0Cl  2dxz       0.000000 -0.000000 -0.017984 -0.004252 -0.000000 -0.000000
  0Cl  2dyz       0.000000  0.000000 -0.004252  0.017984  0.000000 -0.000000
  0Cl  2dx2y2    -0.638824 -0.000000 -0.000000 -0.000000  0.006865  0.003543
  0Cl  2dxy      -0.770093 -0.000000  0.000000  0.000000  0.003543 -0.006865
  0Cl  3dz2      -0.000000  0.623959  0.000000 -0.000000  0.000000  0.000000
  0Cl  3dxz      -0.000000  0.000000 -0.005945 -0.001406  0.000000 -0.000000
  0Cl  3dyz      -0.000000 -0.000000 -0.001406  0.005945 -0.000000  0.000000
  0Cl  3dx2y2     0.416750  0.000000  0.000000  0.000000  0.000170  0.000088
  0Cl  3dxy       0.502386  0.000000 -0.000000 -0.000000  0.000088 -0.000170
  0Cl  1f0       -0.000000 -0.717635 -0.000000  0.000000 -0.000000 -0.000000
  0Cl  1f+1      -0.000000  0.000000 -0.967672 -0.228808 -0.000000 -0.000000
  0Cl  1f-1      -0.000000  0.000000 -0.228808  0.967672  0.000000 -0.000000
  0Cl  1f+2       0.005155 -0.000000 -0.000000 -0.000000  0.888615  0.458547
  0Cl  1f-2       0.006214  0.000000  0.000000 -0.000000  0.458547 -0.888615
  0Cl  1f+3      -0.000000  0.000000 -0.000000 -0.000000 -0.000000 -0.000000
  0Cl  1f-3      -0.000000  0.000000 -0.000000 -0.000000 -0.000000 -0.000000
  1H   1s         0.000000  0.965382  0.000000 -0.000000  0.000000  0.000000
  1H   2s        -0.000000 -2.249059 -0.000000 -0.000000  0.000000 -0.000000
  1H   3s         0.000000  0.425882 -0.000000 -0.000000 -0.000000  0.000000
                     30        31        32        33        34        35   
                   2.38534   2.38534   2.44973   2.44973   2.47365   3.09133
                   0.00000   0.00000   0.00000   0.00000   0.00000   0.00000
                  --------  --------  --------  --------  --------  --------
  0Cl  1s        -0.000000 -0.000000  0.000000 -0.000000 -0.001463 -0.001079
  0Cl  2s        -0.000000 -0.000000  0.000000 -0.000000 -0.004138 -0.001973
  0Cl  3s        -0.000000  0.000000 -0.000000  0.000000  0.007314 -0.006746
  0Cl  4s         0.000000  0.000000 -0.000000  0.000000  0.030729  0.063898
  0Cl  5s        -0.000000 -0.000000  0.000000 -0.000000 -0.102023 -0.292059
  0Cl  6s         0.000000  0.000000 -0.000000  0.000000  0.018325  0.331872
  0Cl  1pz        0.000000  0.000000 -0.000000  0.000000  0.746611 -0.274362
  0Cl  1px        0.000000 -0.000000 -0.684903 -0.379575 -0.000000  0.000000
  0Cl  1py       -0.000000 -0.000000  0.379575 -0.684903  0.000000  0.000000
  0Cl  2pz        0.000000  0.000000 -0.000000  0.000000  0.246515 -0.092121
  0Cl  2px        0.000000 -0.000000 -0.226930 -0.125765 -0.000000  0.000000
  0Cl  2py       -0.000000 -0.000000  0.125765 -0.226930  0.000000 -0.000000
  0Cl  3pz       -0.000000 -0.000000  0.000000 -0.000000 -1.833724  0.764004
  0Cl  3px       -0.000000  0.000000  1.660287  0.920135  0.000000  0.000000
  0Cl  3py        0.000000  0.000000 -0.920135  1.660287 -0.000000 -0.000000
  0Cl  4pz        0.000000  0.000000 -0.000000  0.000000  1.896152 -0.756815
  0Cl  4px        0.000000 -0.000000 -1.567091 -0.868486 -0.000000 -0.000000
  0Cl  4py       -0.000000 -0.000000  0.868486 -1.567091  0.000000  0.000000
  0Cl  5pz       -0.000000 -0.000000  0.000000 -0.000000 -0.498045  0.124247
  0Cl  5px       -0.000000  0.000000  0.499764  0.276970  0.000000  0.000000
  0Cl  5py        0.000000  0.000000 -0.276970  0.499764 -0.000000 -0.000000
  0Cl  1dz2      -0.000000  0.000000 -0.000000  0.000000  0.019890  0.104501
  0Cl  1dxz      -0.000000 -0.000000 -0.001761 -0.000976  0.000000  0.000000
  0Cl  1dyz       0.000000  0.000000  0.000976 -0.001761 -0.000000  0.000000
  0Cl  1dx2y2     0.000000 -0.000000  0.000000 -0.000000  0.000000 -0.000000
  0Cl  1dxy      -0.000000  0.000000 -0.000000 -0.000000  0.000000 -0.000000
  0Cl  2dz2      -0.000000 -0.000000  0.000000 -0.000000 -0.005316  0.055405
  0Cl  2dxz      -0.000000  0.000000  0.004314  0.002391  0.000000 -0.000000
  0Cl  2dyz       0.000000 -0.000000 -0.002391  0.004314  0.000000 -0.000000
  0Cl  2dx2y2     0.000000 -0.000000 -0.000000  0.000000  0.000000  0.000000
  0Cl  2dxy       0.000000  0.000000 -0.000000  0.000000 -0.000000  0.000000
  0Cl  3dz2      -0.000000 -0.000000  0.000000 -0.000000 -0.193969  0.168382
  0Cl  3dxz       0.000000 -0.000000 -0.004591 -0.002544  0.000000 -0.000000
  0Cl  3dyz      -0.000000  0.000000  0.002544 -0.004591 -0.000000 -0.000000
  0Cl  3dx2y2     0.000000 -0.000000 -0.000000  0.000000 -0.000000  0.000000
  0Cl  3dxy       0.000000  0.000000  0.000000 -0.000000  0.000000  0.000000
  0Cl  1f0       -0.000000 -0.000000  0.000000 -0.000000 -0.225161 -0.801573
  0Cl  1f+1      -0.000000  0.000000  0.089147  0.049406  0.000000 -0.000000
  0Cl  1f-1       0.000000  0.000000 -0.049406  0.089147 -0.000000 -0.000000
  0Cl  1f+2       0.000000 -0.000000  0.000000  0.000000 -0.000000  0.000000
  0Cl  1f-2      -0.000000  0.000000 -0.000000  0.000000 -0.000000  0.000000
  0Cl  1f+3       0.115938 -0.993256  0.000000  0.000000  0.000000  0.000000
  0Cl  1f-3       0.993256  0.115938  0.000000 -0.000000 -0.000000  0.000000
  1H   1s        -0.000000 -0.000000  0.000000 -0.000000 -0.369563 -1.236321
  1H   2s         0.000000  0.000000 -0.000000  0.000000  0.980120  0.817399
  1H   3s        -0.000000 -0.000000  0.000000 -0.000000 -0.497609 -0.362404
                     36        37        38        39        40        41   
                   5.61072   5.61072   5.63094   5.63094   5.68312  10.21329
                   0.00000   0.00000   0.00000   0.00000   0.00000   0.00000
                  --------  --------  --------  --------  --------  --------
  0Cl  1s        -0.000000 -0.000000  0.000000  0.000000 -0.001322  0.115905
  0Cl  2s        -0.000000 -0.000000 -0.000000  0.000000 -0.004969  0.482456
  0Cl  3s         0.000000  0.000000  0.000000 -0.000000  0.020623 -2.649759
  0Cl  4s        -0.000000 -0.000000 -0.000000  0.000000 -0.009071  3.095161
  0Cl  5s        -0.000000 -0.000000  0.000000  0.000000 -0.044028 -1.748608
  0Cl  6s         0.000000  0.000000 -0.000000 -0.000000  0.143276  1.099000
  0Cl  1pz        0.000000  0.000000 -0.000000  0.000000  0.012239 -0.002756
  0Cl  1px       -0.001665  0.001040 -0.000000 -0.000000 -0.000000 -0.000000
  0Cl  1py       -0.001040 -0.001665 -0.000000  0.000000  0.000000  0.000000
  0Cl  2pz        0.000000  0.000000  0.000000 -0.000000  0.000457 -0.005567
  0Cl  2px       -0.001188  0.000742 -0.000000  0.000000 -0.000000 -0.000000
  0Cl  2py       -0.000742 -0.001188 -0.000000  0.000000  0.000000  0.000000
  0Cl  3pz       -0.000000 -0.000000  0.000000 -0.000000 -0.054657 -0.006716
  0Cl  3px        0.004716 -0.002945 -0.000000  0.000000 -0.000000  0.000000
  0Cl  3py        0.002945  0.004716  0.000000 -0.000000 -0.000000 -0.000000
  0Cl  4pz        0.000000  0.000000 -0.000000  0.000000  0.054047  0.018289
  0Cl  4px       -0.005256  0.003282  0.000000 -0.000000  0.000000 -0.000000
  0Cl  4py       -0.003282 -0.005256 -0.000000  0.000000  0.000000  0.000000
  0Cl  5pz       -0.000000 -0.000000  0.000000 -0.000000 -0.124139 -0.323554
  0Cl  5px        0.001861 -0.001162 -0.000000  0.000000 -0.000000  0.000000
  0Cl  5py        0.001162  0.001861  0.000000 -0.000000 -0.000000 -0.000000
  0Cl  1dz2       0.000000  0.000000 -0.000000  0.000000  1.125422  0.015183
  0Cl  1dxz       0.956757 -0.597493 -0.000000 -0.000000 -0.000000 -0.000000
  0Cl  1dyz       0.597493  0.956757  0.000000  0.000000 -0.000000 -0.000000
  0Cl  1dx2y2    -0.000000  0.000000  0.097649 -1.123482  0.000000  0.000000
  0Cl  1dxy       0.000000 -0.000000  1.123482  0.097649  0.000000  0.000000
  0Cl  2dz2      -0.000000 -0.000000  0.000000 -0.000000 -0.806229 -0.034225
  0Cl  2dxz      -0.663983  0.414656  0.000000  0.000000  0.000000  0.000000
  0Cl  2dyz      -0.414656 -0.663983 -0.000000 -0.000000  0.000000 -0.000000
  0Cl  2dx2y2     0.000000 -0.000000 -0.067922  0.781467 -0.000000 -0.000000
  0Cl  2dxy      -0.000000  0.000000 -0.781467 -0.067922 -0.000000 -0.000000
  0Cl  3dz2       0.000000  0.000000 -0.000000  0.000000  0.294276  0.168639
  0Cl  3dxz       0.212680 -0.132818 -0.000000 -0.000000 -0.000000 -0.000000
  0Cl  3dyz       0.132818  0.212680  0.000000  0.000000 -0.000000  0.000000
  0Cl  3dx2y2    -0.000000  0.000000  0.021737 -0.250095  0.000000  0.000000
  0Cl  3dxy       0.000000 -0.000000  0.250095  0.021737  0.000000 -0.000000
  0Cl  1f0        0.000000  0.000000 -0.000000  0.000000  0.054329 -0.027476
  0Cl  1f+1      -0.003794  0.002370  0.000000  0.000000 -0.000000 -0.000000
  0Cl  1f-1      -0.002370 -0.003794 -0.000000 -0.000000  0.000000  0.000000
  0Cl  1f+2       0.000000  0.000000 -0.000140  0.001611  0.000000 -0.000000
  0Cl  1f-2       0.000000  0.000000 -0.001611 -0.000140 -0.000000 -0.000000
  0Cl  1f+3      -0.000000  0.000000  0.000000  0.000000  0.000000 -0.000000
  0Cl  1f-3      -0.000000 -0.000000  0.000000 -0.000000 -0.000000 -0.000000
  1H   1s         0.000000  0.000000 -0.000000  0.000000  0.262572  0.017495
  1H   2s        -0.000000 -0.000000  0.000000 -0.000000 -0.266949 -0.177716
  1H   3s        -0.000000 -0.000000  0.000000  0.000000 -0.054598 -0.376190
                     42        43        44        45   
                  26.20070  26.20070  26.53563 219.04534
                   0.00000   0.00000   0.00000   0.00000
                  --------  --------  --------  --------
  0Cl  1s         0.000000  0.000000  0.000487  1.542023
  0Cl  2s         0.000000  0.000000  0.001357 -1.914510
  0Cl  3s         0.000000 -0.000000 -0.009501  1.436274
  0Cl  4s        -0.000000  0.000000  0.012793 -0.961565
  0Cl  5s        -0.000000 -0.000000  0.014215  0.397174
  0Cl  6s         0.000000 -0.000000 -0.057772 -0.244356
  0Cl  1pz       -0.000000  0.000000  3.398490 -0.002358
  0Cl  1px        1.839848  2.805516 -0.000000 -0.000000
  0Cl  1py        2.805516 -1.839848  0.000000  0.000000
  0Cl  2pz       -0.000000  0.000000  3.432946 -0.002078
  0Cl  2px        1.864657  2.843347 -0.000000 -0.000000
  0Cl  2py        2.843347 -1.864657  0.000000  0.000000
  0Cl  3pz        0.000000 -0.000000 -2.399840  0.003061
  0Cl  3px       -1.267484 -1.932740  0.000000  0.000000
  0Cl  3py       -1.932740  1.267484 -0.000000 -0.000000
  0Cl  4pz       -0.000000  0.000000  1.223177 -0.004914
  0Cl  4px        0.588328  0.897119 -0.000000 -0.000000
  0Cl  4py        0.897119 -0.588328  0.000000  0.000000
  0Cl  5pz        0.000000 -0.000000 -0.266079  0.072674
  0Cl  5px       -0.156159 -0.238121  0.000000  0.000000
  0Cl  5py       -0.238121  0.156159 -0.000000 -0.000000
  0Cl  1dz2      -0.000000 -0.000000  0.008184 -0.001856
  0Cl  1dxz       0.000171  0.000260 -0.000000 -0.000000
  0Cl  1dyz       0.000260 -0.000171 -0.000000 -0.000000
  0Cl  1dx2y2     0.000000  0.000000 -0.000000  0.000000
  0Cl  1dxy       0.000000 -0.000000 -0.000000 -0.000000
  0Cl  2dz2       0.000000 -0.000000 -0.017376  0.006235
  0Cl  2dxz      -0.000177 -0.000269  0.000000  0.000000
  0Cl  2dyz      -0.000269  0.000177  0.000000  0.000000
  0Cl  2dx2y2    -0.000000 -0.000000  0.000000 -0.000000
  0Cl  2dxy      -0.000000 -0.000000  0.000000 -0.000000
  0Cl  3dz2       0.000000 -0.000000 -0.110428 -0.036891
  0Cl  3dxz       0.000131  0.000199 -0.000000 -0.000000
  0Cl  3dyz       0.000199 -0.000131 -0.000000 -0.000000
  0Cl  3dx2y2     0.000000  0.000000 -0.000000  0.000000
  0Cl  3dxy      -0.000000 -0.000000 -0.000000  0.000000
  0Cl  1f0       -0.000000  0.000000  0.051692  0.005411
  0Cl  1f+1       0.000018  0.000028 -0.000000 -0.000000
  0Cl  1f-1       0.000028 -0.000018  0.000000 -0.000000
  0Cl  1f+2       0.000000  0.000000 -0.000000 -0.000000
  0Cl  1f-2       0.000000 -0.000000 -0.000000 -0.000000
  0Cl  1f+3       0.000000 -0.000000 -0.000000  0.000000
  0Cl  1f-3       0.000000 -0.000000 -0.000000 -0.000000
  1H   1s        -0.000000  0.000000  0.050209 -0.001974
  1H   2s        -0.000000  0.000000  0.266656  0.037238
  1H   3s         0.000000 -0.000000 -0.146733  0.085719

                      0         1         2         3         4         5   
                 -104.85131 -10.57723  -8.04516  -8.04292  -8.04292  -1.12054
                   1.00000   1.00000   1.00000   1.00000   1.00000   1.00000
                  --------  --------  --------  --------  --------  --------
  0Cl  1s         0.411733  0.121942  0.000506  0.000000  0.000000  0.034765
  0Cl  2s         0.654663  0.331495  0.001415  0.000000  0.000000  0.100551
  0Cl  3s         0.012078 -0.511864 -0.002754 -0.000000 -0.000000 -0.198352
  0Cl  4s        -0.000900 -0.605635 -0.002042 -0.000000 -0.000000 -0.398070
  0Cl  5s         0.000209 -0.043042  0.000855 -0.000000  0.000000  0.591770
  0Cl  6s        -0.000142  0.012301 -0.000045  0.000000 -0.000000  0.553769
  0Cl  1pz       -0.000148  0.004021 -1.230115 -0.000000 -0.000000  0.040278
  0Cl  1px       -0.000000 -0.000000  0.000000 -0.260470 -1.203491  0.000000
  0Cl  1py        0.000000  0.000000 -0.000000  1.203491 -0.260470 -0.000000
  0Cl  2pz       -0.000098  0.001051 -0.327093 -0.000000 -0.000000  0.009894
  0Cl  2px       -0.000000 -0.000000  0.000000 -0.069238 -0.319909  0.000000
  0Cl  2py        0.000000  0.000000 -0.000000  0.319909 -0.069238 -0.000000
  0Cl  3pz        0.000092  0.000812 -0.051595 -0.000000 -0.000000 -0.018337
  0Cl  3px        0.000000  0.000000  0.000000 -0.010411 -0.048105 -0.000000
  0Cl  3py       -0.000000 -0.000000 -0.000000  0.048105 -0.010411 -0.000000
  0Cl  4pz       -0.000054  0.000125  0.002940  0.000000  0.000000 -0.076259
  0Cl  4px       -0.000000 -0.000000 -0.000000  0.000460  0.002123  0.000000
  0Cl  4py        0.000000  0.000000  0.000000 -0.002123  0.000460  0.000000
  0Cl  5pz        0.000051 -0.003208 -0.000864  0.000000 -0.000000 -0.031339
  0Cl  5px        0.000000  0.000000  0.000000 -0.000145 -0.000670 -0.000000
  0Cl  5py       -0.000000 -0.000000 -0.000000  0.000670 -0.000145  0.000000
  0Cl  1dz2       0.000001 -0.000608  0.000524  0.000000  0.000000  0.002976
  0Cl  1dxz       0.000000  0.000000 -0.000000  0.000154  0.000711 -0.000000
  0Cl  1dyz       0.000000 -0.000000  0.000000 -0.000711  0.000154  0.000000
  0Cl  1dx2y2    -0.000000  0.000000 -0.000000  0.000000  0.000000  0.000000
  0Cl  1dxy      -0.000000 -0.000000 -0.000000 -0.000000 -0.000000 -0.000000
  0Cl  2dz2       0.000008 -0.000304  0.000276  0.000000 -0.000000  0.027995
  0Cl  2dxz      -0.000000 -0.000000 -0.000000 -0.000017 -0.000077  0.000000
  0Cl  2dyz      -0.000000  0.000000 -0.000000  0.000077 -0.000017 -0.000000
  0Cl  2dx2y2     0.000000 -0.000000  0.000000  0.000000  0.000000  0.000000
  0Cl  2dxy      -0.000000  0.000000  0.000000  0.000000  0.000000 -0.000000
  0Cl  3dz2      -0.000014  0.001621 -0.000176 -0.000000  0.000000  0.021299
  0Cl  3dxz       0.000000  0.000000  0.000000 -0.000000 -0.000002 -0.000000
  0Cl  3dyz      -0.000000 -0.000000  0.000000  0.000002 -0.000000  0.000000
  0Cl  3dx2y2    -0.000000  0.000000 -0.000000  0.000000 -0.000000  0.000000
  0Cl  3dxy      -0.000000 -0.000000  0.000000  0.000000  0.000000  0.000000
  0Cl  1f0        0.000002 -0.000018 -0.000259  0.000000 -0.000000 -0.013927
  0Cl  1f+1       0.000000 -0.000000  0.000000 -0.000031 -0.000143 -0.000000
  0Cl  1f-1      -0.000000 -0.000000  0.000000  0.000143 -0.000031 -0.000000
  0Cl  1f+2      -0.000000 -0.000000  0.000000  0.000000 -0.000000  0.000000
  0Cl  1f-2      -0.000000 -0.000000  0.000000  0.000000  0.000000 -0.000000
  0Cl  1f+3      -0.000000 -0.000000  0.000000  0.000000 -0.000000 -0.000000
  0Cl  1f-3       0.000000  0.000000 -0.000000 -0.000000  0.000000  0.000000
  1H   1s        -0.000007  0.000093  0.000347  0.000000 -0.000000  0.090437
  1H   2s         0.000008 -0.001683  0.000552  0.000000 -0.000000  0.060136
  1H   3s         0.000052 -0.003978 -0.000359  0.000000 -0.000000 -0.016025
                      6         7         8         9        10        11   
                  -0.63088  -0.47887  -0.47887   0.12467   0.28498   0.39578
                   1.00000   1.00000   1.00000   0.00000   0.00000   0.00000
                  --------  --------  --------  --------  --------  --------
  0Cl  1s         0.010353 -0.000000  0.000000 -0.010733  0.000706 -0.000000
  0Cl  2s         0.030240 -0.000000  0.000000 -0.032109  0.001954 -0.000000
  0Cl  3s        -0.062204  0.000000 -0.000000  0.072348 -0.003075  0.000000
  0Cl  4s        -0.118784  0.000000 -0.000000  0.103586 -0.012017  0.000000
  0Cl  5s         0.197762 -0.000000  0.000000 -0.068584  0.024859 -0.000000
  0Cl  6s         0.213569 -0.000000  0.000000 -1.051001 -0.162326 -0.000000
  0Cl  1pz       -0.276709 -0.000000  0.000000 -0.129329  0.047085  0.000000
  0Cl  1px        0.000000 -0.306321 -0.134640  0.000000 -0.000000 -0.040107
  0Cl  1py       -0.000000 -0.134640  0.306321  0.000000  0.000000  0.065278
  0Cl  2pz       -0.066895 -0.000000  0.000000 -0.031217  0.013107  0.000000
  0Cl  2px        0.000000 -0.072901 -0.032043 -0.000000 -0.000000 -0.007221
  0Cl  2py       -0.000000 -0.032043  0.072901  0.000000  0.000000  0.011752
  0Cl  3pz        0.188087  0.000000 -0.000000  0.096566 -0.046902 -0.000000
  0Cl  3px       -0.000000  0.219005  0.096261 -0.000000  0.000000  0.015573
  0Cl  3py        0.000000  0.096261 -0.219005 -0.000000  0.000000 -0.025346
  0Cl  4pz        0.472525  0.000000 -0.000000  0.236009 -0.031521 -0.000000
  0Cl  4px        0.000000  0.550308  0.241882  0.000000 -0.000000  0.176876
  0Cl  4py        0.000000  0.241882 -0.550308 -0.000000 -0.000000 -0.287882
  0Cl  5pz        0.193775  0.000000 -0.000000  0.857387 -0.341032  0.000000
  0Cl  5px       -0.000000  0.310913  0.136658 -0.000000  0.000000 -0.213062
  0Cl  5py        0.000000  0.136658 -0.310913 -0.000000  0.000000  0.346779
  0Cl  1dz2      -0.012451  0.000000 -0.000000  0.010946 -0.048336 -0.000000
  0Cl  1dxz       0.000000 -0.001469 -0.000646 -0.000000 -0.000000  0.030318
  0Cl  1dyz       0.000000 -0.000646  0.001469  0.000000 -0.000000 -0.049345
  0Cl  1dx2y2     0.000000  0.000000 -0.000000 -0.000000  0.000000 -0.000000
  0Cl  1dxy      -0.000000 -0.000000 -0.000000  0.000000 -0.000000 -0.000000
  0Cl  2dz2      -0.064265  0.000000 -0.000000  0.042624 -0.139423 -0.000000
  0Cl  2dxz      -0.000000 -0.008318 -0.003656  0.000000 -0.000000  0.076929
  0Cl  2dyz       0.000000 -0.003656  0.008318  0.000000  0.000000 -0.125209
  0Cl  2dx2y2    -0.000000  0.000000  0.000000 -0.000000 -0.000000 -0.000000
  0Cl  2dxy       0.000000  0.000000  0.000000 -0.000000  0.000000  0.000000
  0Cl  3dz2      -0.045908  0.000000 -0.000000 -0.009210 -0.457864 -0.000000
  0Cl  3dxz      -0.000000 -0.022961 -0.010092 -0.000000 -0.000000  0.447848
  0Cl  3dyz       0.000000 -0.010092  0.022961 -0.000000  0.000000 -0.728915
  0Cl  3dx2y2     0.000000 -0.000000 -0.000000 -0.000000 -0.000000 -0.000000
  0Cl  3dxy       0.000000  0.000000 -0.000000 -0.000000  0.000000 -0.000000
  0Cl  1f0        0.020499 -0.000000  0.000000  0.003461  0.010676  0.000000
  0Cl  1f+1      -0.000000  0.010324  0.004538 -0.000000 -0.000000 -0.008441
  0Cl  1f-1      -0.000000  0.004538 -0.010324 -0.000000 -0.000000  0.013739
  0Cl  1f+2      -0.000000 -0.000000 -0.000000  0.000000  0.000000  0.000000
  0Cl  1f-2      -0.000000  0.000000 -0.000000 -0.000000  0.000000 -0.000000
  0Cl  1f+3      -0.000000 -0.000000 -0.000000  0.000000  0.000000 -0.000000
  0Cl  1f-3      -0.000000  0.000000 -0.000000 -0.000000  0.000000 -0.000000
  1H   1s        -0.157289  0.000000 -0.000000  0.084544 -0.113340 -0.000000
  1H   2s        -0.230776  0.000000 -0.000000  0.087936 -0.687620  0.000000
  1H   3s        -0.023975  0.000000 -0.000000  1.720123  0.903876  0.000000
                     12        13        14        15        16        17   
                   0.39578   0.40554   0.41972   0.41972   0.42878   0.42878
                   0.00000   0.00000   0.00000   0.00000   0.00000   0.00000
                  --------  --------  --------  --------  --------  --------
  0Cl  1s         0.000000 -0.006650 -0.000000 -0.000000 -0.000000  0.000000
  0Cl  2s         0.000000 -0.019494 -0.000000 -0.000000 -0.000000  0.000000
  0Cl  3s        -0.000000  0.040785  0.000000  0.000000  0.000000 -0.000000
  0Cl  4s        -0.000000  0.081310  0.000000  0.000000  0.000000 -0.000000
  0Cl  5s         0.000000 -0.128514 -0.000000 -0.000000 -0.000000 -0.000000
  0Cl  6s         0.000000 -0.504587 -0.000000 -0.000000 -0.000000  0.000000
  0Cl  1pz       -0.000000  0.186696  0.000000  0.000000  0.000000 -0.000000
  0Cl  1px        0.065278  0.000000  0.101651 -0.140842  0.000000  0.000000
  0Cl  1py        0.040107  0.000000 -0.140842 -0.101651 -0.000000  0.000000
  0Cl  2pz       -0.000000  0.032613  0.000000  0.000000  0.000000 -0.000000
  0Cl  2px        0.011752  0.000000  0.015839 -0.021946  0.000000 -0.000000
  0Cl  2py        0.007221  0.000000 -0.021946 -0.015839 -0.000000  0.000000
  0Cl  3pz        0.000000 -0.055942 -0.000000 -0.000000 -0.000000  0.000000
  0Cl  3px       -0.025346 -0.000000 -0.020652  0.028615 -0.000000  0.000000
  0Cl  3py       -0.015573 -0.000000  0.028615  0.020652  0.000000 -0.000000
  0Cl  4pz        0.000000 -0.883437 -0.000000 -0.000000 -0.000000  0.000000
  0Cl  4px       -0.287882 -0.000000 -0.538829  0.746571 -0.000000 -0.000000
  0Cl  4py       -0.176876 -0.000000  0.746571  0.538829  0.000000 -0.000000
  0Cl  5pz       -0.000000  1.703934  0.000000  0.000000  0.000000 -0.000000
  0Cl  5px        0.346779  0.000000  0.693358 -0.960677  0.000000  0.000000
  0Cl  5py        0.213062  0.000000 -0.960677 -0.693358 -0.000000  0.000000
  0Cl  1dz2       0.000000 -0.018655 -0.000000 -0.000000 -0.000000  0.000000
  0Cl  1dxz      -0.049345 -0.000000  0.012791 -0.017722  0.000000 -0.000000
  0Cl  1dyz      -0.030318 -0.000000 -0.017722 -0.012791 -0.000000  0.000000
  0Cl  1dx2y2     0.000000 -0.000000 -0.000000 -0.000000  0.045854 -0.043875
  0Cl  1dxy      -0.000000  0.000000  0.000000 -0.000000 -0.043875 -0.045854
  0Cl  2dz2       0.000000 -0.021155 -0.000000 -0.000000 -0.000000  0.000000
  0Cl  2dxz      -0.125209 -0.000000  0.038128 -0.052828  0.000000 -0.000000
  0Cl  2dyz      -0.076929 -0.000000 -0.052828 -0.038128 -0.000000  0.000000
  0Cl  2dx2y2     0.000000 -0.000000 -0.000000 -0.000000  0.118141 -0.113041
  0Cl  2dxy       0.000000  0.000000  0.000000 -0.000000 -0.113041 -0.118141
  0Cl  3dz2       0.000000 -0.556402 -0.000000 -0.000000 -0.000000  0.000000
  0Cl  3dxz      -0.728915 -0.000000  0.173003 -0.239703  0.000000 -0.000000
  0Cl  3dyz      -0.447848 -0.000000 -0.239703 -0.173003 -0.000000  0.000000
  0Cl  3dx2y2     0.000000 -0.000000 -0.000000 -0.000000  0.652762 -0.624586
  0Cl  3dxy      -0.000000  0.000000  0.000000 -0.000000 -0.624586 -0.652762
  0Cl  1f0       -0.000000  0.013136  0.000000  0.000000  0.000000 -0.000000
  0Cl  1f+1       0.013739 -0.000000 -0.005634  0.007807 -0.000000  0.000000
  0Cl  1f-1       0.008441 -0.000000  0.007807  0.005634  0.000000 -0.000000
  0Cl  1f+2      -0.000000  0.000000  0.000000  0.000000 -0.004043  0.003869
  0Cl  1f-2      -0.000000 -0.000000 -0.000000  0.000000  0.003869  0.004043
  0Cl  1f+3       0.000000 -0.000000  0.000000 -0.000000 -0.000000 -0.000000
  0Cl  1f-3      -0.000000 -0.000000  0.000000  0.000000 -0.000000  0.000000
  1H   1s         0.000000 -0.055511 -0.000000 -0.000000 -0.000000  0.000000
  1H   2s        -0.000000  0.389997  0.000000  0.000000  0.000000 -0.000000
  1H   3s        -0.000000  0.774726  0.000000  0.000000  0.000000 -0.000000
                     18        19        20        21        22        23   
                   0.70918   1.08437   1.34911   1.36665   1.36665   1.38844
                   0.00000   0.00000   0.00000   0.00000   0.00000   0.00000
                  --------  --------  --------  --------  --------  --------
  0Cl  1s        -0.012334  0.032236 -0.006643 -0.000000  0.000000  0.000000
  0Cl  2s        -0.034953  0.087694 -0.017813 -0.000000  0.000000  0.000000
  0Cl  3s         0.062902 -0.124381  0.022737  0.000000 -0.000000 -0.000000
  0Cl  4s         0.193322 -0.666727  0.150822  0.000000 -0.000000 -0.000000
  0Cl  5s        -0.438230  2.504844 -0.594874 -0.000000  0.000000  0.000000
  0Cl  6s        -0.152756 -3.208491  0.833230  0.000000 -0.000000 -0.000000
  0Cl  1pz       -0.145439  0.002732 -0.008318  0.000000 -0.000000  0.000000
  0Cl  1px       -0.000000 -0.000000  0.000000 -0.000372  0.001289 -0.000000
  0Cl  1py        0.000000 -0.000000  0.000000  0.001289  0.000372  0.000000
  0Cl  2pz       -0.026487  0.003394 -0.005975  0.000000  0.000000  0.000000
  0Cl  2px       -0.000000  0.000000 -0.000000  0.000079 -0.000275 -0.000000
  0Cl  2py        0.000000 -0.000000  0.000000 -0.000275 -0.000079  0.000000
  0Cl  3pz        0.045181 -0.028504  0.028865 -0.000000 -0.000000 -0.000000
  0Cl  3px        0.000000  0.000000 -0.000000 -0.000557  0.001931  0.000000
  0Cl  3py       -0.000000  0.000000 -0.000000  0.001931  0.000557 -0.000000
  0Cl  4pz        0.774283  0.115540  0.003803  0.000000  0.000000  0.000000
  0Cl  4px       -0.000000 -0.000000  0.000000  0.004678 -0.016219 -0.000000
  0Cl  4py        0.000000 -0.000000  0.000000 -0.016219 -0.004678  0.000000
  0Cl  5pz        0.253504  1.247570 -0.335532 -0.000000  0.000000  0.000000
  0Cl  5px        0.000000  0.000000 -0.000000 -0.003986  0.013821  0.000000
  0Cl  5py       -0.000000  0.000000 -0.000000  0.013821  0.003986 -0.000000
  0Cl  1dz2      -0.022755 -0.034309 -0.156231  0.000000  0.000000  0.000000
  0Cl  1dxz      -0.000000  0.000000 -0.000000  0.047181 -0.163577 -0.000000
  0Cl  1dyz      -0.000000 -0.000000 -0.000000 -0.163577 -0.047181  0.000000
  0Cl  1dx2y2    -0.000000  0.000000 -0.000000 -0.000000 -0.000000 -0.132216
  0Cl  1dxy      -0.000000 -0.000000  0.000000  0.000000 -0.000000  0.109679
  0Cl  2dz2      -0.047466 -0.182646 -0.976003  0.000000  0.000000  0.000000
  0Cl  2dxz       0.000000 -0.000000 -0.000000  0.277707 -0.962817 -0.000000
  0Cl  2dyz       0.000000 -0.000000 -0.000000 -0.962817 -0.277707  0.000000
  0Cl  2dx2y2     0.000000  0.000000 -0.000000 -0.000000 -0.000000 -0.770093
  0Cl  2dxy       0.000000  0.000000  0.000000  0.000000 -0.000000  0.638824
  0Cl  3dz2      -1.201158 -0.707847  0.766348 -0.000000 -0.000000 -0.000000
  0Cl  3dxz      -0.000000 -0.000000  0.000000 -0.180129  0.624510  0.000000
  0Cl  3dyz      -0.000000 -0.000000  0.000000  0.624510  0.180129 -0.000000
  0Cl  3dx2y2     0.000000 -0.000000  0.000000  0.000000  0.000000  0.502386
  0Cl  3dxy       0.000000 -0.000000 -0.000000 -0.000000  0.000000 -0.416750
  0Cl  1f0        0.019068 -0.010929  0.056602 -0.000000 -0.000000 -0.000000
  0Cl  1f+1      -0.000000 -0.000000  0.000000 -0.005332  0.018487  0.000000
  0Cl  1f-1      -0.000000  0.000000 -0.000000  0.018487  0.005332 -0.000000
  0Cl  1f+2       0.000000  0.000000  0.000000  0.000000 -0.000000  0.006214
  0Cl  1f-2      -0.000000  0.000000  0.000000 -0.000000  0.000000 -0.005155
  0Cl  1f+3       0.000000 -0.000000 -0.000000  0.000000 -0.000000  0.000000
  0Cl  1f-3      -0.000000  0.000000 -0.000000  0.000000 -0.000000  0.000000
  1H   1s         0.069890 -0.037168 -0.185472  0.000000  0.000000  0.000000
  1H   2s         2.145337  1.227382  0.206601  0.000000 -0.000000 -0.000000
  1H   3s        -0.859991  1.057416 -0.667352 -0.000000  0.000000  0.000000
                     24        25        26        27        28        29   
                   1.38844   2.20454   2.32268   2.32268   2.36218   2.36218
                   0.00000   0.00000   0.00000   0.00000   0.00000   0.00000
                  --------  --------  --------  --------  --------  --------
  0Cl  1s         0.000000 -0.003079 -0.000000 -0.000000 -0.000000 -0.000000
  0Cl  2s         0.000000 -0.009752 -0.000000 -0.000000 -0.000000 -0.000000
  0Cl  3s        -0.000000  0.026419  0.000000  0.000000  0.000000  0.000000
  0Cl  4s        -0.000000  0.027169  0.000000  0.000000  0.000000  0.000000
  0Cl  5s         0.000000 -0.258369 -0.000000 -0.000000 -0.000000 -0.000000
  0Cl  6s        -0.000000  0.765144  0.000000  0.000000  0.000000  0.000000
  0Cl  1pz        0.000000 -0.007569  0.000000 -0.000000  0.000000 -0.000000
  0Cl  1px       -0.000000 -0.000000 -0.081910 -0.019368  0.000000 -0.000000
  0Cl  1py       -0.000000  0.000000 -0.019368  0.081910  0.000000 -0.000000
  0Cl  2pz        0.000000  0.001188  0.000000 -0.000000  0.000000 -0.000000
  0Cl  2px       -0.000000 -0.000000 -0.026638 -0.006299  0.000000 -0.000000
  0Cl  2py       -0.000000  0.000000 -0.006299  0.026638  0.000000 -0.000000
  0Cl  3pz       -0.000000  0.040279 -0.000000  0.000000 -0.000000  0.000000
  0Cl  3px        0.000000  0.000000  0.191795  0.045350 -0.000000  0.000000
  0Cl  3py        0.000000 -0.000000  0.045350 -0.191795 -0.000000  0.000000
  0Cl  4pz        0.000000 -0.309282  0.000000 -0.000000  0.000000 -0.000000
  0Cl  4px       -0.000000 -0.000000 -0.168997 -0.039960  0.000000 -0.000000
  0Cl  4py        0.000000  0.000000 -0.039960  0.168997  0.000000 -0.000000
  0Cl  5pz        0.000000 -0.549270 -0.000000  0.000000 -0.000000 -0.000000
  0Cl  5px        0.000000  0.000000  0.056255  0.013302 -0.000000  0.000000
  0Cl  5py       -0.000000 -0.000000  0.013302 -0.056255 -0.000000  0.000000
  0Cl  1dz2       0.000000 -0.080084 -0.000000 -0.000000 -0.000000 -0.000000
  0Cl  1dxz       0.000000 -0.000000 -0.009483 -0.002242  0.000000 -0.000000
  0Cl  1dyz       0.000000 -0.000000 -0.002242  0.009483 -0.000000 -0.000000
  0Cl  1dx2y2    -0.109679 -0.000000  0.000000 -0.000000  0.003169  0.001635
  0Cl  1dxy      -0.132216 -0.000000  0.000000 -0.000000  0.001635 -0.003169
  0Cl  2dz2       0.000000 -0.153841 -0.000000  0.000000 -0.000000 -0.000000
  0Cl  2dxz       0.000000 -0.000000 -0.017984 -0.004252 -0.000000 -0.000000
  0Cl  2dyz       0.000000  0.000000 -0.004252  0.017984  0.000000 -0.000000
  0Cl  2dx2y2    -0.638824 -0.000000 -0.000000 -0.000000  0.006865  0.003543
  0Cl  2dxy      -0.770093 -0.000000  0.000000  0.000000  0.003543 -0.006865
  0Cl  3dz2      -0.000000  0.623959  0.000000 -0.000000  0.000000  0.000000
  0Cl  3dxz      -0.000000  0.000000 -0.005945 -0.001406  0.000000 -0.000000
  0Cl  3dyz      -0.000000 -0.000000 -0.001406  0.005945 -0.000000  0.000000
  0Cl  3dx2y2     0.416750  0.000000  0.000000  0.000000  0.000170  0.000088
  0Cl  3dxy       0.502386  0.000000 -0.000000 -0.000000  0.000088 -0.000170
  0Cl  1f0       -0.000000 -0.717635 -0.000000  0.000000 -0.000000 -0.000000
  0Cl  1f+1      -0.000000  0.000000 -0.967672 -0.228808 -0.000000 -0.000000
  0Cl  1f-1      -0.000000  0.000000 -0.228808  0.967672  0.000000 -0.000000
  0Cl  1f+2       0.005155 -0.000000 -0.000000 -0.000000  0.888615  0.458547
  0Cl  1f-2       0.006214  0.000000  0.000000 -0.000000  0.458547 -0.888615
  0Cl  1f+3      -0.000000  0.000000 -0.000000 -0.000000 -0.000000 -0.000000
  0Cl  1f-3      -0.000000  0.000000 -0.000000 -0.000000 -0.000000 -0.000000
  1H   1s         0.000000  0.965382  0.000000 -0.000000  0.000000  0.000000
  1H   2s        -0.000000 -2.249059 -0.000000 -0.000000  0.000000 -0.000000
  1H   3s         0.000000  0.425882 -0.000000 -0.000000 -0.000000  0.000000
                     30        31        32        33        34        35   
                   2.38534   2.38534   2.44973   2.44973   2.47365   3.09133
                   0.00000   0.00000   0.00000   0.00000   0.00000   0.00000
                  --------  --------  --------  --------  --------  --------
  0Cl  1s        -0.000000 -0.000000  0.000000 -0.000000 -0.001463 -0.001079
  0Cl  2s        -0.000000 -0.000000  0.000000 -0.000000 -0.004138 -0.001973
  0Cl  3s        -0.000000  0.000000 -0.000000  0.000000  0.007314 -0.006746
  0Cl  4s         0.000000  0.000000 -0.000000  0.000000  0.030729  0.063898
  0Cl  5s        -0.000000 -0.000000  0.000000 -0.000000 -0.102023 -0.292059
  0Cl  6s         0.000000  0.000000 -0.000000  0.000000  0.018325  0.331872
  0Cl  1pz        0.000000  0.000000 -0.000000  0.000000  0.746611 -0.274362
  0Cl  1px        0.000000 -0.000000 -0.684903 -0.379575 -0.000000  0.000000
  0Cl  1py       -0.000000 -0.000000  0.379575 -0.684903  0.000000  0.000000
  0Cl  2pz        0.000000  0.000000 -0.000000  0.000000  0.246515 -0.092121
  0Cl  2px        0.000000 -0.000000 -0.226930 -0.125765 -0.000000  0.000000
  0Cl  2py       -0.000000 -0.000000  0.125765 -0.226930  0.000000 -0.000000
  0Cl  3pz       -0.000000 -0.000000  0.000000 -0.000000 -1.833724  0.764004
  0Cl  3px       -0.000000  0.000000  1.660287  0.920135  0.000000  0.000000
  0Cl  3py        0.000000  0.000000 -0.920135  1.660287 -0.000000 -0.000000
  0Cl  4pz        0.000000  0.000000 -0.000000  0.000000  1.896152 -0.756815
  0Cl  4px        0.000000 -0.000000 -1.567091 -0.868486 -0.000000 -0.000000
  0Cl  4py       -0.000000 -0.000000  0.868486 -1.567091  0.000000  0.000000
  0Cl  5pz       -0.000000 -0.000000  0.000000 -0.000000 -0.498045  0.124247
  0Cl  5px       -0.000000  0.000000  0.499764  0.276970  0.000000  0.000000
  0Cl  5py        0.000000  0.000000 -0.276970  0.499764 -0.000000 -0.000000
  0Cl  1dz2      -0.000000  0.000000 -0.000000  0.000000  0.019890  0.104501
  0Cl  1dxz      -0.000000 -0.000000 -0.001761 -0.000976  0.000000  0.000000
  0Cl  1dyz       0.000000  0.000000  0.000976 -0.001761 -0.000000  0.000000
  0Cl  1dx2y2     0.000000 -0.000000  0.000000 -0.000000  0.000000 -0.000000
  0Cl  1dxy      -0.000000  0.000000 -0.000000 -0.000000  0.000000 -0.000000
  0Cl  2dz2      -0.000000 -0.000000  0.000000 -0.000000 -0.005316  0.055405
  0Cl  2dxz      -0.000000  0.000000  0.004314  0.002391  0.000000 -0.000000
  0Cl  2dyz       0.000000 -0.000000 -0.002391  0.004314  0.000000 -0.000000
  0Cl  2dx2y2     0.000000 -0.000000 -0.000000  0.000000  0.000000  0.000000
  0Cl  2dxy       0.000000  0.000000 -0.000000  0.000000 -0.000000  0.000000
  0Cl  3dz2      -0.000000 -0.000000  0.000000 -0.000000 -0.193969  0.168382
  0Cl  3dxz       0.000000 -0.000000 -0.004591 -0.002544  0.000000 -0.000000
  0Cl  3dyz      -0.000000  0.000000  0.002544 -0.004591 -0.000000 -0.000000
  0Cl  3dx2y2     0.000000 -0.000000 -0.000000  0.000000 -0.000000  0.000000
  0Cl  3dxy       0.000000  0.000000  0.000000 -0.000000  0.000000  0.000000
  0Cl  1f0       -0.000000 -0.000000  0.000000 -0.000000 -0.225161 -0.801573
  0Cl  1f+1      -0.000000  0.000000  0.089147  0.049406  0.000000 -0.000000
  0Cl  1f-1       0.000000  0.000000 -0.049406  0.089147 -0.000000 -0.000000
  0Cl  1f+2       0.000000 -0.000000  0.000000  0.000000 -0.000000  0.000000
  0Cl  1f-2      -0.000000  0.000000 -0.000000  0.000000 -0.000000  0.000000
  0Cl  1f+3       0.115938 -0.993256  0.000000  0.000000  0.000000  0.000000
  0Cl  1f-3       0.993256  0.115938  0.000000 -0.000000 -0.000000  0.000000
  1H   1s        -0.000000 -0.000000  0.000000 -0.000000 -0.369563 -1.236321
  1H   2s         0.000000  0.000000 -0.000000  0.000000  0.980120  0.817399
  1H   3s        -0.000000 -0.000000  0.000000 -0.000000 -0.497609 -0.362404
                     36        37        38        39        40        41   
                   5.61072   5.61072   5.63094   5.63094   5.68312  10.21329
[...]
                                         0.0000  0.0000  0.0000  0.0000  0.0000
                                         0.0000  0.0000  0.0073 -0.0365 -0.0985
                                         0.0006  0.0000  0.0000  0.0000  0.0000
                                         0.0000  0.0000  0.0000  0.0000  0.0000
                                         0.0000  0.0000  0.0000  0.0000  0.0155
                                        -0.1387  0.9839  0.0000  0.0000  0.0000
                                         0.0000  0.0000  0.0000  0.0000  0.0000
                                         0.0000  0.0000  0.0372  0.0000  0.0000
                                         0.0000  0.0000  0.0000
  39. (0.00021) RY (29)Cl  1            s(  0.00%)p 1.00(  1.11%)d89.01( 98.75%)
                                                  f 0.12(  0.14%)
                                         0.0000  0.0000  0.0000  0.0000  0.0000
                                         0.0000  0.0000  0.0000  0.0000  0.0000
                                         0.0000  0.0000  0.0073 -0.0365 -0.0985
                                         0.0006  0.0000  0.0000  0.0000  0.0000
                                         0.0000  0.0000  0.0000  0.0000  0.0000
                                         0.0000  0.0000  0.0155 -0.1387  0.9839
                                         0.0000  0.0000  0.0000  0.0000  0.0000
                                         0.0000  0.0000  0.0000  0.0372  0.0000
                                         0.0000  0.0000  0.0000
  40. (0.00010) RY (30)Cl  1            s(  8.00%)p 0.03(  0.24%)d11.04( 88.34%)
                                                  f 0.43(  3.42%)
  41. (0.00002) RY (31)Cl  1            s( 99.80%)p 0.00(  0.05%)d 0.00(  0.14%)
                                                  f 0.00(  0.01%)
  42. (0.00001) RY (32)Cl  1            s(  0.00%)p 1.00(100.00%)d 0.00(  0.00%)
                                                  f 0.00(  0.00%)
  43. (0.00001) RY (33)Cl  1            s(  0.05%)p99.99( 99.94%)d 0.11(  0.01%)
                                                  f 0.07(  0.00%)
  44. (0.00001) RY (34)Cl  1            s(  0.00%)p 1.00(100.00%)d 0.00(  0.00%)
                                                  f 0.00(  0.00%)
  45. (0.00085) RY ( 1) H  2            s(100.00%)
                                         0.0001  1.0000  0.0000
  46. (0.00015) RY ( 2) H  2            s(100.00%)
                                        -0.0002  0.0000  1.0000


 NHO DIRECTIONALITY AND BOND BENDING (deviation from line of nuclear centers at
                                      the position of maximum hybrid amplitude)

         [Thresholds for printing:  angular deviation  >  1.0 degree]
                                    p- or d-character  > 25.0%
                                    orbital occupancy  >  0.10e

                        Line of Centers        Hybrid 1             Hybrid 2
                        ---------------  -------------------  ------------------
           NBO            Theta   Phi    Theta   Phi    Dev   Theta   Phi    Dev
 ===============================================================================
   7. LP ( 2)Cl  1          --     --     93.3  180.0   --      --     --    --
   8. LP ( 3)Cl  1          --     --     93.3   90.0   --      --     --    --


 NATURAL BOND ORBITALS (Summary):

           NBO                 Occupancy
 ========================================
 Molecular unit  1  (HCl)
 ------ Lewis ---------------------------
    1. CR ( 1)Cl  1             0.99997
    2. CR ( 2)Cl  1             0.99962
    3. CR ( 3)Cl  1             0.99918
    4. CR ( 4)Cl  1             0.99918
    5. CR ( 5)Cl  1             0.99913
    6. LP ( 1)Cl  1             0.98775
    7. LP ( 2)Cl  1             0.97891
    8. LP ( 3)Cl  1             0.97891
    9. BD ( 1)Cl  1- H  2       0.98389
 ------ non-Lewis -----------------------
   10. BD*( 1)Cl  1- H  2       0.01080
   11. RY ( 1)Cl  1             0.00847
   12. RY ( 2)Cl  1             0.00847
   13. RY ( 3)Cl  1             0.00817
   14. RY ( 4)Cl  1             0.00817
   15. RY ( 5)Cl  1             0.00589
   16. RY ( 6)Cl  1             0.00481
   17. RY ( 7)Cl  1             0.00481
   18. RY ( 8)Cl  1             0.00336
   19. RY ( 9)Cl  1             0.00121
   20. RY (10)Cl  1             0.00060
   21. RY (11)Cl  1             0.00060
   22. RY (12)Cl  1             0.00054
   23. RY (13)Cl  1             0.00054
   24. RY (14)Cl  1             0.00054
   25. RY (15)Cl  1             0.00054
   26. RY (16)Cl  1             0.00049
   27. RY (17)Cl  1             0.00047
   28. RY (18)Cl  1             0.00047
   29. RY (19)Cl  1             0.00045
   30. RY (20)Cl  1             0.00045
   31. RY (21)Cl  1             0.00036
   32. RY (22)Cl  1             0.00036
   33. RY (23)Cl  1             0.00033
   34. RY (24)Cl  1             0.00032
   35. RY (25)Cl  1             0.00023
   36. RY (26)Cl  1             0.00022
   37. RY (27)Cl  1             0.00022
   38. RY (28)Cl  1             0.00021
   39. RY (29)Cl  1             0.00021
   40. RY (30)Cl  1             0.00010
   41. RY (31)Cl  1             0.00002
   42. RY (32)Cl  1             0.00001
   43. RY (33)Cl  1             0.00001
   44. RY (34)Cl  1             0.00001
   45. RY ( 1) H  2             0.00085
   46. RY ( 2) H  2             0.00015
          -------------------------------
                 Total Lewis    8.92655  ( 99.1839%)
           Valence non-Lewis    0.01080  (  0.1200%)
           Rydberg non-Lewis    0.06265  (  0.6961%)
          -------------------------------
               Total unit  1    9.00000  (100.0000%)
              Charge unit  1    0.00000

 $CHOOSE
  ALPHA
   LONE 1 3 END
   BOND S 1 2 END
  END
  BETA
   LONE 1 3 END
   BOND S 1 2 END
  END
 $END

 NBO analysis completed in 0.12 CPU seconds (1 wall second)
 Maximum scratch memory used by NBO was 548483 words (4.18 MB)
Stopping NBO...Storing NBOs: HCl.pmp2re.nbo

                                *** returned from   NBO  program ***


----------------------------------
MP2 DERIVATIVE INTEGRAL GENERATION
----------------------------------


Input Wavefunction Amplitudes       ... HCl.mp2tbb.tmp
Input Correlated Electron Density   ... HCl.pmp2re
Input Energy Weighted Density       ... HCl.wmp2.tmp
Input SCF Electron Density          ... HCl.scfp

One-Electron Terms    ...
                        ... One-Electron Terms done
Prescreening matrices              ... done

Batch handling in the gradient evaluation:
Memory available                      ... 3000.0 MB
Memory per occupied orbital in Q2     ...    0.3 MB
Memory per occupied orbital in Q3     ...    0.0 MB
Total memory requirement per |i>      ...    0.3 MB
Max. Number of orbitals possible      ...   9747
Number of orbitals treated per batch  ...     18
Number of batches to be done          ...      1
Batch   0: i=    0 ...    17

---------------------------------------
MP2 TOTAL ENERGY:     -460.381583686 Eh
---------------------------------------

-----------------------------------
NORM OF THE MP2 GRADIENT:  0.000001
-----------------------------------

-------------------------   --------------------
FINAL SINGLE POINT ENERGY      -460.381583686363
-------------------------   --------------------

                                *** OPTIMIZATION RUN DONE ***

                            ***************************************
                            *     ORCA property calculations      *
                            ***************************************

                                    ---------------------
                                    Active property flags
                                    ---------------------
   (+) Dipole Moment


------------------------------------------------------------------------------
                       ORCA ELECTRIC PROPERTIES CALCULATION
------------------------------------------------------------------------------

Dipole Moment Calculation                       ... on
Quadrupole Moment Calculation                   ... off
Polarizability Calculation                      ... off
GBWName                                         ... HCl.gbw
Electron density file                           ... HCl.scfp
The origin for moment calculation is the CENTER OF MASS  = ( 0.000000,  0.000000  0.002911)

-------------
DIPOLE MOMENT
-------------
                                X             Y             Z
Electronic contribution:      0.00000       0.00000       0.74128
Nuclear contribution   :      0.00000       0.00000      -1.21119
                        -----------------------------------------
Total Dipole Moment    :      0.00000       0.00000      -0.46991
                        -----------------------------------------
Magnitude (a.u.)       :      0.46991
Magnitude (Debye)      :      1.19441



--------------------
Rotational spectrum 
--------------------
 
Rotational constants in cm-1:     0.000000    10.566633    10.566633 
Rotational constants in MHz :     0.000000 316779.697783 316779.697783 

 Dipole components along the rotational axes: 
x,y,z [a.u.] :    -0.469909     0.000000     0.000000 
x,y,z [Debye]:    -1.194414     0.000000     0.000000 

 

                         *** MP2 UNRELAXED DENSITY ***

------------------------------------------------------------------------------
                       ORCA ELECTRIC PROPERTIES CALCULATION
------------------------------------------------------------------------------

Dipole Moment Calculation                       ... on
Quadrupole Moment Calculation                   ... off
Polarizability Calculation                      ... off
GBWName                                         ... HCl.gbw
Electron density file                           ... HCl.pmp2ur
The origin for moment calculation is the CENTER OF MASS  = ( 0.000000,  0.000000  0.002911)

-------------
DIPOLE MOMENT
-------------
                                X             Y             Z
Electronic contribution:      0.00000      -0.00000       0.74118
Nuclear contribution   :      0.00000       0.00000      -1.21119
                        -----------------------------------------
Total Dipole Moment    :      0.00000      -0.00000      -0.47001
                        -----------------------------------------
Magnitude (a.u.)       :      0.47001
Magnitude (Debye)      :      1.19467



--------------------
Rotational spectrum 
--------------------
 
Rotational constants in cm-1:     0.000000    10.566633    10.566633 
Rotational constants in MHz :     0.000000 316779.697783 316779.697783 

 Dipole components along the rotational axes: 
x,y,z [a.u.] :    -0.470010    -0.000000     0.000000 
x,y,z [Debye]:    -1.194672    -0.000000     0.000000 

 

                           *** MP2 RELAXED DENSITY ***

------------------------------------------------------------------------------
                       ORCA ELECTRIC PROPERTIES CALCULATION
------------------------------------------------------------------------------

Dipole Moment Calculation                       ... on
Quadrupole Moment Calculation                   ... off
Polarizability Calculation                      ... off
GBWName                                         ... HCl.gbw
Electron density file                           ... HCl.pmp2re
The origin for moment calculation is the CENTER OF MASS  = ( 0.000000,  0.000000  0.002911)

-------------
DIPOLE MOMENT
-------------
                                X             Y             Z
Electronic contribution:      0.00000      -0.00000       0.73764
Nuclear contribution   :      0.00000       0.00000      -1.21119
                        -----------------------------------------
Total Dipole Moment    :      0.00000      -0.00000      -0.47355
                        -----------------------------------------
Magnitude (a.u.)       :      0.47355
Magnitude (Debye)      :      1.20366



--------------------
Rotational spectrum 
--------------------
 
Rotational constants in cm-1:     0.000000    10.566633    10.566633 
Rotational constants in MHz :     0.000000 316779.697783 316779.697783 

 Dipole components along the rotational axes: 
x,y,z [a.u.] :    -0.473547    -0.000000     0.000000 
x,y,z [Debye]:    -1.203661    -0.000000     0.000000 

 
------------------------------------------------------------------------------
                         ORCA MP2 H E S S I A N CALCULATION
------------------------------------------------------------------------------

Calculating analytic MP2 second derivatives ... (>HCl.last_mp2) done
Warning: T+R mode no 5 is zero 

-----------------------
VIBRATIONAL FREQUENCIES
-----------------------

Scaling factor for frequencies =  1.000000000  (already applied!)

   0:         0.00 cm**-1
   1:         0.00 cm**-1
   2:         0.00 cm**-1
   3:         0.00 cm**-1
   4:         0.00 cm**-1
   5:      3013.82 cm**-1


------------
NORMAL MODES
------------

These modes are the Cartesian displacements weighted by the diagonal matrix
M(i,i)=1/sqrt(m[i]) where m[i] is the mass of the displaced atom
Thus, these vectors are normalized but *not* orthogonal

                  0          1          2          3          4          5    
      0       0.000000   0.000000   0.000000   0.000000   0.000000   0.000000
      1       0.000000   0.000000   0.000000   0.000000   0.000000   0.000000
      2       0.000000   0.000000   0.000000   0.000000   0.000000   0.028421
      3       0.000000   0.000000   0.000000   0.000000   0.000000   0.000000
      4       0.000000   0.000000   0.000000   0.000000   0.000000   0.000000
      5       0.000000   0.000000   0.000000   0.000000   0.000000  -0.999596


-----------
IR SPECTRUM
-----------

 Mode    freq (cm**-1)   T**2         TX         TY         TZ
-------------------------------------------------------------------
   5:      3013.82   59.556685  ( -0.000000  -0.000000  -7.717298)

The first frequency considered to be a vibration is 5
The total number of vibrations considered is 1


--------------------------
THERMOCHEMISTRY AT 298.15K
--------------------------

Temperature         ... 298.15 K
Pressure            ... 1.00 atm
Total Mass          ... 36.46 AMU
The molecule is recognized as being linear

Throughout the following assumptions are being made:
  (1) The electronic state is orbitally nondegenerate
  (2) There are no thermally accessible electronically excited states
  (3) Hindered rotations indicated by low frequency modes are not
      treated as such but are treated as vibrations and this may
      cause some error
  (4) All equations used are the standard statistical mechanics
      equations for an ideal gas
  (5) All vibrations are strictly harmonic

freq.    3013.82  E(vib)   ...       0.00 

------------
INNER ENERGY
------------

The inner energy is: U= E(el) + E(ZPE) + E(vib) + E(rot) + E(trans)
    E(el)   - is the total energy from the electronic structure calculation
              = E(kin-el) + E(nuc-el) + E(el-el) + E(nuc-nuc)
    E(ZPE)  - the the zero temperature vibrational energy from the frequency calculation
    E(vib)  - the the finite temperature correction to E(ZPE) due to population
              of excited vibrational states
    E(rot)  - is the rotational thermal energy
    E(trans)- is the translational thermal energy

Summary of contributions to the inner energy U:
Electronic energy                ...   -460.38158369 Eh
Zero point energy                ...      0.00686598 Eh       4.31 kcal/mol
Thermal vibrational correction   ...      0.00000001 Eh       0.00 kcal/mol
Thermal rotational correction    ...      0.00094418 Eh       0.59 kcal/mol
Thermal translational correction ...      0.00141627 Eh       0.89 kcal/mol
-----------------------------------------------------------------------
Total thermal energy                   -460.37235725 Eh


Summary of corrections to the electronic energy:
(perhaps to be used in another calculation)
Total thermal correction                  0.00236046 Eh       1.48 kcal/mol
Non-thermal (ZPE) correction              0.00686598 Eh       4.31 kcal/mol
-----------------------------------------------------------------------
Total correction                          0.00922644 Eh       5.79 kcal/mol


--------
ENTHALPY
--------

The enthalpy is H = U + kB*T
                kB is Boltzmann's constant
Total free energy                 ...   -460.37235725 Eh 
Thermal Enthalpy correction       ...      0.00094421 Eh       0.59 kcal/mol
-----------------------------------------------------------------------
Total Enthalpy                    ...   -460.37141304 Eh


Note: Rotational entropy computed according to Herzberg 
Infrared and Raman Spectra, Chapter V,1, Van Nostrand Reinhold, 1945 
Point Group:  Cinfv, Symmetry Number:   1  
Rotational constants in cm-1:     0.000000    10.566633    10.566633 

Vibrational entropy computed according to the QRRHO of S. Grimme
Chem.Eur.J. 2012 18 9955


-------
ENTROPY
-------

The entropy contributions are T*S = T*(S(el)+S(vib)+S(rot)+S(trans))
     S(el)   - electronic entropy
     S(vib)  - vibrational entropy
     S(rot)  - rotational entropy
     S(trans)- translational entropy
The entropies will be listed as mutliplied by the temperature to get
units of energy

Electronic entropy                ...      0.00000000 Eh      0.00 kcal/mol
Vibrational entropy               ...      0.00000001 Eh      0.00 kcal/mol
Rotational entropy                ...      0.00375417 Eh      2.36 kcal/mol
Translational entropy             ...      0.01744233 Eh     10.95 kcal/mol
-----------------------------------------------------------------------
Final entropy term                ...      0.02119650 Eh     13.30 kcal/mol

In case the symmetry of your molecule has not been determined correctly
or in case you have a reason to use a different symmetry number we print 
out the resulting rotational entropy values for sn=1,12 :
 --------------------------------------------------------
|  sn= 1 | S(rot)=             -inf Eh      -inf kcal/mol|
|  sn= 2 | S(rot)=             -inf Eh      -inf kcal/mol|
|  sn= 3 | S(rot)=             -inf Eh      -inf kcal/mol|
|  sn= 4 | S(rot)=             -inf Eh      -inf kcal/mol|
|  sn= 5 | S(rot)=             -inf Eh      -inf kcal/mol|
|  sn= 6 | S(rot)=             -inf Eh      -inf kcal/mol|
|  sn= 7 | S(rot)=             -inf Eh      -inf kcal/mol|
|  sn= 8 | S(rot)=             -inf Eh      -inf kcal/mol|
|  sn= 9 | S(rot)=             -inf Eh      -inf kcal/mol|
|  sn=10 | S(rot)=             -inf Eh      -inf kcal/mol|
|  sn=11 | S(rot)=             -inf Eh      -inf kcal/mol|
|  sn=12 | S(rot)=             -inf Eh      -inf kcal/mol|
 --------------------------------------------------------


-------------------
GIBBS FREE ENERGY
-------------------

The Gibbs free energy is G = H - T*S

Total enthalpy                    ...   -460.37141304 Eh 
Total entropy correction          ...     -0.02119650 Eh    -13.30 kcal/mol
-----------------------------------------------------------------------
Final Gibbs free energy         ...   -460.39260954 Eh

For completeness - the Gibbs free energy minus the electronic energy
G-E(el)                           ...     -0.01102585 Eh     -6.92 kcal/mol


Timings for individual modules:

Sum of individual times         ...      133.704 sec (=   2.228 min)
GTO integral calculation        ...        9.821 sec (=   0.164 min)   7.3 %
SCF iterations                  ...       37.448 sec (=   0.624 min)  28.0 %
MP2 module                      ...       42.094 sec (=   0.702 min)  31.5 %
Geometry relaxation             ...        0.063 sec (=   0.001 min)   0.0 %
Analytical frequency calculation...       44.278 sec (=   0.738 min)  33.1 %
                             ****ORCA TERMINATED NORMALLY****
TOTAL RUN TIME: 0 days 0 hours 2 minutes 15 seconds 230 msec
