
                                 *****************
                                 * O   R   C   A *
                                 *****************

           --- An Ab Initio, DFT and Semiempirical electronic structure package ---

                  #######################################################
                  #                        -***-                        #
                  #          Department of theory and spectroscopy      #
                  #               Directorship: Frank Neese             #
                  #        Max Planck Institute fuer Kohlenforschung    #
                  #                Kaiser Wilhelm Platz 1               #
                  #                 D-45470 Muelheim/Ruhr               #
                  #                      Germany                        #
                  #                                                     #
                  #                  All rights reserved                #
                  #                        -***-                        #
                  #######################################################


                         Program Version 4.2.1 -  RELEASE  -


 With contributions from (in alphabetic order):
   Daniel Aravena         : Magnetic Suceptibility
   Michael Atanasov       : Ab Initio Ligand Field Theory (pilot matlab implementation)
   Alexander A. Auer      : GIAO ZORA, VPT2
   Ute Becker             : Parallelization
   Giovanni Bistoni       : ED, misc. LED, open-shell LED, HFLD
   Martin Brehm           : Molecular dynamics
   Dmytro Bykov           : SCF Hessian
   Vijay G. Chilkuri      : MRCI spin determinant printing, contributions to CSF-ICE
   Dipayan Datta          : RHF DLPNO-CCSD density
   Achintya Kumar Dutta   : EOM-CC, STEOM-CC
   Dmitry Ganyushin       : Spin-Orbit,Spin-Spin,Magnetic field MRCI
   Miquel Garcia          : C-PCM Hessian, Gaussian charge scheme
   Yang Guo               : DLPNO-NEVPT2, CIM, IAO-localization
   Andreas Hansen         : Spin unrestricted coupled pair/coupled cluster methods
   Benjamin Helmich-Paris : CASSCF linear response (MC-RPA)
   Lee Huntington         : MR-EOM, pCC
   Robert Izsak           : Overlap fitted RIJCOSX, COSX-SCS-MP3, EOM
   Christian Kollmar      : KDIIS, OOCD, Brueckner-CCSD(T), CCSD density
   Simone Kossmann        : Meta GGA functionals, TD-DFT gradient, OOMP2, MP2 Hessian
   Martin Krupicka        : AUTO-CI
   Lucas Lang             : DCDCAS
   Dagmar Lenk            : GEPOL surface, SMD
   Dimitrios Liakos       : Extrapolation schemes; Compound Job, initial MDCI parallelization
   Dimitrios Manganas     : Further ROCIS development; embedding schemes
   Dimitrios Pantazis     : SARC Basis sets
   Taras Petrenko         : DFT Hessian,TD-DFT gradient, ASA, ECA, R-Raman, ABS, FL, XAS/XES, NRVS
   Peter Pinski           : DLPNO-MP2, DLPNO-MP2 Gradient
   Christoph Reimann      : Effective Core Potentials
   Marius Retegan         : Local ZFS, SOC
   Christoph Riplinger    : Optimizer, TS searches, QM/MM, DLPNO-CCSD(T), (RO)-DLPNO pert. Triples
   Tobias Risthaus        : Range-separated hybrids, TD-DFT gradient, RPA, STAB
   Michael Roemelt        : Original ROCIS implementation
   Masaaki Saitow         : Open-shell DLPNO-CCSD energy and density
   Barbara Sandhoefer     : DKH picture change effects
   Avijit Sen             : IP-ROCIS
   Kantharuban Sivalingam : CASSCF convergence, NEVPT2, FIC-MRCI
   Bernardo de Souza      : ESD, SOC TD-DFT
   Georgi Stoychev        : AutoAux, RI-MP2 NMR
   Willem Van den Heuvel  : Paramagnetic NMR
   Boris Wezisla          : Elementary symmetry handling
   Frank Wennmohs         : Technical directorship


 We gratefully acknowledge several colleagues who have allowed us to
 interface, adapt or use parts of their codes:
   Stefan Grimme, W. Hujo, H. Kruse,             : VdW corrections, initial TS optimization,
                  C. Bannwarth                     DFT functionals, gCP, sTDA/sTD-DF
   Ed Valeev, F. Pavosevic, A. Kumar             : LibInt (2-el integral package), F12 methods
   Garnet Chan, S. Sharma, J. Yang, R. Olivares  : DMRG
   Ulf Ekstrom                                   : XCFun DFT Library
   Mihaly Kallay                                 : mrcc  (arbitrary order and MRCC methods)
   Andreas Klamt, Michael Diedenhofen            : otool_cosmo (COSMO solvation model)
   Jiri Pittner, Ondrej Demel                    : Mk-CCSD
   Frank Weinhold                                : gennbo (NPA and NBO analysis)
   Christopher J. Cramer and Donald G. Truhlar   : smd solvation model
   Lars Goerigk                                  : TD-DFT with DH, B97 family of functionals
   V. Asgeirsson, H. Jonsson                     : NEB implementation
   FAccTs GmbH                                   : IRC, NEB, NEB-TS, Multilevel, MM, QM/MM, CI optimization
   S Lehtola, MJT Oliveira, MAL Marques          : LibXC Library


 Your calculation uses the libint2 library for the computation of 2-el integrals
 For citations please refer to: http://libint.valeyev.net

 Your ORCA version has been built with support for libXC version: 4.2.3
 For citations please refer to: https://tddft.org/programs/libxc/

 This ORCA versions uses:
   CBLAS   interface :  Fast vector & matrix operations
   LAPACKE interface :  Fast linear algebra routines
   SCALAPACK package :  Parallel linear algebra routines


----- Orbital basis set information -----
Your calculation utilizes the basis: 6-311G(3df)
   H, Li - Ne  : R. Krishnan, J. S. Binkley, R. Seeger and J. A. Pople, J. Chem. Phys. 72, 650 (1980).
   Na - Ar     : A. D. McLean and G. S. Chandler J. Chem. Phys. 72, 5639, (1980).
   K  - Ca     : J.-P. Blaudeau, M. P. McGrath, L. A. Curtiss and L. Radom, J. Chem. Phys. 107, 5016 (1997).
   Ga - Kr     : L. A. Curtiss, M. P. McGrath, J.-P. Blandeau, N. E. Davis, R. C. Binning and L. Radom, J. Chem. Phys. 103, 6104 (1995).
   Pol./Diff.
   H, Li - Cl  : T. Clark, J. Chandrasekhar and P. v. R. Schleyer, J. Comp. Chem. 4, 294 (1983).
   H - Ne      : M. J. Frisch, J. A. Pople and J. S. Binkley, J. Chem. Phys. 80, 3265 (1984).

================================================================================
                                        WARNINGS
                       Please study these warnings very carefully!
================================================================================


WARNING: Geometry Optimization
  ===> : Switching off AutoStart
         For restart on a previous wavefunction, please use MOREAD

WARNING: Post HF methods need fully converged wavefunctions
  ===> : Setting SCFConvForced true
         You can overwrite this default with %scf ConvForced false 


INFO   : the flag for use of LIBINT has been found!

================================================================================
                                       INPUT FILE
================================================================================
NAME = methane.inp
|  1> ! UHF MP2 6-311G(3df) Opt Freq NoFrozenCore TightOpt TightSCF Grid4 FinalGrid5 PrintBasis PrintMOs NBO
|  2> %maxcore 3000
|  3> 
|  4> *xyz 0 1
|  5> C        0.000000000      0.000000000      0.000000000
|  6> H       -0.625911000     -0.625911000      0.625911000
|  7> H        0.625911000     -0.625911000     -0.625911000
|  8> H       -0.625911000      0.625911000     -0.625911000
|  9> H        0.625911000      0.625911000      0.625911000
| 10> *
| 11> 
| 12> %pal
| 13>  nprocs 12
| 14> end
| 15> 
| 16>                          ****END OF INPUT****
================================================================================

                       *****************************
                       * Geometry Optimization Run *
                       *****************************

Geometry optimization settings:
Update method            Update   .... BFGS
Choice of coordinates    CoordSys .... Z-matrix Internals
Initial Hessian          InHess   .... Almoef's Model

Convergence Tolerances:
Energy Change            TolE     ....  1.0000e-06 Eh
Max. Gradient            TolMAXG  ....  1.0000e-04 Eh/bohr
RMS Gradient             TolRMSG  ....  3.0000e-05 Eh/bohr
Max. Displacement        TolMAXD  ....  1.0000e-03 bohr
RMS Displacement         TolRMSD  ....  6.0000e-04 bohr
Strict Convergence                ....  False
------------------------------------------------------------------------------
                        ORCA OPTIMIZATION COORDINATE SETUP
------------------------------------------------------------------------------

The optimization will be done in new redundant internal coordinates
Making redundant internal coordinates   ...  (new redundants) done
Evaluating the initial hessian          ...  (Almloef) done
Evaluating the coordinates              ...  done
Calculating the B-matrix                .... done
Calculating the G-matrix                .... done
Diagonalizing the G-matrix              .... done
The first mode is                       ....    1
The number of degrees of freedom        ....    9

    -----------------------------------------------------------------
                    Redundant Internal Coordinates


    -----------------------------------------------------------------
         Definition                    Initial Value    Approx d2E/dq
    -----------------------------------------------------------------
      1. B(H   1,C   0)                  1.0841         0.367977   
      2. B(H   2,C   0)                  1.0841         0.367977   
      3. B(H   3,C   0)                  1.0841         0.367977   
      4. B(H   4,C   0)                  1.0841         0.367977   
      5. A(H   1,C   0,H   3)          109.4712         0.292826   
      6. A(H   2,C   0,H   3)          109.4712         0.292826   
      7. A(H   1,C   0,H   4)          109.4712         0.292826   
      8. A(H   2,C   0,H   4)          109.4712         0.292826   
      9. A(H   3,C   0,H   4)          109.4712         0.292826   
     10. A(H   1,C   0,H   2)          109.4712         0.292826   
    -----------------------------------------------------------------

Number of atoms                         .... 5
Number of degrees of freedom            .... 10

         *************************************************************
         *                GEOMETRY OPTIMIZATION CYCLE   1            *
         *************************************************************
---------------------------------
CARTESIAN COORDINATES (ANGSTROEM)
---------------------------------
  C      0.000000    0.000000    0.000000
  H     -0.625911   -0.625911    0.625911
  H      0.625911   -0.625911   -0.625911
  H     -0.625911    0.625911   -0.625911
  H      0.625911    0.625911    0.625911

----------------------------
CARTESIAN COORDINATES (A.U.)
----------------------------
  NO LB      ZA    FRAG     MASS         X           Y           Z
   0 C     6.0000    0    12.011    0.000000    0.000000    0.000000
   1 H     1.0000    0     1.008   -1.182800   -1.182800    1.182800
   2 H     1.0000    0     1.008    1.182800   -1.182800   -1.182800
   3 H     1.0000    0     1.008   -1.182800    1.182800   -1.182800
   4 H     1.0000    0     1.008    1.182800    1.182800    1.182800

--------------------------------
INTERNAL COORDINATES (ANGSTROEM)
--------------------------------
 C      0   0   0     0.000000000000     0.00000000     0.00000000
 H      1   0   0     1.084109653016     0.00000000     0.00000000
 H      1   2   0     1.084109653016   109.47122063     0.00000000
 H      1   2   3     1.084109653016   109.47122063   120.00000000
 H      1   2   3     1.084109653016   109.47122063   240.00000000

---------------------------
INTERNAL COORDINATES (A.U.)
---------------------------
 C      0   0   0     0.000000000000     0.00000000     0.00000000
 H      1   0   0     2.048670343341     0.00000000     0.00000000
 H      1   2   0     2.048670343341   109.47122063     0.00000000
 H      1   2   3     2.048670343341   109.47122063   120.00000000
 H      1   2   3     2.048670343341   109.47122063   240.00000000

---------------------
BASIS SET INFORMATION
---------------------
There are 2 groups of distinct atoms

 Group   1 Type C   : 11s5p3d1f contracted to 4s3p3d1f pattern {6311/311/111/1}
 Group   2 Type H   : 5s contracted to 3s pattern {311}

Atom   0C    basis set group =>   1
Atom   1H    basis set group =>   2
Atom   2H    basis set group =>   2
Atom   3H    basis set group =>   2
Atom   4H    basis set group =>   2

-------------------------
BASIS SET IN INPUT FORMAT
-------------------------

 # Basis set for element : H 
 NewGTO H 
 S 3 
   1      33.8650000000      0.0254938145
   2       5.0947900000      0.1903731086
   3       1.1587900000      0.8521614860
 S 1 
   1       0.3258400000      1.0000000000
 S 1 
   1       0.1027410000      1.0000000000
  end;

 # Basis set for element : C 
 NewGTO C 
 S 6 
   1    4563.2400000000      0.0019666502
   2     682.0240000000      0.0152306019
   3     154.9730000000      0.0761269097
   4      44.4553000000      0.2608010331
   5      13.0290000000      0.6164620782
   6       1.8277300000      0.2210060280
 S 3 
   1      20.9642000000      0.1146600807
   2       4.8033100000      0.9199996477
   3       1.4593300000     -0.0030306821
 P 3 
   1      20.9642000000      0.0402486927
   2       4.8033100000      0.2375939567
   3       1.4593300000      0.8158538515
 S 1 
   1       0.4834560000      1.0000000000
 P 1 
   1       0.4834560000      1.0000000000
 S 1 
   1       0.1455850000      1.0000000000
 P 1 
   1       0.1455850000      1.0000000000
 D 1 
   1       2.5040000000      1.0000000000
 D 1 
   1       0.6260000000      1.0000000000
 D 1 
   1       0.1565000000      1.0000000000
 F 1 
   1       0.8000000000      1.0000000000
  end;



           ************************************************************
           *        Program running with 12 parallel MPI-processes    *
           *              working on a common directory               *
           ************************************************************
------------------------------------------------------------------------------
                           ORCA GTO INTEGRAL CALCULATION
------------------------------------------------------------------------------

                         BASIS SET STATISTICS AND STARTUP INFO

 # of primitive gaussian shells          ...   40
 # of primitive gaussian functions       ...   68
 # of contracted shells                  ...   23
 # of contracted basis functions         ...   47
 Highest angular momentum                ...    3
 Maximum contraction depth               ...    6
 Integral package used                   ... LIBINT
 Integral threshhold            Thresh   ...  2.500e-11
 Primitive cut-off              TCut     ...  2.500e-12


------------------------------ INTEGRAL EVALUATION ----------------------------


 * One electron integrals 
 Pre-screening matrix                    ... done
 Shell pair data                         ... done (   0.013 sec)



           ************************************************************
           *        Program running with 12 parallel MPI-processes    *
           *              working on a common directory               *
           ************************************************************
-------------------------------------------------------------------------------
                                 ORCA SCF
-------------------------------------------------------------------------------

------------
SCF SETTINGS
------------
Hamiltonian:
 Ab initio Hamiltonian  Method          .... Hartree-Fock(GTOs)


General Settings:
 Integral files         IntName         .... methane
 Hartree-Fock type      HFTyp           .... UHF
 Total Charge           Charge          ....    0
 Multiplicity           Mult            ....    1
 Number of Electrons    NEL             ....   10
 Basis Dimension        Dim             ....   47
 Nuclear Repulsion      ENuc            ....     13.5083883574 Eh

Convergence Acceleration:
 DIIS                   CNVDIIS         .... on
   Start iteration      DIISMaxIt       ....    12
   Startup error        DIISStart       ....  0.200000
   # of expansion vecs  DIISMaxEq       ....     5
   Bias factor          DIISBfac        ....   1.050
   Max. coefficient     DIISMaxC        ....  10.000
 Newton-Raphson         CNVNR           .... off
 SOSCF                  CNVSOSCF        .... off
 Level Shifting         CNVShift        .... on
   Level shift para.    LevelShift      ....    0.2500
   Turn off err/grad.   ShiftErr        ....    0.0010
 Zerner damping         CNVZerner       .... off
 Static damping         CNVDamp         .... on
   Fraction old density DampFac         ....    0.7000
   Max. Damping (<1)    DampMax         ....    0.9800
   Min. Damping (>=0)   DampMin         ....    0.0000
   Turn off err/grad.   DampErr         ....    0.1000
 Fernandez-Rico         CNVRico         .... off

SCF Procedure:
 Maximum # iterations   MaxIter         ....   125
 SCF integral mode      SCFMode         .... Direct
   Integral package                     .... LIBINT
 Reset frequency        DirectResetFreq ....    20
 Integral Threshold     Thresh          ....  2.500e-11 Eh
 Primitive CutOff       TCut            ....  2.500e-12 Eh

Convergence Tolerance:
 Convergence Check Mode ConvCheckMode   .... Total+1el-Energy
 Convergence forced     ConvForced      .... 1
 Energy Change          TolE            ....  1.000e-08 Eh
 1-El. energy change                    ....  1.000e-05 Eh
 DIIS Error             TolErr          ....  5.000e-07


Diagonalization of the overlap matrix:
Smallest eigenvalue                        ... 1.291e-02
Time for diagonalization                   ...    0.019 sec
Threshold for overlap eigenvalues          ... 1.000e-08
Number of eigenvalues below threshold      ... 0
Time for construction of square roots      ...    0.013 sec
Total time needed                          ...    0.033 sec

-------------------
DFT GRID GENERATION
-------------------

General Integration Accuracy     IntAcc      ...  4.670
Radial Grid Type                 RadialGrid  ... Gauss-Chebyshev
Angular Grid (max. acc.)         AngularGrid ... Lebedev-302
Angular grid pruning method      GridPruning ... 3 (G Style)
Weight generation scheme         WeightScheme... Becke
Basis function cutoff            BFCut       ...    1.0000e-11
Integration weight cutoff        WCut        ...    1.0000e-14
Grids for H and He will be reduced by one unit

# of grid points (after initial pruning)     ...  19788 (   0.0 sec)
# of grid points (after weights+screening)   ...  19276 (   0.1 sec)
nearest neighbour list constructed           ...    0.0 sec
Grid point re-assignment to atoms done       ...    0.0 sec
Grid point division into batches done        ...    0.3 sec
Reduced shell lists constructed in    0.3 sec

Total number of grid points                  ...    19276
Total number of batches                      ...      303
Average number of points per batch           ...       63
Average number of grid points per atom       ...     3855
Average number of shells per batch           ...    22.15 (96.30%)
Average number of basis functions per batch  ...    45.26 (96.30%)
Average number of large shells per batch     ...    22.15 (100.00%)
Average number of large basis fcns per batch ...    45.26 (100.00%)
Maximum spatial batch extension              ...   1.44,  1.38,  1.38 au
Average spatial batch extension              ...   0.09,  0.09,  0.09 au

Time for grid setup =    0.787 sec

------------------------------
INITIAL GUESS: MODEL POTENTIAL
------------------------------
Loading Hartree-Fock densities                     ... done
Calculating cut-offs                               ... done
Setting up the integral package                    ... done
Initializing the effective Hamiltonian             ... done
Starting the Coulomb interaction                   ... done (   0.0 sec)
Reading the grid                                   ... done
Mapping shells                                     ... done
Starting the XC term evaluation                    ... done (   0.1 sec)
Transforming the Hamiltonian                       ... done (   0.0 sec)
Diagonalizing the Hamiltonian                      ... done (   0.0 sec)
Back transforming the eigenvectors                 ... done (   0.0 sec)
Now organizing SCF variables                       ... done
                      ------------------
                      INITIAL GUESS DONE (   1.3 sec)
                      ------------------
--------------
SCF ITERATIONS
--------------
ITER       Energy         Delta-E        Max-DP      RMS-DP      [F,P]     Damp
               ***  Starting incremental Fock matrix formation  ***
  0    -40.0908588877   0.000000000000 0.03256862  0.00115504  0.3129441 0.7000
  1    -40.1329322502  -0.042073362492 0.02265031  0.00087082  0.1998830 0.7000
                               ***Turning on DIIS***
  2    -40.1578610803  -0.024928830085 0.01300090  0.00053915  0.1170711 0.7000
  3    -40.3440301244  -0.186169044156 0.01566657  0.00089754  0.0668630 0.0000
  4    -40.1862988998   0.157731224627 0.00500162  0.00018228  0.0102833 0.0000
  5    -40.2059733501  -0.019674450354 0.00092400  0.00004314  0.0025772 0.0000
  6    -40.2058307806   0.000142569546 0.00024614  0.00002063  0.0009286 0.0000
  7    -40.2059127154  -0.000081934776 0.00002895  0.00000255  0.0000985 0.0000
  8    -40.2060185632  -0.000105847796 0.00000549  0.00000038  0.0000086 0.0000
                            ***DIIS convergence achieved***

               *****************************************************
               *                     SUCCESS                       *
               *           SCF CONVERGED AFTER   9 CYCLES          *
               *****************************************************


----------------
TOTAL SCF ENERGY
----------------

Total Energy       :          -40.20602292 Eh           -1094.06150 eV

Components:
Nuclear Repulsion  :           13.50838836 Eh             367.58193 eV
Electronic Energy  :          -53.71441128 Eh           -1461.64344 eV
One Electron Energy:          -79.85006338 Eh           -2172.83069 eV
Two Electron Energy:           26.13565209 Eh             711.18725 eV

Virial components:
Potential Energy   :          -80.43076276 Eh           -2188.63232 eV
Kinetic Energy     :           40.22473984 Eh            1094.57082 eV
Virial Ratio       :            1.99953469


---------------
SCF CONVERGENCE
---------------

  Last Energy change         ...   -4.3615e-06  Tolerance :   1.0000e-08
  Last MAX-Density change    ...    1.2430e-06  Tolerance :   1.0000e-07
  Last RMS-Density change    ...    6.1046e-08  Tolerance :   5.0000e-09
  Last DIIS Error            ...    5.0013e-07  Tolerance :   5.0000e-07

             **** THE GBW FILE WAS UPDATED (methane.gbw) ****
             **** DENSITY FILE WAS UPDATED (methane.scfp) ****
             **** ENERGY FILE WAS UPDATED (methane.en.tmp) ****
----------------------
UHF SPIN CONTAMINATION
----------------------

Expectation value of <S**2>     :     0.000000
Ideal value S*(S+1) for S=0.0   :     0.000000
Deviation                       :     0.000000

             **** THE GBW FILE WAS UPDATED (methane.gbw) ****
             **** DENSITY FILE WAS UPDATED (methane.scfp) ****
----------------
ORBITAL ENERGIES
----------------
                 SPIN UP ORBITALS
  NO   OCC          E(Eh)            E(eV) 
   0   1.0000     -11.202985      -304.8487 
   1   1.0000      -0.945311       -25.7232 
   2   1.0000      -0.547028       -14.8854 
   3   1.0000      -0.547028       -14.8854 
   4   1.0000      -0.547028       -14.8854 
   5   0.0000       0.161720         4.4006 
   6   0.0000       0.228391         6.2148 
   7   0.0000       0.228391         6.2148 
   8   0.0000       0.228391         6.2148 
   9   0.0000       0.361393         9.8340 
  10   0.0000       0.361393         9.8340 
  11   0.0000       0.361393         9.8340 
  12   0.0000       0.426528        11.6064 
  13   0.0000       0.426528        11.6064 
  14   0.0000       0.756755        20.5924 
  15   0.0000       0.799715        21.7614 
  16   0.0000       0.799715        21.7614 
  17   0.0000       0.799715        21.7614 
  18   0.0000       0.876952        23.8631 
  19   0.0000       0.876952        23.8631 
  20   0.0000       0.876952        23.8631 
  21   0.0000       0.987002        26.8577 
  22   0.0000       1.803429        49.0738 
  23   0.0000       1.803429        49.0738 
  24   0.0000       1.803429        49.0738 
  25   0.0000       1.808142        49.2021 
  26   0.0000       1.808142        49.2021 
  27   0.0000       2.380486        64.7763 
  28   0.0000       2.830559        77.0234 
  29   0.0000       2.830559        77.0234 
  30   0.0000       2.830559        77.0234 
  31   0.0000       3.029315        82.4319 
  32   0.0000       3.029315        82.4319 
  33   0.0000       3.029315        82.4319 
  34   0.0000       3.196066        86.9694 
  35   0.0000       3.196066        86.9694 
  36   0.0000       3.196066        86.9694 
  37   0.0000       4.038697       109.8985 
  38   0.0000       4.038697       109.8985 
  39   0.0000       4.038697       109.8985 
  40   0.0000       4.378607       119.1480 
  41   0.0000       7.441442       202.4919 
  42   0.0000       7.441442       202.4919 
  43   0.0000       7.674087       208.8225 
  44   0.0000       7.674087       208.8225 
  45   0.0000       7.674087       208.8225 
  46   0.0000      24.566971       668.5013 

                 SPIN DOWN ORBITALS
  NO   OCC          E(Eh)            E(eV) 
   0   1.0000     -11.202985      -304.8487 
   1   1.0000      -0.945311       -25.7232 
   2   1.0000      -0.547028       -14.8854 
   3   1.0000      -0.547028       -14.8854 
   4   1.0000      -0.547028       -14.8854 
   5   0.0000       0.161720         4.4006 
   6   0.0000       0.228391         6.2148 
   7   0.0000       0.228391         6.2148 
   8   0.0000       0.228391         6.2148 
   9   0.0000       0.361393         9.8340 
  10   0.0000       0.361393         9.8340 
  11   0.0000       0.361393         9.8340 
  12   0.0000       0.426528        11.6064 
  13   0.0000       0.426528        11.6064 
  14   0.0000       0.756755        20.5924 
  15   0.0000       0.799715        21.7614 
  16   0.0000       0.799715        21.7614 
  17   0.0000       0.799715        21.7614 
  18   0.0000       0.876952        23.8631 
  19   0.0000       0.876952        23.8631 
  20   0.0000       0.876952        23.8631 
  21   0.0000       0.987002        26.8577 
  22   0.0000       1.803429        49.0738 
  23   0.0000       1.803429        49.0738 
  24   0.0000       1.803429        49.0738 
  25   0.0000       1.808142        49.2021 
  26   0.0000       1.808142        49.2021 
  27   0.0000       2.380486        64.7763 
  28   0.0000       2.830559        77.0234 
  29   0.0000       2.830559        77.0234 
  30   0.0000       2.830559        77.0234 
  31   0.0000       3.029315        82.4319 
  32   0.0000       3.029315        82.4319 
  33   0.0000       3.029315        82.4319 
  34   0.0000       3.196066        86.9694 
  35   0.0000       3.196066        86.9694 
  36   0.0000       3.196066        86.9694 
  37   0.0000       4.038697       109.8985 
  38   0.0000       4.038697       109.8985 
  39   0.0000       4.038697       109.8985 
  40   0.0000       4.378607       119.1480 
  41   0.0000       7.441442       202.4919 
  42   0.0000       7.441442       202.4919 
  43   0.0000       7.674087       208.8225 
  44   0.0000       7.674087       208.8225 
  45   0.0000       7.674087       208.8225 
  46   0.0000      24.566971       668.5013 
------------------
MOLECULAR ORBITALS
------------------
                      0         1         2         3         4         5   
                 -11.20299  -0.94531  -0.54703  -0.54703  -0.54703   0.16172
                   1.00000   1.00000   1.00000   1.00000   1.00000   0.00000
                  --------  --------  --------  --------  --------  --------
  0C   1s         0.563318  0.103435 -0.000000 -0.000000  0.000000 -0.048634
  0C   2s         0.466518  0.174681 -0.000000 -0.000000  0.000000 -0.077564
  0C   1pz        0.000000  0.000000  0.160953 -0.008604  0.092259  0.000000
  0C   1px       -0.000000 -0.000000  0.018733 -0.178076 -0.049289  0.000000
  0C   1py        0.000000 -0.000000 -0.090746 -0.052023  0.153462  0.000000
  0C   3s         0.004404 -0.443791  0.000000  0.000000 -0.000000  0.057323
  0C   2pz       -0.000000  0.000000  0.281855 -0.015068  0.161560 -0.000000
  0C   2px       -0.000000 -0.000000  0.032805 -0.311840 -0.086314 -0.000000
  0C   2py        0.000000 -0.000000 -0.158910 -0.091100  0.268736 -0.000000
  0C   4s        -0.000556 -0.392143 -0.000000 -0.000000  0.000000  2.187502
  0C   3pz       -0.000000 -0.000000  0.219418 -0.011730  0.125771  0.000000
  0C   3px        0.000000  0.000000  0.025538 -0.242761 -0.067193  0.000000
  0C   3py       -0.000000  0.000000 -0.123708 -0.070919  0.209205 -0.000000
  0C   1dz2       0.000000 -0.000000 -0.000000 -0.000000 -0.000000 -0.000000
  0C   1dxz      -0.000000 -0.000000 -0.002545 -0.001459  0.004304  0.000000
  0C   1dyz      -0.000000 -0.000000  0.000525 -0.004995 -0.001383  0.000000
  0C   1dx2y2    -0.000000  0.000000  0.000000 -0.000000 -0.000000 -0.000000
  0C   1dxy       0.000000  0.000000  0.004515 -0.000241  0.002588  0.000000
  0C   2dz2      -0.000000  0.000000  0.000000  0.000000 -0.000000 -0.000000
  0C   2dxz      -0.000000  0.000000 -0.019906 -0.011412  0.033663 -0.000000
  0C   2dyz       0.000000  0.000000  0.004109 -0.039063 -0.010812 -0.000000
  0C   2dx2y2     0.000000 -0.000000 -0.000000 -0.000000 -0.000000  0.000000
  0C   2dxy      -0.000000 -0.000000  0.035307 -0.001887  0.020238 -0.000000
  0C   3dz2       0.000000 -0.000000  0.000000 -0.000000 -0.000000 -0.000000
  0C   3dxz      -0.000000  0.000000 -0.012207 -0.006998  0.020643 -0.000000
  0C   3dyz      -0.000000  0.000000  0.002520 -0.023954 -0.006630 -0.000000
  0C   3dx2y2    -0.000000  0.000000  0.000000  0.000000 -0.000000  0.000000
  0C   3dxy      -0.000000 -0.000000  0.021651 -0.001157  0.012410  0.000000
  0C   1f0        0.000000  0.000000 -0.003180  0.000170 -0.001823 -0.000000
  0C   1f+1      -0.000000  0.000000  0.000227 -0.002155 -0.000596 -0.000000
  0C   1f-1       0.000000  0.000000 -0.001098 -0.000629  0.001857 -0.000000
  0C   1f+2       0.000000 -0.000000  0.000000  0.000000 -0.000000  0.000000
  0C   1f-2       0.000473 -0.018374 -0.000000 -0.000000  0.000000  0.016544
  0C   1f+3       0.000000  0.000000  0.000293 -0.002781 -0.000770 -0.000000
  0C   1f-3       0.000000 -0.000000  0.001417  0.000813 -0.002397  0.000000
  1H   1s         0.000212 -0.082690  0.127531  0.121251 -0.006522 -0.012552
  1H   2s         0.000024 -0.073953  0.155732  0.148064 -0.007964  0.002372
  1H   3s         0.000155  0.004061  0.062489  0.059412 -0.003196 -0.786698
  2H   1s         0.000212 -0.082690 -0.028178 -0.064295 -0.161495 -0.012552
  2H   2s         0.000024 -0.073953 -0.034409 -0.078512 -0.197207  0.002372
  2H   3s         0.000155  0.004061 -0.013807 -0.031504 -0.079131 -0.786698
  3H   1s         0.000212 -0.082690 -0.148041  0.073715  0.060486 -0.012552
  3H   2s         0.000024 -0.073953 -0.180777  0.090016  0.073861  0.002372
  3H   3s         0.000155  0.004061 -0.072539  0.036120  0.029638 -0.786698
  4H   1s         0.000212 -0.082690  0.048688 -0.130672  0.107531 -0.012552
  4H   2s         0.000024 -0.073953  0.059454 -0.159567  0.131309  0.002372
  4H   3s         0.000155  0.004061  0.023857 -0.064028  0.052689 -0.786698
                      6         7         8         9        10        11   
                   0.22839   0.22839   0.22839   0.36139   0.36139   0.36139
                   0.00000   0.00000   0.00000   0.00000   0.00000   0.00000
                  --------  --------  --------  --------  --------  --------
  0C   1s        -0.000000  0.000000 -0.000000  0.000000  0.000000  0.000000
  0C   2s        -0.000000 -0.000000 -0.000000  0.000000  0.000000  0.000000
  0C   1pz       -0.046985  0.052966 -0.103396 -0.036746  0.012659  0.010522
  0C   1px       -0.091592  0.051720  0.068116 -0.003719 -0.031456  0.024858
  0C   1py       -0.071464 -0.101110 -0.019321 -0.016036 -0.021714 -0.029877
  0C   3s         0.000000  0.000000  0.000000 -0.000000 -0.000000 -0.000000
  0C   2pz       -0.037794  0.042605 -0.083169 -0.025921  0.008930  0.007423
  0C   2px       -0.073674  0.041602  0.054791 -0.002623 -0.022190  0.017535
  0C   2py       -0.057484 -0.081331 -0.015542 -0.011312 -0.015317 -0.021075
  0C   4s         0.000000 -0.000000  0.000000  0.000000  0.000000  0.000000
  0C   3pz       -0.624192  0.703655 -1.373606  0.019442 -0.006698 -0.005567
  0C   3px       -1.216790  0.687096  0.904909  0.001968  0.016644 -0.013152
  0C   3py       -0.949392 -1.343245 -0.256681  0.008484  0.011489  0.015808
  0C   1dz2       0.000000  0.000000 -0.000000  0.000000 -0.000000  0.000000
  0C   1dxz      -0.000341 -0.000483 -0.000092  0.005977  0.008093  0.011136
  0C   1dyz      -0.000437  0.000247  0.000325  0.001386  0.011724 -0.009265
  0C   1dx2y2     0.000000  0.000000 -0.000000  0.000000 -0.000000  0.000000
  0C   1dxy      -0.000224  0.000253 -0.000494  0.013696 -0.004718 -0.003922
  0C   2dz2       0.000000 -0.000000 -0.000000 -0.000000  0.000000  0.000000
  0C   2dxz       0.000156  0.000220  0.000042  0.003846  0.005208  0.007166
  0C   2dyz       0.000200 -0.000113 -0.000148  0.000892  0.007545 -0.005962
  0C   2dx2y2     0.000000 -0.000000 -0.000000  0.000000 -0.000000 -0.000000
  0C   2dxy       0.000102 -0.000115  0.000225  0.008814 -0.003036 -0.002524
  0C   3dz2       0.000000 -0.000000  0.000000  0.000000 -0.000000  0.000000
  0C   3dxz      -0.247070 -0.349567 -0.066799  0.388199  0.525650  0.723266
  0C   3dyz      -0.316658  0.178810  0.235494  0.090027  0.761509 -0.601764
  0C   3dx2y2    -0.000000  0.000000 -0.000000  0.000000 -0.000000  0.000000
  0C   3dxy      -0.162440  0.183120 -0.357468  0.889560 -0.306458 -0.254729
  0C   1f0        0.004012 -0.004523  0.008828 -0.014235  0.004904  0.004076
  0C   1f+1      -0.004789  0.002704  0.003562  0.000882  0.007462 -0.005897
  0C   1f-1      -0.003737 -0.005287 -0.001010  0.003804  0.005151  0.007088
  0C   1f+2       0.000000 -0.000000  0.000000 -0.000000  0.000000  0.000000
  0C   1f-2      -0.000000 -0.000000 -0.000000  0.000000  0.000000  0.000000
  0C   1f+3      -0.006183  0.003491  0.004598  0.001139  0.009634 -0.007613
  0C   1f-3       0.004824  0.006825  0.001304 -0.004911 -0.006650 -0.009150
  1H   1s         0.005828  0.005139 -0.007641  0.025648 -0.099367 -0.023459
  1H   2s        -0.097114 -0.085640  0.127335  0.013659 -0.052919 -0.012493
  1H   3s        -1.496802 -1.319955  1.962584 -0.166915  0.646672  0.152670
  2H   1s         0.001348  0.005014  0.009581 -0.074059  0.033815 -0.066737
  2H   2s        -0.022471 -0.083555 -0.159666 -0.039441  0.018009 -0.035541
  2H   3s        -0.346338 -1.287807 -2.460902  0.481969 -0.220066  0.434317
  3H   1s         0.003370 -0.010333  0.000801 -0.036875  0.004402  0.098503
  3H   2s        -0.056152  0.172187 -0.013353 -0.019638  0.002344  0.052459
  3H   3s        -0.865461  2.653876 -0.205802  0.239979 -0.028648 -0.641049
  4H   1s        -0.010546  0.000180 -0.002741  0.085286  0.061150 -0.008307
  4H   2s         0.175738 -0.002992  0.045684  0.045420  0.032566 -0.004424
  4H   3s         2.708601 -0.046114  0.704120 -0.555033 -0.397958  0.054062
                     12        13        14        15        16        17   
                   0.42653   0.42653   0.75676   0.79972   0.79972   0.79972
                   0.00000   0.00000   0.00000   0.00000   0.00000   0.00000
                  --------  --------  --------  --------  --------  --------
  0C   1s        -0.000000 -0.000000 -0.062365  0.000000  0.000000 -0.000000
  0C   2s        -0.000000 -0.000000 -0.122184  0.000000  0.000000 -0.000000
  0C   1pz        0.000000  0.000000 -0.000000 -0.031448 -0.141688  0.150763
  0C   1px       -0.000000  0.000000  0.000000 -0.040302 -0.145378 -0.145034
  0C   1py        0.000000 -0.000000 -0.000000 -0.202931  0.050830  0.005440
  0C   3s        -0.000000  0.000000  0.323582 -0.000000 -0.000000  0.000000
  0C   2pz       -0.000000  0.000000 -0.000000 -0.151422 -0.682224  0.725920
  0C   2px       -0.000000  0.000000 -0.000000 -0.194053 -0.699992 -0.698335
  0C   2py        0.000000 -0.000000 -0.000000 -0.977104  0.244743  0.026193
  0C   4s         0.000000 -0.000000  2.598874  0.000000 -0.000000  0.000000
  0C   3pz       -0.000000  0.000000  0.000000  0.569102  2.564057 -2.728282
  0C   3px        0.000000 -0.000000 -0.000000  0.729323  2.630837  2.624609
  0C   3py        0.000000 -0.000000 -0.000000  3.672328 -0.919836 -0.098444
  0C   1dz2       0.014319  0.004243 -0.000000 -0.000000  0.000000 -0.000000
  0C   1dxz      -0.000000  0.000000  0.000000 -0.002096  0.000525  0.000056
  0C   1dyz       0.000000 -0.000000  0.000000 -0.000416 -0.001501 -0.001498
  0C   1dx2y2     0.004243 -0.014319 -0.000000 -0.000000  0.000000  0.000000
  0C   1dxy      -0.000000 -0.000000 -0.000000 -0.000325 -0.001463  0.001557
  0C   2dz2      -0.008091 -0.002397 -0.000000 -0.000000 -0.000000 -0.000000
  0C   2dxz       0.000000 -0.000000 -0.000000  0.024371 -0.006104 -0.000653
  0C   2dyz       0.000000 -0.000000 -0.000000  0.004840  0.017459  0.017418
  0C   2dx2y2    -0.002397  0.008091  0.000000  0.000000  0.000000 -0.000000
  0C   2dxy      -0.000000  0.000000  0.000000  0.003777  0.017016 -0.018106
  0C   3dz2       0.961391  0.284881  0.000000 -0.000000 -0.000000 -0.000000
  0C   3dxz      -0.000000  0.000000 -0.000000  1.253186 -0.313895 -0.033594
  0C   3dyz       0.000000 -0.000000 -0.000000  0.248882  0.897776  0.895651
  0C   3dx2y2     0.284881 -0.961391 -0.000000  0.000000 -0.000000  0.000000
  0C   3dxy      -0.000000  0.000000  0.000000  0.194207  0.874987 -0.931029
  0C   1f0        0.000000  0.000000 -0.000000 -0.002134 -0.009616  0.010232
  0C   1f+1       0.000000 -0.000000 -0.000000  0.001675  0.006042  0.006028
  0C   1f-1       0.000000 -0.000000 -0.000000  0.008434 -0.002113 -0.000226
  0C   1f+2       0.000000 -0.000000  0.000000  0.000000 -0.000000  0.000000
  0C   1f-2       0.000000 -0.000000  0.033365  0.000000  0.000000  0.000000
  0C   1f+3       0.000000 -0.000000 -0.000000  0.002162  0.007800  0.007782
  0C   1f-3       0.000000  0.000000  0.000000 -0.010888  0.002727  0.000292
  1H   1s        -0.000000  0.000000 -0.050827 -0.023357  0.005199 -0.032022
  1H   2s         0.000000 -0.000000 -1.280395  0.657357 -0.146316  0.901241
  1H   3s         0.000000 -0.000000  0.102595  1.614588 -0.359378  2.213610
  2H   1s         0.000000 -0.000000 -0.050827 -0.021404  0.006013  0.033222
  2H   2s        -0.000000  0.000000 -1.280395  0.602395 -0.169224 -0.935011
  2H   3s        -0.000000  0.000000  0.102595  1.479591 -0.415645 -2.296555
  3H   1s        -0.000000  0.000000 -0.050827  0.014467 -0.037265  0.000032
  3H   2s        -0.000000  0.000000 -1.280395 -0.407171  1.048796 -0.000897
  3H   3s         0.000000 -0.000000  0.102595 -1.000085  2.576032 -0.002203
  4H   1s         0.000000 -0.000000 -0.050827  0.030293  0.026053 -0.001232
  4H   2s        -0.000000  0.000000 -1.280395 -0.852582 -0.733256  0.034667
  4H   3s        -0.000000 -0.000000  0.102595 -2.094095 -1.801009  0.085148
                     18        19        20        21        22        23   
                   0.87695   0.87695   0.87695   0.98700   1.80343   1.80343
                   0.00000   0.00000   0.00000   0.00000   0.00000   0.00000
                  --------  --------  --------  --------  --------  --------
  0C   1s        -0.000000  0.000000 -0.000000 -0.117346  0.000000  0.000000
  0C   2s        -0.000000  0.000000 -0.000000 -0.272217  0.000000  0.000000
  0C   1pz        0.016070  0.013774 -0.130939  0.000000 -0.004841 -0.012239
  0C   1px        0.118607 -0.058781  0.008373 -0.000000  0.011483 -0.005072
  0C   1py       -0.057158 -0.118102 -0.019438 -0.000000 -0.004502  0.000221
  0C   3s         0.000000 -0.000000  0.000000  2.235825 -0.000000 -0.000000
  0C   2pz        0.067656  0.057990 -0.551274 -0.000000 -0.075872 -0.191837
  0C   2px        0.499355 -0.247478  0.035251 -0.000000  0.179995 -0.079503
  0C   2py       -0.240646 -0.497227 -0.081839 -0.000000 -0.070566  0.003471
  0C   4s         0.000000  0.000000 -0.000000 -5.083074  0.000000 -0.000000
  0C   3pz        0.367950  0.315381 -2.998106  0.000000 -0.482983 -1.221184
  0C   3px        2.715744 -1.345909  0.191715 -0.000000  1.145799 -0.506096
  0C   3py       -1.308755 -2.704174 -0.445082 -0.000000 -0.449206  0.022098
  0C   1dz2       0.000000  0.000000 -0.000000  0.000000  0.000000 -0.000000
  0C   1dxz       0.003618  0.007476  0.001230  0.000000  0.006112 -0.000301
  0C   1dyz      -0.007508  0.003721 -0.000530  0.000000 -0.015590  0.006886
  0C   1dx2y2     0.000000  0.000000 -0.000000  0.000000  0.000000  0.000000
  0C   1dxy      -0.001017 -0.000872  0.008288 -0.000000  0.006571  0.016616
  0C   2dz2       0.000000  0.000000  0.000000  0.000000 -0.000000  0.000000
  0C   2dxz       0.007295  0.015072  0.002481  0.000000 -0.378207  0.018605
  0C   2dyz      -0.015137  0.007502 -0.001069  0.000000  0.964699 -0.426105
  0C   2dx2y2    -0.000000  0.000000 -0.000000 -0.000000 -0.000000 -0.000000
  0C   2dxy      -0.002051 -0.001758  0.016710 -0.000000 -0.406645 -1.028170
  0C   3dz2      -0.000000 -0.000000 -0.000000 -0.000000  0.000000 -0.000000
  0C   3dxz      -0.911509 -1.883376 -0.309986 -0.000000 -0.124799  0.006139
  0C   3dyz       1.891435 -0.937385  0.133524 -0.000000  0.318328 -0.140604
  0C   3dx2y2     0.000000  0.000000  0.000000  0.000000  0.000000  0.000000
  0C   3dxy       0.256266  0.219654 -2.088091  0.000000 -0.134183 -0.339271
  0C   1f0       -0.002041 -0.001749  0.016631 -0.000000  0.006105  0.015435
  0C   1f+1       0.009225 -0.004572  0.000651  0.000000  0.008868 -0.003917
  0C   1f-1      -0.004446 -0.009186 -0.001512  0.000000 -0.003477  0.000171
  0C   1f+2       0.000000 -0.000000  0.000000 -0.000000  0.000000  0.000000
  0C   1f-2       0.000000  0.000000 -0.000000 -0.026283 -0.000000  0.000000
  0C   1f+3       0.011910 -0.005902  0.000841 -0.000000  0.011449 -0.005057
  0C   1f-3       0.005739  0.011859  0.001952 -0.000000  0.004489 -0.000221
  1H   1s         0.010254 -0.043082  0.027088  0.009513 -0.181866 -0.113659
  1H   2s         0.616157 -2.588747  1.627648  0.448157  1.041398  0.650831
  1H   3s         0.229663 -0.964915  0.606680  0.714917  0.010383  0.006489
  2H   1s        -0.036086 -0.010292 -0.035872  0.009513  0.320382  0.106845
  2H   2s        -2.168356 -0.618436 -2.155520  0.448157 -1.834569 -0.611812
  2H   3s        -0.808221 -0.230513 -0.803437  0.714917 -0.018291 -0.006100
  3H   1s         0.043349  0.016517 -0.023304  0.009513 -0.171451  0.269718
  3H   2s         2.604749  0.992482 -1.400271  0.448157  0.981758 -1.544454
  3H   3s         0.970880  0.369932 -0.521929  0.714917  0.009788 -0.015398
  4H   1s        -0.017517  0.036857  0.032088  0.009513  0.032934 -0.262904
  4H   2s        -1.052550  2.214701  1.928143  0.448157 -0.188587  1.505435
  4H   3s        -0.392322  0.825496  0.718686  0.714917 -0.001880  0.015009
                     24        25        26        27        28        29   
                   1.80343   1.80814   1.80814   2.38049   2.83056   2.83056
                   0.00000   0.00000   0.00000   0.00000   0.00000   0.00000
                  --------  --------  --------  --------  --------  --------
  0C   1s         0.000000 -0.000000 -0.000000 -0.029045 -0.000000  0.000000
  0C   2s         0.000000 -0.000000 -0.000000 -0.030825 -0.000000  0.000000
  0C   1pz       -0.001531  0.000000 -0.000000 -0.000000  0.246371  0.023465
  0C   1px        0.004239 -0.000000  0.000000 -0.000000  0.669165 -0.246578
  0C   1py        0.012460 -0.000000  0.000000 -0.000000 -0.225616 -0.705714
  0C   3s        -0.000000 -0.000000  0.000000  0.101976  0.000000 -0.000000
  0C   2pz       -0.024004  0.000000  0.000000  0.000000 -0.298554 -0.028435
  0C   2px        0.066449 -0.000000  0.000000  0.000000 -0.810897  0.298804
  0C   2py        0.195301 -0.000000  0.000000  0.000000  0.273402  0.855187
  0C   4s         0.000000  0.000000 -0.000000 -1.988271 -0.000000  0.000000
  0C   3pz       -0.152805  0.000000  0.000000  0.000000 -0.306173 -0.029161
  0C   3px        0.422995 -0.000000  0.000000 -0.000000 -0.831591  0.306430
  0C   3py        1.243237 -0.000000  0.000000 -0.000000  0.280380  0.877011
  0C   1dz2      -0.000000 -0.007639 -0.015111  0.000000  0.000000 -0.000000
  0C   1dxz      -0.016916  0.000000 -0.000000  0.000000 -0.001456 -0.004556
  0C   1dyz      -0.005755  0.000000 -0.000000  0.000000  0.004320 -0.001592
  0C   1dx2y2     0.000000  0.015111 -0.007639  0.000000 -0.000000 -0.000000
  0C   1dxy       0.002079 -0.000000 -0.000000  0.000000  0.001590  0.000151
  0C   2dz2       0.000000  0.511534  1.011928 -0.000000 -0.000000 -0.000000
  0C   2dxz       1.046737 -0.000000  0.000000 -0.000000 -0.097131 -0.303821
  0C   2dyz       0.356139 -0.000000  0.000000 -0.000000  0.288086 -0.106156
  0C   2dx2y2    -0.000000 -1.011928  0.511534  0.000000 -0.000000 -0.000000
  0C   2dxy      -0.128653  0.000000  0.000000  0.000000  0.106067  0.010102
  0C   3dz2      -0.000000 -0.233460 -0.461836  0.000000  0.000000 -0.000000
  0C   3dxz       0.345398 -0.000000  0.000000 -0.000000  0.259292  0.811051
  0C   3dyz       0.117517 -0.000000  0.000000 -0.000000 -0.769047  0.283383
  0C   3dx2y2     0.000000  0.461836 -0.233460 -0.000000  0.000000 -0.000000
  0C   3dxy      -0.042453  0.000000  0.000000  0.000000 -0.283146 -0.026968
  0C   1f0        0.001931 -0.000000 -0.000000  0.000000  0.122519  0.011669
  0C   1f+1       0.003274 -0.000000  0.000000  0.000000 -0.203781  0.075091
  0C   1f-1       0.009623 -0.000000  0.000000  0.000000  0.068707  0.214911
  0C   1f+2       0.000000  0.000000 -0.000000 -0.000000 -0.000000  0.000000
  0C   1f-2      -0.000000 -0.000000  0.000000 -0.402990 -0.000000  0.000000
  0C   1f+3       0.004227 -0.000000  0.000000  0.000000 -0.263080  0.096941
  0C   1f-3      -0.012423  0.000000 -0.000000 -0.000000 -0.088700 -0.277449
  1H   1s        -0.280458  0.000000 -0.000000 -0.604352  0.140352 -0.694547
  1H   2s         1.605953 -0.000000  0.000000  1.263959 -0.338751  1.676348
  1H   3s         0.016011 -0.000000  0.000000 -0.089923  0.007647 -0.037841
  2H   1s        -0.102905 -0.000000  0.000000 -0.604352 -0.461540 -0.310112
  2H   2s         0.589252  0.000000 -0.000000  1.263959  1.113967  0.748481
  2H   3s         0.005875  0.000000 -0.000000 -0.089923 -0.025146 -0.016896
  3H   1s         0.150023 -0.000000 -0.000000 -0.604352  0.812276  0.343517
  3H   2s        -0.859063  0.000000  0.000000  1.263959 -1.960497 -0.829107
  3H   3s        -0.008565  0.000000  0.000000 -0.089923  0.044255  0.018716
  4H   1s         0.233339 -0.000000  0.000000 -0.604352 -0.491088  0.661142
  4H   2s        -1.336142  0.000000 -0.000000  1.263959  1.185282 -1.595722
  4H   3s        -0.013321 -0.000000 -0.000000 -0.089923 -0.026756  0.036021
                     30        31        32        33        34        35   
                   2.83056   3.02932   3.02932   3.02932   3.19607   3.19607
                   0.00000   0.00000   0.00000   0.00000   0.00000   0.00000
                  --------  --------  --------  --------  --------  --------
  0C   1s        -0.000000 -0.000000 -0.000000 -0.000000 -0.000000 -0.000000
  0C   2s        -0.000000 -0.000000  0.000000 -0.000000  0.000000  0.000000
  0C   1pz       -0.705786 -0.000000  0.000000 -0.000000  0.087173  0.504921
  0C   1px        0.225390  0.000000 -0.000000  0.000000 -0.677902  0.503795
  0C   1py       -0.102219  0.000000 -0.000000 -0.000000 -0.564833 -0.526719
  0C   3s         0.000000  0.000000  0.000000  0.000000  0.000000  0.000000
  0C   2pz        0.855275  0.000000 -0.000000  0.000000 -0.104239 -0.603767
  0C   2px       -0.273129 -0.000000  0.000000 -0.000000  0.810613 -0.602421
  0C   2py        0.123870 -0.000000  0.000000  0.000000  0.675409  0.629833
  0C   4s        -0.000000 -0.000000 -0.000000 -0.000000 -0.000000 -0.000000
  0C   3pz        0.877101 -0.000000  0.000000 -0.000000  0.166414  0.963892
  0C   3px       -0.280099 -0.000000 -0.000000 -0.000000 -1.294113  0.961743
  0C   3py        0.127031  0.000000 -0.000000  0.000000 -1.078265 -1.005504
  0C   1dz2       0.000000 -0.000000  0.000000  0.000000  0.000000 -0.000000
  0C   1dxz      -0.000660 -0.000000  0.000000 -0.000000  0.002225  0.002075
  0C   1dyz       0.001455 -0.000000 -0.000000  0.000000  0.002670 -0.001984
  0C   1dx2y2     0.000000  0.000000  0.000000 -0.000000 -0.000000  0.000000
  0C   1dxy      -0.004556  0.000000 -0.000000 -0.000000 -0.000343 -0.001989
  0C   2dz2       0.000000  0.000000 -0.000000  0.000000 -0.000000  0.000000
  0C   2dxz      -0.044007  0.000000  0.000000 -0.000000  0.025213  0.023512
  0C   2dyz       0.097034  0.000000 -0.000000  0.000000  0.030261 -0.022489
  0C   2dx2y2    -0.000000  0.000000 -0.000000 -0.000000  0.000000  0.000000
  0C   2dxy      -0.303852  0.000000 -0.000000  0.000000 -0.003891 -0.022539
  0C   3dz2      -0.000000 -0.000000  0.000000 -0.000000  0.000000  0.000000
  0C   3dxz       0.117477  0.000000  0.000000  0.000000 -0.386165 -0.360107
  0C   3dyz      -0.259032 -0.000000 -0.000000 -0.000000 -0.463469  0.344435
  0C   3dx2y2     0.000000 -0.000000  0.000000  0.000000 -0.000000 -0.000000
  0C   3dxy       0.811134 -0.000000  0.000000 -0.000000  0.059599  0.345204
  0C   1f0       -0.350985  0.000000 -0.000000  0.000000 -0.076101 -0.440789
  0C   1f+1      -0.068638  0.128537 -0.426922 -0.652852 -0.362402  0.269325
  0C   1f-1       0.031129 -0.319620 -0.632388  0.350611 -0.301956 -0.281580
  0C   1f+2      -0.000000  0.900063 -0.261758  0.348381  0.000000  0.000000
  0C   1f-2      -0.000000 -0.000000 -0.000000 -0.000000 -0.000000 -0.000000
  0C   1f+3      -0.088611 -0.099564  0.330692  0.505697 -0.467858  0.347697
  0C   1f-3      -0.040187 -0.247577 -0.489846  0.271582  0.389823  0.363518
  1H   1s         0.590054  0.000000  0.000000 -0.000000  0.078185  0.031032
  1H   2s        -1.424146 -0.000000 -0.000000 -0.000000 -0.635448 -0.252211
  1H   3s         0.032148  0.000000 -0.000000  0.000000 -0.883677 -0.350734
  2H   1s        -0.735574  0.000000  0.000000 -0.000000 -0.011772  0.030900
  2H   2s         1.775371  0.000000  0.000000  0.000000  0.095678 -0.251136
  2H   3s        -0.040076  0.000000  0.000000 -0.000000  0.133054 -0.349238
  3H   1s        -0.269187 -0.000000 -0.000000  0.000000  0.001522 -0.090268
  3H   2s         0.649707 -0.000000  0.000000 -0.000000 -0.012373  0.733651
  3H   3s        -0.014666 -0.000000  0.000000 -0.000000 -0.017207  1.020241
  4H   1s         0.414707 -0.000000 -0.000000 -0.000000 -0.067935  0.028337
  4H   2s        -1.000932  0.000000 -0.000000  0.000000  0.552143 -0.230305
  4H   3s         0.022594  0.000000 -0.000000  0.000000  0.767830 -0.320270
                     36        37        38        39        40        41   
                   3.19607   4.03870   4.03870   4.03870   4.37861   7.44144
                   0.00000   0.00000   0.00000   0.00000   0.00000   0.00000
                  --------  --------  --------  --------  --------  --------
  0C   1s        -0.000000  0.000000 -0.000000 -0.000000  0.030105  0.000000
  0C   2s         0.000000  0.000000  0.000000 -0.000000  0.017006 -0.000000
  0C   1pz        0.723632  0.518553  0.535249 -0.038209 -0.000000  0.000000
  0C   1px       -0.269863  0.409278 -0.428865 -0.453229 -0.000000 -0.000000
  0C   1py        0.435566 -0.347050  0.293994 -0.591585 -0.000000 -0.000000
  0C   3s         0.000000 -0.000000  0.000000  0.000000  0.252216 -0.000000
  0C   2pz       -0.865295 -0.729212 -0.752690  0.053731  0.000000 -0.000000
  0C   2px        0.322693 -0.575543  0.603088  0.637349  0.000000  0.000000
  0C   2py       -0.520836  0.488036 -0.413427  0.831912  0.000000  0.000000
  0C   4s        -0.000000  0.000000 -0.000000 -0.000000 -0.631201  0.000000
  0C   3pz        1.381411  0.665159  0.686575 -0.049011 -0.000000 -0.000000
  0C   3px       -0.515168  0.524989 -0.550114 -0.581366 -0.000000  0.000000
  0C   3py        0.831494 -0.445168  0.377112 -0.758839 -0.000000 -0.000000
  0C   1dz2      -0.000000 -0.000000  0.000000 -0.000000  0.000000  1.061843
  0C   1dxz      -0.001716  0.031222 -0.026449  0.053222  0.000000 -0.000000
  0C   1dyz       0.001063 -0.036821  0.038583  0.040775  0.000000 -0.000000
  0C   1dx2y2    -0.000000  0.000000 -0.000000 -0.000000  0.000000  0.421043
  0C   1dxy      -0.002850 -0.046652 -0.048154  0.003437 -0.000000  0.000000
  0C   2dz2       0.000000  0.000000 -0.000000  0.000000  0.000000 -0.555815
  0C   2dxz      -0.019443  0.254729 -0.215787  0.434214  0.000000  0.000000
  0C   2dyz       0.012046 -0.300403  0.314780  0.332663  0.000000  0.000000
  0C   2dx2y2     0.000000  0.000000  0.000000  0.000000 -0.000000 -0.220392
  0C   2dxy      -0.032302 -0.380610 -0.392865  0.028045  0.000000 -0.000000
  0C   3dz2       0.000000 -0.000000 -0.000000  0.000000 -0.000000  0.166478
  0C   3dxz       0.297788 -0.163300  0.138336 -0.278364 -0.000000  0.000000
  0C   3dyz      -0.184500  0.192581 -0.201798 -0.213262 -0.000000 -0.000000
  0C   3dx2y2    -0.000000 -0.000000  0.000000 -0.000000  0.000000  0.066012
  0C   3dxy       0.494733  0.243999  0.251856 -0.017979 -0.000000 -0.000000
  0C   1f0       -0.631721  0.474392  0.489666 -0.034955 -0.000000 -0.000000
  0C   1f+1      -0.144267 -0.229286  0.240259  0.253908  0.000000  0.000000
  0C   1f-1       0.232851  0.194425 -0.164702  0.331419  0.000000  0.000000
  0C   1f+2       0.000000  0.000000  0.000000  0.000000  0.000000  0.000000
  0C   1f-2      -0.000000 -0.000000 -0.000000  0.000000 -1.227242  0.000000
  0C   1f+3      -0.186248 -0.296007  0.310173  0.327794  0.000000  0.000000
  0C   1f-3      -0.300609 -0.251001  0.212629 -0.427860 -0.000000 -0.000000
  1H   1s         0.032801  0.445896  0.654804  0.983599  0.701913  0.000000
  1H   2s        -0.266586 -0.392950 -0.577052 -0.866806 -0.402933  0.000000
  1H   3s        -0.370724 -0.103510 -0.152005 -0.228331  0.196956 -0.000000
  2H   1s        -0.084014  0.232339 -1.229353  0.172530  0.701913 -0.000000
  2H   2s         0.682825 -0.204751  1.083379 -0.152044 -0.402933 -0.000000
  2H   3s         0.949560 -0.053935  0.285381 -0.040051  0.196956 -0.000000
  3H   1s        -0.001070 -1.245742  0.183322 -0.097859  0.701913 -0.000000
  3H   2s         0.008697  1.097823 -0.161554  0.086239 -0.402933 -0.000000
  3H   3s         0.012095  0.289185 -0.042556  0.022717  0.196956 -0.000000
  4H   1s         0.052284  0.567507  0.391228 -1.058269  0.701913 -0.000000
  4H   2s        -0.424936 -0.500121 -0.344773  0.932610 -0.402933  0.000000
  4H   3s        -0.590931 -0.131740 -0.090819  0.245665  0.196956 -0.000000
                     42        43        44        45        46   
                   7.44144   7.67409   7.67409   7.67409  24.56697
                   0.00000   0.00000   0.00000   0.00000   0.00000
                  --------  --------  --------  --------  --------
  0C   1s         0.000000  0.000000 -0.000000 -0.000000 -2.026965
  0C   2s        -0.000000 -0.000000  0.000000  0.000000  2.172150
  0C   1pz       -0.000000  0.044424  0.089236  0.061947 -0.000000
  0C   1px        0.000000  0.088201  0.009438 -0.076848  0.000000
  0C   1py       -0.000000 -0.063412  0.075643 -0.063490 -0.000000
  0C   3s        -0.000000 -0.000000  0.000000  0.000000 -0.461525
  0C   2pz        0.000000 -0.090148 -0.181083 -0.125705 -0.000000
  0C   2px       -0.000000 -0.178981 -0.019152  0.155943 -0.000000
  0C   2py        0.000000  0.128680 -0.153498  0.128838  0.000000
  0C   4s         0.000000  0.000000 -0.000000 -0.000000  0.575495
  0C   3pz        0.000000  0.033512  0.067316  0.046730 -0.000000
  0C   3px        0.000000  0.066535  0.007120 -0.057971  0.000000
  0C   3py       -0.000000 -0.047836  0.057062 -0.047895 -0.000000
  0C   1dz2       0.421043  0.000000 -0.000000 -0.000000  0.000000
  0C   1dxz       0.000000 -0.629465  0.750870 -0.630239 -0.000000
  0C   1dyz      -0.000000  0.875525  0.093687 -0.762831  0.000000
  0C   1dx2y2    -1.061843 -0.000000  0.000000 -0.000000 -0.000000
  0C   1dxy      -0.000000  0.440979  0.885805  0.614915 -0.000000
  0C   2dz2      -0.220392 -0.000000  0.000000  0.000000 -0.000000
  0C   2dxz      -0.000000  0.419816 -0.500786  0.420332 -0.000000
  0C   2dyz       0.000000 -0.583924 -0.062483  0.508763  0.000000
  0C   2dx2y2     0.555815  0.000000 -0.000000  0.000000  0.000000
  0C   2dxy       0.000000 -0.294107 -0.590779 -0.410112 -0.000000
  0C   3dz2       0.066012  0.000000  0.000000 -0.000000  0.000000
  0C   3dxz      -0.000000 -0.094582  0.112825 -0.094699 -0.000000
  0C   3dyz       0.000000  0.131555  0.014077 -0.114622  0.000000
  0C   3dx2y2    -0.166478 -0.000000  0.000000 -0.000000 -0.000000
  0C   3dxy       0.000000  0.066261  0.133100  0.092396 -0.000000
  0C   1f0       -0.000000  0.046120  0.092643  0.064312  0.000000
  0C   1f+1       0.000000 -0.056074 -0.006000  0.048856  0.000000
  0C   1f-1      -0.000000  0.040315 -0.048090  0.040364  0.000000
  0C   1f+2       0.000000 -0.000000  0.000000  0.000000 -0.000000
  0C   1f-2      -0.000000 -0.000000 -0.000000  0.000000 -0.025448
  0C   1f+3       0.000000 -0.072391 -0.007746  0.063073  0.000000
  0C   1f-3       0.000000 -0.052046  0.062084 -0.052110  0.000000
  1H   1s        -0.000000  0.032891  0.006960  0.338830  0.034886
  1H   2s        -0.000000 -0.006457 -0.001366 -0.066521 -0.034334
  1H   3s        -0.000000 -0.011172 -0.002364 -0.115092 -0.084765
  2H   1s         0.000000  0.179543 -0.260366 -0.126135  0.034886
  2H   2s        -0.000000 -0.035249  0.051116  0.024763 -0.034334
  2H   3s        -0.000000 -0.060986  0.088439  0.042845 -0.084765
  3H   1s         0.000000 -0.328365 -0.038578 -0.081388  0.034886
  3H   2s         0.000000  0.064466  0.007574  0.015978 -0.034334
  3H   3s         0.000000  0.111537  0.013104  0.027645 -0.084765
  4H   1s        -0.000000  0.115932  0.291984 -0.131307  0.034886
  4H   2s         0.000000 -0.022760 -0.057324  0.025779 -0.034334
  4H   3s         0.000000 -0.039379 -0.099179  0.044602 -0.084765

                      0         1         2         3         4         5   
                 -11.20299  -0.94531  -0.54703  -0.54703  -0.54703   0.16172
                   1.00000   1.00000   1.00000   1.00000   1.00000   0.00000
                  --------  --------  --------  --------  --------  --------
  0C   1s         0.563318  0.103435 -0.000000 -0.000000  0.000000 -0.048634
  0C   2s         0.466518  0.174681 -0.000000 -0.000000  0.000000 -0.077564
  0C   1pz        0.000000  0.000000  0.160953 -0.008604  0.092259  0.000000
  0C   1px       -0.000000 -0.000000  0.018733 -0.178076 -0.049289  0.000000
  0C   1py        0.000000 -0.000000 -0.090746 -0.052023  0.153462  0.000000
  0C   3s         0.004404 -0.443791  0.000000  0.000000 -0.000000  0.057323
  0C   2pz       -0.000000  0.000000  0.281855 -0.015068  0.161560 -0.000000
  0C   2px       -0.000000 -0.000000  0.032805 -0.311840 -0.086314 -0.000000
  0C   2py        0.000000 -0.000000 -0.158910 -0.091100  0.268736 -0.000000
  0C   4s        -0.000556 -0.392143 -0.000000 -0.000000  0.000000  2.187502
  0C   3pz       -0.000000 -0.000000  0.219418 -0.011730  0.125771  0.000000
  0C   3px        0.000000  0.000000  0.025538 -0.242761 -0.067193  0.000000
  0C   3py       -0.000000  0.000000 -0.123708 -0.070919  0.209205 -0.000000
  0C   1dz2       0.000000 -0.000000 -0.000000 -0.000000 -0.000000 -0.000000
  0C   1dxz      -0.000000 -0.000000 -0.002545 -0.001459  0.004304  0.000000
  0C   1dyz      -0.000000 -0.000000  0.000525 -0.004995 -0.001383  0.000000
  0C   1dx2y2    -0.000000  0.000000  0.000000 -0.000000 -0.000000 -0.000000
  0C   1dxy       0.000000  0.000000  0.004515 -0.000241  0.002588  0.000000
  0C   2dz2      -0.000000  0.000000  0.000000  0.000000 -0.000000 -0.000000
  0C   2dxz      -0.000000  0.000000 -0.019906 -0.011412  0.033663 -0.000000
  0C   2dyz       0.000000  0.000000  0.004109 -0.039063 -0.010812 -0.000000
  0C   2dx2y2     0.000000 -0.000000 -0.000000 -0.000000 -0.000000  0.000000
  0C   2dxy      -0.000000 -0.000000  0.035307 -0.001887  0.020238 -0.000000
  0C   3dz2       0.000000 -0.000000  0.000000 -0.000000 -0.000000 -0.000000
  0C   3dxz      -0.000000  0.000000 -0.012207 -0.006998  0.020643 -0.000000
  0C   3dyz      -0.000000  0.000000  0.002520 -0.023954 -0.006630 -0.000000
  0C   3dx2y2    -0.000000  0.000000  0.000000  0.000000 -0.000000  0.000000
  0C   3dxy      -0.000000 -0.000000  0.021651 -0.001157  0.012410  0.000000
  0C   1f0        0.000000  0.000000 -0.003180  0.000170 -0.001823 -0.000000
  0C   1f+1      -0.000000  0.000000  0.000227 -0.002155 -0.000596 -0.000000
  0C   1f-1       0.000000  0.000000 -0.001098 -0.000629  0.001857 -0.000000
  0C   1f+2       0.000000 -0.000000  0.000000  0.000000 -0.000000  0.000000
  0C   1f-2       0.000473 -0.018374 -0.000000 -0.000000  0.000000  0.016544
  0C   1f+3       0.000000  0.000000  0.000293 -0.002781 -0.000770 -0.000000
  0C   1f-3       0.000000 -0.000000  0.001417  0.000813 -0.002397  0.000000
  1H   1s         0.000212 -0.082690  0.127531  0.121251 -0.006522 -0.012552
  1H   2s         0.000024 -0.073953  0.155732  0.148064 -0.007964  0.002372
  1H   3s         0.000155  0.004061  0.062489  0.059412 -0.003196 -0.786698
  2H   1s         0.000212 -0.082690 -0.028178 -0.064295 -0.161495 -0.012552
  2H   2s         0.000024 -0.073953 -0.034409 -0.078512 -0.197207  0.002372
  2H   3s         0.000155  0.004061 -0.013807 -0.031504 -0.079131 -0.786698
  3H   1s         0.000212 -0.082690 -0.148041  0.073715  0.060486 -0.012552
  3H   2s         0.000024 -0.073953 -0.180777  0.090016  0.073861  0.002372
  3H   3s         0.000155  0.004061 -0.072539  0.036120  0.029638 -0.786698
  4H   1s         0.000212 -0.082690  0.048688 -0.130672  0.107531 -0.012552
  4H   2s         0.000024 -0.073953  0.059454 -0.159567  0.131309  0.002372
  4H   3s         0.000155  0.004061  0.023857 -0.064028  0.052689 -0.786698
                      6         7         8         9        10        11   
                   0.22839   0.22839   0.22839   0.36139   0.36139   0.36139
                   0.00000   0.00000   0.00000   0.00000   0.00000   0.00000
                  --------  --------  --------  --------  --------  --------
  0C   1s        -0.000000  0.000000 -0.000000  0.000000  0.000000  0.000000
  0C   2s        -0.000000 -0.000000 -0.000000  0.000000  0.000000  0.000000
  0C   1pz       -0.046985  0.052966 -0.103396 -0.036746  0.012659  0.010522
  0C   1px       -0.091592  0.051720  0.068116 -0.003719 -0.031456  0.024858
  0C   1py       -0.071464 -0.101110 -0.019321 -0.016036 -0.021714 -0.029877
  0C   3s         0.000000  0.000000  0.000000 -0.000000 -0.000000 -0.000000
  0C   2pz       -0.037794  0.042605 -0.083169 -0.025921  0.008930  0.007423
  0C   2px       -0.073674  0.041602  0.054791 -0.002623 -0.022190  0.017535
  0C   2py       -0.057484 -0.081331 -0.015542 -0.011312 -0.015317 -0.021075
  0C   4s         0.000000 -0.000000  0.000000  0.000000  0.000000  0.000000
  0C   3pz       -0.624192  0.703655 -1.373606  0.019442 -0.006698 -0.005567
  0C   3px       -1.216790  0.687096  0.904909  0.001968  0.016644 -0.013152
  0C   3py       -0.949392 -1.343245 -0.256681  0.008484  0.011489  0.015808
  0C   1dz2       0.000000  0.000000 -0.000000  0.000000 -0.000000  0.000000
  0C   1dxz      -0.000341 -0.000483 -0.000092  0.005977  0.008093  0.011136
  0C   1dyz      -0.000437  0.000247  0.000325  0.001386  0.011724 -0.009265
  0C   1dx2y2     0.000000  0.000000 -0.000000  0.000000 -0.000000  0.000000
  0C   1dxy      -0.000224  0.000253 -0.000494  0.013696 -0.004718 -0.003922
  0C   2dz2       0.000000 -0.000000 -0.000000 -0.000000  0.000000  0.000000
  0C   2dxz       0.000156  0.000220  0.000042  0.003846  0.005208  0.007166
  0C   2dyz       0.000200 -0.000113 -0.000148  0.000892  0.007545 -0.005962
  0C   2dx2y2     0.000000 -0.000000 -0.000000  0.000000 -0.000000 -0.000000
  0C   2dxy       0.000102 -0.000115  0.000225  0.008814 -0.003036 -0.002524
  0C   3dz2       0.000000 -0.000000  0.000000  0.000000 -0.000000  0.000000
  0C   3dxz      -0.247070 -0.349567 -0.066799  0.388199  0.525650  0.723266
  0C   3dyz      -0.316658  0.178810  0.235494  0.090027  0.761509 -0.601764
  0C   3dx2y2    -0.000000  0.000000 -0.000000  0.000000 -0.000000  0.000000
  0C   3dxy      -0.162440  0.183120 -0.357468  0.889560 -0.306458 -0.254729
  0C   1f0        0.004012 -0.004523  0.008828 -0.014235  0.004904  0.004076
  0C   1f+1      -0.004789  0.002704  0.003562  0.000882  0.007462 -0.005897
  0C   1f-1      -0.003737 -0.005287 -0.001010  0.003804  0.005151  0.007088
  0C   1f+2       0.000000 -0.000000  0.000000 -0.000000  0.000000  0.000000
  0C   1f-2      -0.000000 -0.000000 -0.000000  0.000000  0.000000  0.000000
  0C   1f+3      -0.006183  0.003491  0.004598  0.001139  0.009634 -0.007613
  0C   1f-3       0.004824  0.006825  0.001304 -0.004911 -0.006650 -0.009150
  1H   1s         0.005828  0.005139 -0.007641  0.025648 -0.099367 -0.023459
  1H   2s        -0.097114 -0.085640  0.127335  0.013659 -0.052919 -0.012493
  1H   3s        -1.496802 -1.319955  1.962584 -0.166915  0.646672  0.152670
  2H   1s         0.001348  0.005014  0.009581 -0.074059  0.033815 -0.066737
  2H   2s        -0.022471 -0.083555 -0.159666 -0.039441  0.018009 -0.035541
  2H   3s        -0.346338 -1.287807 -2.460902  0.481969 -0.220066  0.434317
  3H   1s         0.003370 -0.010333  0.000801 -0.036875  0.004402  0.098503
  3H   2s        -0.056152  0.172187 -0.013353 -0.019638  0.002344  0.052459
  3H   3s        -0.865461  2.653876 -0.205802  0.239979 -0.028648 -0.641049
  4H   1s        -0.010546  0.000180 -0.002741  0.085286  0.061150 -0.008307
  4H   2s         0.175738 -0.002992  0.045684  0.045420  0.032566 -0.004424
  4H   3s         2.708601 -0.046114  0.704120 -0.555033 -0.397958  0.054062
                     12        13        14        15        16        17   
                   0.42653   0.42653   0.75676   0.79972   0.79972   0.79972
                   0.00000   0.00000   0.00000   0.00000   0.00000   0.00000
                  --------  --------  --------  --------  --------  --------
  0C   1s        -0.000000 -0.000000 -0.062365  0.000000  0.000000 -0.000000
  0C   2s        -0.000000 -0.000000 -0.122184  0.000000  0.000000 -0.000000
  0C   1pz        0.000000  0.000000 -0.000000 -0.031448 -0.141688  0.150763
  0C   1px       -0.000000  0.000000  0.000000 -0.040302 -0.145378 -0.145034
  0C   1py        0.000000 -0.000000 -0.000000 -0.202931  0.050830  0.005440
  0C   3s        -0.000000  0.000000  0.323582 -0.000000 -0.000000  0.000000
  0C   2pz       -0.000000  0.000000 -0.000000 -0.151422 -0.682224  0.725920
  0C   2px       -0.000000  0.000000 -0.000000 -0.194053 -0.699992 -0.698335
  0C   2py        0.000000 -0.000000 -0.000000 -0.977104  0.244743  0.026193
  0C   4s         0.000000 -0.000000  2.598874  0.000000 -0.000000  0.000000
  0C   3pz       -0.000000  0.000000  0.000000  0.569102  2.564057 -2.728282
  0C   3px        0.000000 -0.000000 -0.000000  0.729323  2.630837  2.624609
  0C   3py        0.000000 -0.000000 -0.000000  3.672328 -0.919836 -0.098444
  0C   1dz2       0.014319  0.004243 -0.000000 -0.000000  0.000000 -0.000000
  0C   1dxz      -0.000000  0.000000  0.000000 -0.002096  0.000525  0.000056
  0C   1dyz       0.000000 -0.000000  0.000000 -0.000416 -0.001501 -0.001498
  0C   1dx2y2     0.004243 -0.014319 -0.000000 -0.000000  0.000000  0.000000
  0C   1dxy      -0.000000 -0.000000 -0.000000 -0.000325 -0.001463  0.001557
  0C   2dz2      -0.008091 -0.002397 -0.000000 -0.000000 -0.000000 -0.000000
  0C   2dxz       0.000000 -0.000000 -0.000000  0.024371 -0.006104 -0.000653
  0C   2dyz       0.000000 -0.000000 -0.000000  0.004840  0.017459  0.017418
  0C   2dx2y2    -0.002397  0.008091  0.000000  0.000000  0.000000 -0.000000
  0C   2dxy      -0.000000  0.000000  0.000000  0.003777  0.017016 -0.018106
  0C   3dz2       0.961391  0.284881  0.000000 -0.000000 -0.000000 -0.000000
  0C   3dxz      -0.000000  0.000000 -0.000000  1.253186 -0.313895 -0.033594
  0C   3dyz       0.000000 -0.000000 -0.000000  0.248882  0.897776  0.895651
  0C   3dx2y2     0.284881 -0.961391 -0.000000  0.000000 -0.000000  0.000000
  0C   3dxy      -0.000000  0.000000  0.000000  0.194207  0.874987 -0.931029
  0C   1f0        0.000000  0.000000 -0.000000 -0.002134 -0.009616  0.010232
  0C   1f+1       0.000000 -0.000000 -0.000000  0.001675  0.006042  0.006028
  0C   1f-1       0.000000 -0.000000 -0.000000  0.008434 -0.002113 -0.000226
  0C   1f+2       0.000000 -0.000000  0.000000  0.000000 -0.000000  0.000000
  0C   1f-2       0.000000 -0.000000  0.033365  0.000000  0.000000  0.000000
  0C   1f+3       0.000000 -0.000000 -0.000000  0.002162  0.007800  0.007782
  0C   1f-3       0.000000  0.000000  0.000000 -0.010888  0.002727  0.000292
  1H   1s        -0.000000  0.000000 -0.050827 -0.023357  0.005199 -0.032022
  1H   2s         0.000000 -0.000000 -1.280395  0.657357 -0.146316  0.901241
  1H   3s         0.000000 -0.000000  0.102595  1.614588 -0.359378  2.213610
  2H   1s         0.000000 -0.000000 -0.050827 -0.021404  0.006013  0.033222
  2H   2s        -0.000000  0.000000 -1.280395  0.602395 -0.169224 -0.935011
  2H   3s        -0.000000  0.000000  0.102595  1.479591 -0.415645 -2.296555
  3H   1s        -0.000000  0.000000 -0.050827  0.014467 -0.037265  0.000032
  3H   2s        -0.000000  0.000000 -1.280395 -0.407171  1.048796 -0.000897
  3H   3s         0.000000 -0.000000  0.102595 -1.000085  2.576032 -0.002203
  4H   1s         0.000000 -0.000000 -0.050827  0.030293  0.026053 -0.001232
  4H   2s        -0.000000  0.000000 -1.280395 -0.852582 -0.733256  0.034667
  4H   3s        -0.000000 -0.000000  0.102595 -2.094095 -1.801009  0.085148
                     18        19        20        21        22        23   
                   0.87695   0.87695   0.87695   0.98700   1.80343   1.80343
                   0.00000   0.00000   0.00000   0.00000   0.00000   0.00000
                  --------  --------  --------  --------  --------  --------
  0C   1s        -0.000000  0.000000 -0.000000 -0.117346  0.000000  0.000000
  0C   2s        -0.000000  0.000000 -0.000000 -0.272217  0.000000  0.000000
  0C   1pz        0.016070  0.013774 -0.130939  0.000000 -0.004841 -0.012239
  0C   1px        0.118607 -0.058781  0.008373 -0.000000  0.011483 -0.005072
  0C   1py       -0.057158 -0.118102 -0.019438 -0.000000 -0.004502  0.000221
  0C   3s         0.000000 -0.000000  0.000000  2.235825 -0.000000 -0.000000
  0C   2pz        0.067656  0.057990 -0.551274 -0.000000 -0.075872 -0.191837
  0C   2px        0.499355 -0.247478  0.035251 -0.000000  0.179995 -0.079503
  0C   2py       -0.240646 -0.497227 -0.081839 -0.000000 -0.070566  0.003471
  0C   4s         0.000000  0.000000 -0.000000 -5.083074  0.000000 -0.000000
  0C   3pz        0.367950  0.315381 -2.998106  0.000000 -0.482983 -1.221184
  0C   3px        2.715744 -1.345909  0.191715 -0.000000  1.145799 -0.506096
  0C   3py       -1.308755 -2.704174 -0.445082 -0.000000 -0.449206  0.022098
  0C   1dz2       0.000000  0.000000 -0.000000  0.000000  0.000000 -0.000000
  0C   1dxz       0.003618  0.007476  0.001230  0.000000  0.006112 -0.000301
  0C   1dyz      -0.007508  0.003721 -0.000530  0.000000 -0.015590  0.006886
  0C   1dx2y2     0.000000  0.000000 -0.000000  0.000000  0.000000  0.000000
  0C   1dxy      -0.001017 -0.000872  0.008288 -0.000000  0.006571  0.016616
  0C   2dz2       0.000000  0.000000  0.000000  0.000000 -0.000000  0.000000
  0C   2dxz       0.007295  0.015072  0.002481  0.000000 -0.378207  0.018605
  0C   2dyz      -0.015137  0.007502 -0.001069  0.000000  0.964699 -0.426105
  0C   2dx2y2    -0.000000  0.000000 -0.000000 -0.000000 -0.000000 -0.000000
  0C   2dxy      -0.002051 -0.001758  0.016710 -0.000000 -0.406645 -1.028170
  0C   3dz2      -0.000000 -0.000000 -0.000000 -0.000000  0.000000 -0.000000
  0C   3dxz      -0.911509 -1.883376 -0.309986 -0.000000 -0.124799  0.006139
  0C   3dyz       1.891435 -0.937385  0.133524 -0.000000  0.318328 -0.140604
  0C   3dx2y2     0.000000  0.000000  0.000000  0.000000  0.000000  0.000000
  0C   3dxy       0.256266  0.219654 -2.088091  0.000000 -0.134183 -0.339271
  0C   1f0       -0.002041 -0.001749  0.016631 -0.000000  0.006105  0.015435
  0C   1f+1       0.009225 -0.004572  0.000651  0.000000  0.008868 -0.003917
  0C   1f-1      -0.004446 -0.009186 -0.001512  0.000000 -0.003477  0.000171
  0C   1f+2       0.000000 -0.000000  0.000000 -0.000000  0.000000  0.000000
  0C   1f-2       0.000000  0.000000 -0.000000 -0.026283 -0.000000  0.000000
  0C   1f+3       0.011910 -0.005902  0.000841 -0.000000  0.011449 -0.005057
  0C   1f-3       0.005739  0.011859  0.001952 -0.000000  0.004489 -0.000221
  1H   1s         0.010254 -0.043082  0.027088  0.009513 -0.181866 -0.113659
  1H   2s         0.616157 -2.588747  1.627648  0.448157  1.041398  0.650831
  1H   3s         0.229663 -0.964915  0.606680  0.714917  0.010383  0.006489
  2H   1s        -0.036086 -0.010292 -0.035872  0.009513  0.320382  0.106845
  2H   2s        -2.168356 -0.618436 -2.155520  0.448157 -1.834569 -0.611812
  2H   3s        -0.808221 -0.230513 -0.803437  0.714917 -0.018291 -0.006100
  3H   1s         0.043349  0.016517 -0.023304  0.009513 -0.171451  0.269718
  3H   2s         2.604749  0.992482 -1.400271  0.448157  0.981758 -1.544454
  3H   3s         0.970880  0.369932 -0.521929  0.714917  0.009788 -0.015398
  4H   1s        -0.017517  0.036857  0.032088  0.009513  0.032934 -0.262904
  4H   2s        -1.052550  2.214701  1.928143  0.448157 -0.188587  1.505435
  4H   3s        -0.392322  0.825496  0.718686  0.714917 -0.001880  0.015009
                     24        25        26        27        28        29   
                   1.80343   1.80814   1.80814   2.38049   2.83056   2.83056
                   0.00000   0.00000   0.00000   0.00000   0.00000   0.00000
                  --------  --------  --------  --------  --------  --------
  0C   1s         0.000000 -0.000000 -0.000000 -0.029045 -0.000000  0.000000
  0C   2s         0.000000 -0.000000 -0.000000 -0.030825 -0.000000  0.000000
  0C   1pz       -0.001531  0.000000 -0.000000 -0.000000  0.246371  0.023465
  0C   1px        0.004239 -0.000000  0.000000 -0.000000  0.669165 -0.246578
  0C   1py        0.012460 -0.000000  0.000000 -0.000000 -0.225616 -0.705714
  0C   3s        -0.000000 -0.000000  0.000000  0.101976  0.000000 -0.000000
  0C   2pz       -0.024004  0.000000  0.000000  0.000000 -0.298554 -0.028435
  0C   2px        0.066449 -0.000000  0.000000  0.000000 -0.810897  0.298804
  0C   2py        0.195301 -0.000000  0.000000  0.000000  0.273402  0.855187
  0C   4s         0.000000  0.000000 -0.000000 -1.988271 -0.000000  0.000000
  0C   3pz       -0.152805  0.000000  0.000000  0.000000 -0.306173 -0.029161
  0C   3px        0.422995 -0.000000  0.000000 -0.000000 -0.831591  0.306430
  0C   3py        1.243237 -0.000000  0.000000 -0.000000  0.280380  0.877011
  0C   1dz2      -0.000000 -0.007639 -0.015111  0.000000  0.000000 -0.000000
  0C   1dxz      -0.016916  0.000000 -0.000000  0.000000 -0.001456 -0.004556
  0C   1dyz      -0.005755  0.000000 -0.000000  0.000000  0.004320 -0.001592
  0C   1dx2y2     0.000000  0.015111 -0.007639  0.000000 -0.000000 -0.000000
  0C   1dxy       0.002079 -0.000000 -0.000000  0.000000  0.001590  0.000151
  0C   2dz2       0.000000  0.511534  1.011928 -0.000000 -0.000000 -0.000000
  0C   2dxz       1.046737 -0.000000  0.000000 -0.000000 -0.097131 -0.303821
  0C   2dyz       0.356139 -0.000000  0.000000 -0.000000  0.288086 -0.106156
  0C   2dx2y2    -0.000000 -1.011928  0.511534  0.000000 -0.000000 -0.000000
  0C   2dxy      -0.128653  0.000000  0.000000  0.000000  0.106067  0.010102
  0C   3dz2      -0.000000 -0.233460 -0.461836  0.000000  0.000000 -0.000000
  0C   3dxz       0.345398 -0.000000  0.000000 -0.000000  0.259292  0.811051
  0C   3dyz       0.117517 -0.000000  0.000000 -0.000000 -0.769047  0.283383
  0C   3dx2y2     0.000000  0.461836 -0.233460 -0.000000  0.000000 -0.000000
  0C   3dxy      -0.042453  0.000000  0.000000  0.000000 -0.283146 -0.026968
  0C   1f0        0.001931 -0.000000 -0.000000  0.000000  0.122519  0.011669
  0C   1f+1       0.003274 -0.000000  0.000000  0.000000 -0.203781  0.075091
  0C   1f-1       0.009623 -0.000000  0.000000  0.000000  0.068707  0.214911
  0C   1f+2       0.000000  0.000000 -0.000000 -0.000000 -0.000000  0.000000
  0C   1f-2      -0.000000 -0.000000  0.000000 -0.402990 -0.000000  0.000000
  0C   1f+3       0.004227 -0.000000  0.000000  0.000000 -0.263080  0.096941
  0C   1f-3      -0.012423  0.000000 -0.000000 -0.000000 -0.088700 -0.277449
  1H   1s        -0.280458  0.000000 -0.000000 -0.604352  0.140352 -0.694547
  1H   2s         1.605953 -0.000000  0.000000  1.263959 -0.338751  1.676348
  1H   3s         0.016011 -0.000000  0.000000 -0.089923  0.007647 -0.037841
  2H   1s        -0.102905 -0.000000  0.000000 -0.604352 -0.461540 -0.310112
  2H   2s         0.589252  0.000000 -0.000000  1.263959  1.113967  0.748481
  2H   3s         0.005875  0.000000 -0.000000 -0.089923 -0.025146 -0.016896
  3H   1s         0.150023 -0.000000 -0.000000 -0.604352  0.812276  0.343517
  3H   2s        -0.859063  0.000000  0.000000  1.263959 -1.960497 -0.829107
  3H   3s        -0.008565  0.000000  0.000000 -0.089923  0.044255  0.018716
  4H   1s         0.233339 -0.000000  0.000000 -0.604352 -0.491088  0.661142
  4H   2s        -1.336142  0.000000 -0.000000  1.263959  1.185282 -1.595722
  4H   3s        -0.013321 -0.000000 -0.000000 -0.089923 -0.026756  0.036021
                     30        31        32        33        34        35   
                   2.83056   3.02932   3.02932   3.02932   3.19607   3.19607
                   0.00000   0.00000   0.00000   0.00000   0.00000   0.00000
                  --------  --------  --------  --------  --------  --------
  0C   1s        -0.000000 -0.000000 -0.000000 -0.000000 -0.000000 -0.000000
  0C   2s        -0.000000 -0.000000  0.000000 -0.000000  0.000000  0.000000
  0C   1pz       -0.705786 -0.000000  0.000000 -0.000000  0.087173  0.504921
  0C   1px        0.225390  0.000000 -0.000000  0.000000 -0.677902  0.503795
  0C   1py       -0.102219  0.000000 -0.000000 -0.000000 -0.564833 -0.526719
  0C   3s         0.000000  0.000000  0.000000  0.000000  0.000000  0.000000
  0C   2pz        0.855275  0.000000 -0.000000  0.000000 -0.104239 -0.603767
  0C   2px       -0.273129 -0.000000  0.000000 -0.000000  0.810613 -0.602421
  0C   2py        0.123870 -0.000000  0.000000  0.000000  0.675409  0.629833
  0C   4s        -0.000000 -0.000000 -0.000000 -0.000000 -0.000000 -0.000000
  0C   3pz        0.877101 -0.000000  0.000000 -0.000000  0.166414  0.963892
  0C   3px       -0.280099 -0.000000 -0.000000 -0.000000 -1.294113  0.961743
  0C   3py        0.127031  0.000000 -0.000000  0.000000 -1.078265 -1.005504
  0C   1dz2       0.000000 -0.000000  0.000000  0.000000  0.000000 -0.000000
[...]
    6. BD*( 1) C  1- H  2       0.00688
    7. BD*( 1) C  1- H  3       0.00688
    8. BD*( 1) C  1- H  4       0.00688
    9. BD*( 1) C  1- H  5       0.00688
   10. RY ( 1) C  1             0.00370
   11. RY ( 2) C  1             0.00370
   12. RY ( 3) C  1             0.00370
   13. RY ( 4) C  1             0.00313
   14. RY ( 5) C  1             0.00313
   15. RY ( 6) C  1             0.00106
   16. RY ( 7) C  1             0.00085
   17. RY ( 8) C  1             0.00085
   18. RY ( 9) C  1             0.00085
   19. RY (10) C  1             0.00034
   20. RY (11) C  1             0.00034
   21. RY (12) C  1             0.00034
   22. RY (13) C  1             0.00025
   23. RY (14) C  1             0.00025
   24. RY (15) C  1             0.00023
   25. RY (16) C  1             0.00023
   26. RY (17) C  1             0.00023
   27. RY (18) C  1             0.00018
   28. RY (19) C  1             0.00018
   29. RY (20) C  1             0.00018
   30. RY (21) C  1             0.00016
   31. RY (22) C  1             0.00013
   32. RY (23) C  1             0.00004
   33. RY (24) C  1             0.00004
   34. RY (25) C  1             0.00004
   35. RY (26) C  1             0.00003
   36. RY (27) C  1             0.00003
   37. RY (28) C  1             0.00002
   38. RY (29) C  1             0.00002
   39. RY (30) C  1             0.00002
   40. RY ( 1) H  2             0.00124
   41. RY ( 2) H  2             0.00021
   42. RY ( 1) H  3             0.00124
   43. RY ( 2) H  3             0.00021
   44. RY ( 1) H  4             0.00124
   45. RY ( 2) H  4             0.00021
   46. RY ( 1) H  5             0.00124
   47. RY ( 2) H  5             0.00021
          -------------------------------
                 Total Lewis    4.94247  ( 98.8494%)
           Valence non-Lewis    0.02754  (  0.5507%)
           Rydberg non-Lewis    0.03000  (  0.5999%)
          -------------------------------
               Total unit  1    5.00000  (100.0000%)
              Charge unit  1    0.00000

 $CHOOSE
  ALPHA
   BOND S 1 2 S 1 3 S 1 4 S 1 5 END
  END
  BETA
   BOND S 1 2 S 1 3 S 1 4 S 1 5 END
  END
 $END

 NBO analysis completed in 0.11 CPU seconds (1 wall second)
 Maximum scratch memory used by NBO was 468516 words (3.57 MB)
Stopping NBO...Storing NBOs: methane.pmp2re.nbo

                                *** returned from   NBO  program ***


----------------------------------
MP2 DERIVATIVE INTEGRAL GENERATION
----------------------------------


Input Wavefunction Amplitudes       ... methane.mp2tbb.tmp
Input Correlated Electron Density   ... methane.pmp2re
Input Energy Weighted Density       ... methane.wmp2.tmp
Input SCF Electron Density          ... methane.scfp

One-Electron Terms    ...
                        ... One-Electron Terms done
Prescreening matrices              ... done

Batch handling in the gradient evaluation:
Memory available                      ... 3000.0 MB
Memory per occupied orbital in Q2     ...    0.2 MB
Memory per occupied orbital in Q3     ...    0.0 MB
Total memory requirement per |i>      ...    0.2 MB
Max. Number of orbitals possible      ...  16120
Number of orbitals treated per batch  ...     10
Number of batches to be done          ...      1
Batch   0: i=    0 ...     9

---------------------------------------
MP2 TOTAL ENERGY:      -40.400521702 Eh
---------------------------------------

-----------------------------------
NORM OF THE MP2 GRADIENT:  0.000000
-----------------------------------

-------------------------   --------------------
FINAL SINGLE POINT ENERGY       -40.400521702477
-------------------------   --------------------

                                *** OPTIMIZATION RUN DONE ***

                            ***************************************
                            *     ORCA property calculations      *
                            ***************************************

                                    ---------------------
                                    Active property flags
                                    ---------------------
   (+) Dipole Moment


------------------------------------------------------------------------------
                       ORCA ELECTRIC PROPERTIES CALCULATION
------------------------------------------------------------------------------

Dipole Moment Calculation                       ... on
Quadrupole Moment Calculation                   ... off
Polarizability Calculation                      ... off
GBWName                                         ... methane.gbw
Electron density file                           ... methane.scfp
The origin for moment calculation is the CENTER OF MASS  = (-0.000000, -0.000000 -0.000000)

-------------
DIPOLE MOMENT
-------------
                                X             Y             Z
Electronic contribution:     -0.00000      -0.00000      -0.00000
Nuclear contribution   :      0.00000       0.00000       0.00000
                        -----------------------------------------
Total Dipole Moment    :     -0.00000       0.00000       0.00000
                        -----------------------------------------
Magnitude (a.u.)       :      0.00000
Magnitude (Debye)      :      0.00000



--------------------
Rotational spectrum 
--------------------
 
Rotational constants in cm-1:     5.325625     5.325625     5.325625 
Rotational constants in MHz : 159658.207900 159658.207900 159658.207898 

 Dipole components along the rotational axes: 
x,y,z [a.u.] :     0.000000    -0.000000     0.000000 
x,y,z [Debye]:     0.000000    -0.000000     0.000000 

 

                         *** MP2 UNRELAXED DENSITY ***

------------------------------------------------------------------------------
                       ORCA ELECTRIC PROPERTIES CALCULATION
------------------------------------------------------------------------------

Dipole Moment Calculation                       ... on
Quadrupole Moment Calculation                   ... off
Polarizability Calculation                      ... off
GBWName                                         ... methane.gbw
Electron density file                           ... methane.pmp2ur
The origin for moment calculation is the CENTER OF MASS  = (-0.000000, -0.000000 -0.000000)

-------------
DIPOLE MOMENT
-------------
                                X             Y             Z
Electronic contribution:     -0.00000      -0.00000      -0.00000
Nuclear contribution   :      0.00000       0.00000       0.00000
                        -----------------------------------------
Total Dipole Moment    :     -0.00000       0.00000       0.00000
                        -----------------------------------------
Magnitude (a.u.)       :      0.00000
Magnitude (Debye)      :      0.00000



--------------------
Rotational spectrum 
--------------------
 
Rotational constants in cm-1:     5.325625     5.325625     5.325625 
Rotational constants in MHz : 159658.207900 159658.207900 159658.207898 

 Dipole components along the rotational axes: 
x,y,z [a.u.] :     0.000000    -0.000000     0.000000 
x,y,z [Debye]:     0.000000    -0.000000     0.000000 

 

                           *** MP2 RELAXED DENSITY ***

------------------------------------------------------------------------------
                       ORCA ELECTRIC PROPERTIES CALCULATION
------------------------------------------------------------------------------

Dipole Moment Calculation                       ... on
Quadrupole Moment Calculation                   ... off
Polarizability Calculation                      ... off
GBWName                                         ... methane.gbw
Electron density file                           ... methane.pmp2re
The origin for moment calculation is the CENTER OF MASS  = (-0.000000, -0.000000 -0.000000)

-------------
DIPOLE MOMENT
-------------
                                X             Y             Z
Electronic contribution:     -0.00000      -0.00000      -0.00000
Nuclear contribution   :      0.00000       0.00000       0.00000
                        -----------------------------------------
Total Dipole Moment    :     -0.00000       0.00000       0.00000
                        -----------------------------------------
Magnitude (a.u.)       :      0.00000
Magnitude (Debye)      :      0.00000



--------------------
Rotational spectrum 
--------------------
 
Rotational constants in cm-1:     5.325625     5.325625     5.325625 
Rotational constants in MHz : 159658.207900 159658.207900 159658.207898 

 Dipole components along the rotational axes: 
x,y,z [a.u.] :     0.000000    -0.000000     0.000000 
x,y,z [Debye]:     0.000000    -0.000000     0.000000 

 
------------------------------------------------------------------------------
                         ORCA MP2 H E S S I A N CALCULATION
------------------------------------------------------------------------------

Calculating analytic MP2 second derivatives ... (>methane.last_mp2) done

-----------------------
VIBRATIONAL FREQUENCIES
-----------------------

Scaling factor for frequencies =  1.000000000  (already applied!)

   0:         0.00 cm**-1
   1:         0.00 cm**-1
   2:         0.00 cm**-1
   3:         0.00 cm**-1
   4:         0.00 cm**-1
   5:         0.00 cm**-1
   6:      1349.82 cm**-1
   7:      1349.82 cm**-1
   8:      1349.82 cm**-1
   9:      1581.31 cm**-1
  10:      1581.31 cm**-1
  11:      3092.85 cm**-1
  12:      3236.65 cm**-1
  13:      3236.65 cm**-1
  14:      3236.65 cm**-1


------------
NORMAL MODES
------------

These modes are the Cartesian displacements weighted by the diagonal matrix
M(i,i)=1/sqrt(m[i]) where m[i] is the mass of the displaced atom
Thus, these vectors are normalized but *not* orthogonal

                  0          1          2          3          4          5    
      0       0.000000   0.000000   0.000000   0.000000   0.000000   0.000000
      1       0.000000   0.000000   0.000000   0.000000   0.000000   0.000000
      2       0.000000   0.000000   0.000000   0.000000   0.000000   0.000000
      3       0.000000   0.000000   0.000000   0.000000   0.000000   0.000000
      4       0.000000   0.000000   0.000000   0.000000   0.000000   0.000000
      5       0.000000   0.000000   0.000000   0.000000   0.000000   0.000000
      6       0.000000   0.000000   0.000000   0.000000   0.000000   0.000000
      7       0.000000   0.000000   0.000000   0.000000   0.000000   0.000000
      8       0.000000   0.000000   0.000000   0.000000   0.000000   0.000000
      9       0.000000   0.000000   0.000000   0.000000   0.000000   0.000000
     10       0.000000   0.000000   0.000000   0.000000   0.000000   0.000000
     11       0.000000   0.000000   0.000000   0.000000   0.000000   0.000000
     12       0.000000   0.000000   0.000000   0.000000   0.000000   0.000000
     13       0.000000   0.000000   0.000000   0.000000   0.000000   0.000000
     14       0.000000   0.000000   0.000000   0.000000   0.000000   0.000000
                  6          7          8          9         10         11    
      0      -0.070756   0.098980  -0.027126  -0.000000   0.000000  -0.000000
      1       0.073556   0.025931  -0.097243  -0.000000   0.000000   0.000000
      2       0.071570   0.071203   0.073124   0.000000   0.000000   0.000000
      3       0.214482  -0.379331  -0.237109  -0.030127   0.407135   0.288675
      4      -0.484707  -0.025414   0.102608   0.367653  -0.177476   0.288675
      5      -0.218427  -0.445199   0.014252   0.337526   0.229659  -0.288675
      6      -0.060038  -0.476110   0.125816   0.030127  -0.407135  -0.288675
      7       0.046473  -0.129081   0.476753   0.367653  -0.177476   0.288675
      8       0.056093  -0.348419  -0.348673  -0.337526  -0.229659   0.288675
      9       0.207071  -0.210373   0.398723  -0.030127   0.407135   0.288675
     10      -0.220636  -0.394818   0.203846  -0.367653   0.177476  -0.288675
     11      -0.482498  -0.075794  -0.086986  -0.337526  -0.229659   0.288675
     12       0.481591  -0.113594   0.035798   0.030127  -0.407135  -0.288675
     13      -0.217597   0.240323   0.375515  -0.367653   0.177476  -0.288675
     14      -0.207978   0.020985  -0.449911   0.337526   0.229659  -0.288675
                  12         13         14    
      0       0.073350   0.017434  -0.053377
      1       0.021595   0.072299   0.053290
      2       0.051834  -0.054793   0.053333
      3      -0.122469  -0.455568   0.159142
      4      -0.132664  -0.444760   0.180154
      5       0.147128   0.448209  -0.159151
      6       0.014698   0.003664   0.497632
      7       0.004005   0.014012  -0.497649
      8       0.009961  -0.011023  -0.497640
      9      -0.314541   0.351696   0.158872
     10       0.333244  -0.334020  -0.158889
     11      -0.318780   0.337469   0.179892
     12      -0.451708  -0.107535  -0.179618
     13      -0.461903  -0.096728  -0.158606
     14      -0.455947  -0.121763  -0.158597


-----------
IR SPECTRUM
-----------

 Mode    freq (cm**-1)   T**2         TX         TY         TZ
-------------------------------------------------------------------
   6:      1349.82   12.095082  (  1.974030  -2.052142  -1.996747)
   7:      1349.82   12.095082  ( -2.761439  -0.723462  -1.986489)
   8:      1349.82   12.095082  (  0.756797   2.713006  -2.040084)
   9:      1581.31    0.000000  (  0.000000   0.000000  -0.000000)
  10:      1581.31    0.000000  ( -0.000000  -0.000000  -0.000000)
  11:      3092.85    0.000000  ( -0.000001   0.000001   0.000001)
  12:      3236.65   14.373011  (  3.010341   0.886269   2.127295)
  13:      3236.65   14.373011  (  0.715518   2.967204  -2.248721)
  14:      3236.65   14.373004  ( -2.190636   2.187061   2.188808)

The first frequency considered to be a vibration is 6
The total number of vibrations considered is 9


--------------------------
THERMOCHEMISTRY AT 298.15K
--------------------------

Temperature         ... 298.15 K
Pressure            ... 1.00 atm
Total Mass          ... 16.04 AMU

Throughout the following assumptions are being made:
  (1) The electronic state is orbitally nondegenerate
  (2) There are no thermally accessible electronically excited states
  (3) Hindered rotations indicated by low frequency modes are not
      treated as such but are treated as vibrations and this may
      cause some error
  (4) All equations used are the standard statistical mechanics
      equations for an ideal gas
  (5) All vibrations are strictly harmonic

freq.    1349.82  E(vib)   ...       0.01 
freq.    1349.82  E(vib)   ...       0.01 
freq.    1349.82  E(vib)   ...       0.01 
freq.    1581.31  E(vib)   ...       0.00 
freq.    1581.31  E(vib)   ...       0.00 
freq.    3092.85  E(vib)   ...       0.00 
freq.    3236.65  E(vib)   ...       0.00 
freq.    3236.65  E(vib)   ...       0.00 
freq.    3236.65  E(vib)   ...       0.00 

------------
INNER ENERGY
------------

The inner energy is: U= E(el) + E(ZPE) + E(vib) + E(rot) + E(trans)
    E(el)   - is the total energy from the electronic structure calculation
              = E(kin-el) + E(nuc-el) + E(el-el) + E(nuc-nuc)
    E(ZPE)  - the the zero temperature vibrational energy from the frequency calculation
    E(vib)  - the the finite temperature correction to E(ZPE) due to population
              of excited vibrational states
    E(rot)  - is the rotational thermal energy
    E(trans)- is the translational thermal energy

Summary of contributions to the inner energy U:
Electronic energy                ...    -40.40052170 Eh
Zero point energy                ...      0.04559723 Eh      28.61 kcal/mol
Thermal vibrational correction   ...      0.00003441 Eh       0.02 kcal/mol
Thermal rotational correction    ...      0.00141627 Eh       0.89 kcal/mol
Thermal translational correction ...      0.00141627 Eh       0.89 kcal/mol
-----------------------------------------------------------------------
Total thermal energy                    -40.35205752 Eh


Summary of corrections to the electronic energy:
(perhaps to be used in another calculation)
Total thermal correction                  0.00286696 Eh       1.80 kcal/mol
Non-thermal (ZPE) correction              0.04559723 Eh      28.61 kcal/mol
-----------------------------------------------------------------------
Total correction                          0.04846418 Eh      30.41 kcal/mol


--------
ENTHALPY
--------

The enthalpy is H = U + kB*T
                kB is Boltzmann's constant
Total free energy                 ...    -40.35205752 Eh 
Thermal Enthalpy correction       ...      0.00094421 Eh       0.59 kcal/mol
-----------------------------------------------------------------------
Total Enthalpy                    ...    -40.35111331 Eh


Note: Rotational entropy computed according to Herzberg 
Infrared and Raman Spectra, Chapter V,1, Van Nostrand Reinhold, 1945 
Point Group:  Td, Symmetry Number:  12  
Rotational constants in cm-1:     5.325625     5.325625     5.325625 

Vibrational entropy computed according to the QRRHO of S. Grimme
Chem.Eur.J. 2012 18 9955


-------
ENTROPY
-------

The entropy contributions are T*S = T*(S(el)+S(vib)+S(rot)+S(trans))
     S(el)   - electronic entropy
     S(vib)  - vibrational entropy
     S(rot)  - rotational entropy
     S(trans)- translational entropy
The entropies will be listed as mutliplied by the temperature to get
units of energy

Electronic entropy                ...      0.00000000 Eh      0.00 kcal/mol
Vibrational entropy               ...      0.00003954 Eh      0.02 kcal/mol
Rotational entropy                ...      0.00479585 Eh      3.01 kcal/mol
Translational entropy             ...      0.01627961 Eh     10.22 kcal/mol
-----------------------------------------------------------------------
Final entropy term                ...      0.02111501 Eh     13.25 kcal/mol

In case the symmetry of your molecule has not been determined correctly
or in case you have a reason to use a different symmetry number we print 
out the resulting rotational entropy values for sn=1,12 :
 --------------------------------------------------------
|  sn= 1 | S(rot)=       0.00714205 Eh      4.48 kcal/mol|
|  sn= 2 | S(rot)=       0.00648760 Eh      4.07 kcal/mol|
|  sn= 3 | S(rot)=       0.00610476 Eh      3.83 kcal/mol|
|  sn= 4 | S(rot)=       0.00583314 Eh      3.66 kcal/mol|
|  sn= 5 | S(rot)=       0.00562245 Eh      3.53 kcal/mol|
|  sn= 6 | S(rot)=       0.00545031 Eh      3.42 kcal/mol|
|  sn= 7 | S(rot)=       0.00530476 Eh      3.33 kcal/mol|
|  sn= 8 | S(rot)=       0.00517868 Eh      3.25 kcal/mol|
|  sn= 9 | S(rot)=       0.00506748 Eh      3.18 kcal/mol|
|  sn=10 | S(rot)=       0.00496800 Eh      3.12 kcal/mol|
|  sn=11 | S(rot)=       0.00487801 Eh      3.06 kcal/mol|
|  sn=12 | S(rot)=       0.00479585 Eh      3.01 kcal/mol|
 --------------------------------------------------------


-------------------
GIBBS FREE ENERGY
-------------------

The Gibbs free energy is G = H - T*S

Total enthalpy                    ...    -40.35111331 Eh 
Total entropy correction          ...     -0.02111501 Eh    -13.25 kcal/mol
-----------------------------------------------------------------------
Final Gibbs free energy         ...    -40.37222832 Eh

For completeness - the Gibbs free energy minus the electronic energy
G-E(el)                           ...      0.02829339 Eh     17.75 kcal/mol


Timings for individual modules:

Sum of individual times         ...      148.390 sec (=   2.473 min)
GTO integral calculation        ...        9.396 sec (=   0.157 min)   6.3 %
SCF iterations                  ...       27.006 sec (=   0.450 min)  18.2 %
MP2 module                      ...       35.403 sec (=   0.590 min)  23.9 %
Geometry relaxation             ...        0.083 sec (=   0.001 min)   0.1 %
Analytical frequency calculation...       76.503 sec (=   1.275 min)  51.6 %
                             ****ORCA TERMINATED NORMALLY****
TOTAL RUN TIME: 0 days 0 hours 2 minutes 29 seconds 873 msec
