(SLURM) JOB ID:         29

                                 *****************
                                 * O   R   C   A *
                                 *****************

           --- An Ab Initio, DFT and Semiempirical electronic structure package ---

                  #######################################################
                  #                        -***-                        #
                  #          Department of theory and spectroscopy      #
                  #               Directorship: Frank Neese             #
                  #        Max Planck Institute fuer Kohlenforschung    #
                  #                Kaiser Wilhelm Platz 1               #
                  #                 D-45470 Muelheim/Ruhr               #
                  #                      Germany                        #
                  #                                                     #
                  #                  All rights reserved                #
                  #                        -***-                        #
                  #######################################################


                         Program Version 4.2.1 -  RELEASE  -


 With contributions from (in alphabetic order):
   Daniel Aravena         : Magnetic Suceptibility
   Michael Atanasov       : Ab Initio Ligand Field Theory (pilot matlab implementation)
   Alexander A. Auer      : GIAO ZORA, VPT2
   Ute Becker             : Parallelization
   Giovanni Bistoni       : ED, misc. LED, open-shell LED, HFLD
   Martin Brehm           : Molecular dynamics
   Dmytro Bykov           : SCF Hessian
   Vijay G. Chilkuri      : MRCI spin determinant printing, contributions to CSF-ICE
   Dipayan Datta          : RHF DLPNO-CCSD density
   Achintya Kumar Dutta   : EOM-CC, STEOM-CC
   Dmitry Ganyushin       : Spin-Orbit,Spin-Spin,Magnetic field MRCI
   Miquel Garcia          : C-PCM Hessian, Gaussian charge scheme
   Yang Guo               : DLPNO-NEVPT2, CIM, IAO-localization
   Andreas Hansen         : Spin unrestricted coupled pair/coupled cluster methods
   Benjamin Helmich-Paris : CASSCF linear response (MC-RPA)
   Lee Huntington         : MR-EOM, pCC
   Robert Izsak           : Overlap fitted RIJCOSX, COSX-SCS-MP3, EOM
   Christian Kollmar      : KDIIS, OOCD, Brueckner-CCSD(T), CCSD density
   Simone Kossmann        : Meta GGA functionals, TD-DFT gradient, OOMP2, MP2 Hessian
   Martin Krupicka        : AUTO-CI
   Lucas Lang             : DCDCAS
   Dagmar Lenk            : GEPOL surface, SMD
   Dimitrios Liakos       : Extrapolation schemes; Compound Job, initial MDCI parallelization
   Dimitrios Manganas     : Further ROCIS development; embedding schemes
   Dimitrios Pantazis     : SARC Basis sets
   Taras Petrenko         : DFT Hessian,TD-DFT gradient, ASA, ECA, R-Raman, ABS, FL, XAS/XES, NRVS
   Peter Pinski           : DLPNO-MP2, DLPNO-MP2 Gradient
   Christoph Reimann      : Effective Core Potentials
   Marius Retegan         : Local ZFS, SOC
   Christoph Riplinger    : Optimizer, TS searches, QM/MM, DLPNO-CCSD(T), (RO)-DLPNO pert. Triples
   Tobias Risthaus        : Range-separated hybrids, TD-DFT gradient, RPA, STAB
   Michael Roemelt        : Original ROCIS implementation
   Masaaki Saitow         : Open-shell DLPNO-CCSD energy and density
   Barbara Sandhoefer     : DKH picture change effects
   Avijit Sen             : IP-ROCIS
   Kantharuban Sivalingam : CASSCF convergence, NEVPT2, FIC-MRCI
   Bernardo de Souza      : ESD, SOC TD-DFT
   Georgi Stoychev        : AutoAux, RI-MP2 NMR
   Willem Van den Heuvel  : Paramagnetic NMR
   Boris Wezisla          : Elementary symmetry handling
   Frank Wennmohs         : Technical directorship


 We gratefully acknowledge several colleagues who have allowed us to
 interface, adapt or use parts of their codes:
   Stefan Grimme, W. Hujo, H. Kruse,             : VdW corrections, initial TS optimization,
                  C. Bannwarth                     DFT functionals, gCP, sTDA/sTD-DF
   Ed Valeev, F. Pavosevic, A. Kumar             : LibInt (2-el integral package), F12 methods
   Garnet Chan, S. Sharma, J. Yang, R. Olivares  : DMRG
   Ulf Ekstrom                                   : XCFun DFT Library
   Mihaly Kallay                                 : mrcc  (arbitrary order and MRCC methods)
   Andreas Klamt, Michael Diedenhofen            : otool_cosmo (COSMO solvation model)
   Jiri Pittner, Ondrej Demel                    : Mk-CCSD
   Frank Weinhold                                : gennbo (NPA and NBO analysis)
   Christopher J. Cramer and Donald G. Truhlar   : smd solvation model
   Lars Goerigk                                  : TD-DFT with DH, B97 family of functionals
   V. Asgeirsson, H. Jonsson                     : NEB implementation
   FAccTs GmbH                                   : IRC, NEB, NEB-TS, Multilevel, MM, QM/MM, CI optimization
   S Lehtola, MJT Oliveira, MAL Marques          : LibXC Library


 Your calculation uses the libint2 library for the computation of 2-el integrals
 For citations please refer to: http://libint.valeyev.net

 Your ORCA version has been built with support for libXC version: 4.2.3
 For citations please refer to: https://tddft.org/programs/libxc/

 This ORCA versions uses:
   CBLAS   interface :  Fast vector & matrix operations
   LAPACKE interface :  Fast linear algebra routines
   SCALAPACK package :  Parallel linear algebra routines




***************************************
The coordinates will be read from file: init.xyz
***************************************


Your calculation utilizes the atom-pairwise dispersion correction
with the Becke-Johnson damping scheme (D3BJ)
Cite in your paper:
S.Grimme, S.Ehrlich, L.Goerigk, J Comput Chem, (2011), 32, 1456–1465 
S.Grimme, J.Antony, S.Ehrlich and H.Krieg, J.Chem.Phys., 132, (2010), 154104 
   

Your calculation utilizes the SMD solvation module
Please cite in your paper:
A.V. Marenich, C.J. Cramer, D.G. Truhlar J. Phys. Chem. B, 113, (2009), 6378 

----- Orbital basis set information -----
Your calculation utilizes the basis: cc-pVTZ 
       H, B-Ne : Obtained from the ccRepo (grant-hill.group.shef.ac.uk/ccrepo) Feb. 2017
                 T. H. Dunning, Jr., J. Chem. Phys. 90, 1007 (1989)
            He : Obtained from the ccRepo (grant-hill.group.shef.ac.uk/ccrepo) Feb. 2017
                 D. E. Woon, T. H. Dunning, Jr., J. Chem. Phys. 100, 2975 (1994)
  Li-Be, Na-Mg : Obtained from the ccRepo (grant-hill.group.shef.ac.uk/ccrepo) Feb. 2017
                 B. P. Prascher, D. E. Woon, K. A. Peterson, T. H. Dunning, Jr., A. K. Wilson, Theor. Chem. Acc. 128, 69 (2011)
         Al-Ar : Obtained from the ccRepo (grant-hill.group.shef.ac.uk/ccrepo) Feb. 2017
                 D. E. Woon, T. H. Dunning, Jr., J. Chem. Phys. 98, 1358 (1993)
            Ca : Obtained from the Peterson Research Group Website (tyr0.chem.wsu.edu/~kipeters) Feb. 2017
                 J. Koput, K. A. Peterson, J. Phys. Chem. 106, 9595 (2002)
         Sc-Zn : Obtained from the ccRepo (grant-hill.group.shef.ac.uk/ccrepo) Feb. 2017
                 N. B. Balabanov, K. A. Peterson, J. Chem. Phys. 123, 064107 (2005)
                 N. B. Balabanov, K. A. Peterson, J. Chem. Phys. 125, 074110 (2006)
         Ga-Kr : Obtained from the ccRepo (grant-hill.group.shef.ac.uk/ccrepo) Feb. 2017
                 A. K. Wilson, D. E. Woon, K. A. Peterson, T. H. Dunning, Jr., J. Chem. Phys. 110, 7667 (1999)
             Y : Obtained from the ccRepo (grant-hill.group.shef.ac.uk/ccrepo) Feb. 2017
                 K. A. Peterson, D. Figgen, M. Dolg, H. Stoll, J. Chem. Phys. 126, 124101 (2007)
        Ag, Au : Obtained from the Peterson Research Group Website (tyr0.chem.wsu.edu/~kipeters) Feb. 2017
                 K. A. Peterson, C. Puzzarini, Theor. Chem. Acc. 114, 283 (2005)

----- AuxJ basis set information -----
Your calculation utilizes the AutoAux generation procedure.
  G. L. Stoychev, A. A. Auer, F. Neese, J. Chem. Theory Comput. 13, 554 (2017)

----- AuxC basis set information -----
Your calculation utilizes the AutoAux generation procedure.
  G. L. Stoychev, A. A. Auer, F. Neese, J. Chem. Theory Comput. 13, 554 (2017)

----- AuxJK basis set information -----
Your calculation utilizes the AutoAux generation procedure.
  G. L. Stoychev, A. A. Auer, F. Neese, J. Chem. Theory Comput. 13, 554 (2017)

================================================================================
                                        WARNINGS
                       Please study these warnings very carefully!
================================================================================


WARNING: Geometry Optimization
  ===> : Switching off AutoStart
         For restart on a previous wavefunction, please use MOREAD

INFO   : the flag for use of LIBINT has been found!

================================================================================
                                       INPUT FILE
================================================================================
NAME = /tmp/slurm-scratch/opt+freq.29/opt+freq.inp
|  1> ! B3LYP D3BJ cc-pVTZ RIJCOSX AutoAux Opt Freq TightSCF Grid4 FinalGrid5 GridX4 PrintBasis PrintMOs
|  2> %maxcore 1450
|  3> 
|  4> * xyzfile 0 1 init.xyz
|  5> 
|  6> %cpcm
|  7>  smd true
|  8>  smdsolvent "dichloromethane"
|  9> end
| 10> 
| 11> %geom
| 12>  maxiter 30
| 13>  trust 0.2
| 14>  inhess read
| 15>  inhessname "freq.hess"
| 16> end
| 17> %pal nprocs 8 end
| 18> 
| 19>                          ****END OF INPUT****
================================================================================

                       *****************************
                       * Geometry Optimization Run *
                       *****************************

Geometry optimization settings:
Update method            Update   .... BFGS
Choice of coordinates    CoordSys .... Z-matrix Internals
Initial Hessian          InHess   .... Read

Convergence Tolerances:
Energy Change            TolE     ....  5.0000e-06 Eh
Max. Gradient            TolMAXG  ....  3.0000e-04 Eh/bohr
RMS Gradient             TolRMSG  ....  1.0000e-04 Eh/bohr
Max. Displacement        TolMAXD  ....  4.0000e-03 bohr
RMS Displacement         TolRMSD  ....  2.0000e-03 bohr
Strict Convergence                ....  False
------------------------------------------------------------------------------
                        ORCA OPTIMIZATION COORDINATE SETUP
------------------------------------------------------------------------------

The optimization will be done in new redundant internal coordinates
Making redundant internal coordinates   ...  (new redundants) done
Evaluating the initial hessian          ... (Reading Exact Hessian)...  
InHessName: freq.hess	The file <freq.hess> is opened as a .hess file
done
done
Diagonalizing the Hessian               .... done
Dimension of the hessian                .... 63
Lowest eigenvalues of the non projected Hessian:
 -0.000000000 -0.000000000 -0.000000000 -0.000000000 -0.000000000
done
Evaluating the coordinates              ...  done
Calculating the B-matrix                .... done
Calculating the G-matrix                .... done
Diagonalizing the G-matrix              .... done
The first mode is                       ....   27
The number of degrees of freedom        ....   36

    -----------------------------------------------------------------
                    Redundant Internal Coordinates


    -----------------------------------------------------------------
         Definition                    Initial Value    d2E/dq (diagonal element)
    -----------------------------------------------------------------
      1. B(C   1,C   0)                  1.3961         0.399282   
      2. B(C   2,C   1)                  1.3887         0.407127   
      3. B(C   3,C   2)                  1.3910         0.402471   
      4. B(C   4,C   3)                  1.3954         0.392807   
      5. B(C   5,C   4)                  1.3846         0.415441   
      6. B(C   5,C   0)                  1.3989         0.391604   
      7. B(H   6,C   1)                  1.0829         0.330941   
      8. B(H   7,C   2)                  1.0814         0.334848   
      9. B(H   8,C   3)                  1.0819         0.333987   
     10. B(H   9,C   4)                  1.0816         0.334429   
     11. B(H  10,C   5)                  1.0814         0.336156   
     12. B(C  11,C   0)                  1.4716         0.316532   
     13. B(O  12,C  11)                  1.2146         0.769058   
     14. B(H  13,C  11)                  1.1057         0.277533   
     15. A(C   1,C   0,C  11)          118.9989         0.108602   
     16. A(C   5,C   0,C  11)          121.0616         0.102812   
     17. A(C   1,C   0,C   5)          119.9394         0.075231   
     18. A(C   0,C   1,H   6)          119.4784         0.074023   
     19. A(C   2,C   1,H   6)          120.3985         0.074773   
     20. A(C   0,C   1,C   2)          120.1231         0.073466   
     21. A(C   3,C   2,H   7)          120.1365         0.074243   
     22. A(C   1,C   2,H   7)          120.1686         0.074398   
     23. A(C   1,C   2,C   3)          119.6949         0.073348   
     24. A(C   2,C   3,C   4)          120.4000         0.073590   
     25. A(C   4,C   3,H   8)          119.7611         0.074652   
     26. A(C   2,C   3,H   8)          119.8389         0.074631   
     27. A(C   5,C   4,H   9)          120.1082         0.074508   
     28. A(C   3,C   4,H   9)          119.9138         0.074512   
     29. A(C   3,C   4,C   5)          119.9780         0.073256   
     30. A(C   0,C   5,H  10)          119.1133         0.072706   
     31. A(C   0,C   5,C   4)          119.8646         0.073417   
     32. A(C   4,C   5,H  10)          121.0221         0.072171   
     33. A(O  12,C  11,H  13)          120.4159         0.111432   
     34. A(C   0,C  11,H  13)          114.5857         0.094783   
     35. A(C   0,C  11,O  12)          124.9983         0.133425   
     36. D(H   6,C   1,C   0,C   5)   -179.9911         0.006929   
     37. D(C   2,C   1,C   0,C   5)     -0.0003         0.006481   
     38. D(C   2,C   1,C   0,C  11)    179.9983         0.006555   
     39. D(H   6,C   1,C   0,C  11)      0.0076         0.006614   
     40. D(C   3,C   2,C   1,C   0)      0.0061         0.007531   
     41. D(C   3,C   2,C   1,H   6)    179.9968         0.007935   
     42. D(H   7,C   2,C   1,H   6)      0.0334         0.008240   
     43. D(H   7,C   2,C   1,C   0)   -179.9573         0.008153   
     44. D(H   8,C   3,C   2,H   7)     -0.0297         0.008312   
     45. D(H   8,C   3,C   2,C   1)   -179.9931         0.008086   
     46. D(C   4,C   3,C   2,H   7)    179.9592         0.008060   
     47. D(C   4,C   3,C   2,C   1)     -0.0042         0.007619   
     48. D(H   9,C   4,C   3,C   2)    179.9913         0.008084   
     49. D(C   5,C   4,C   3,H   8)    179.9854         0.007969   
     50. D(C   5,C   4,C   3,C   2)     -0.0034         0.007606   
     51. D(H   9,C   4,C   3,H   8)     -0.0199         0.008352   
     52. D(H  10,C   5,C   4,H   9)     -0.0022         0.008323   
     53. D(C   0,C   5,C   4,H   9)   -179.9855         0.008320   
     54. D(C   0,C   5,C   4,C   3)      0.0092         0.007429   
     55. D(H  10,C   5,C   0,C  11)      0.0105         0.006729   
     56. D(H  10,C   5,C   0,C   1)   -179.9909         0.006874   
     57. D(H  10,C   5,C   4,C   3)    179.9924         0.008008   
     58. D(C   4,C   5,C   0,C  11)    179.9940         0.006497   
     59. D(C   4,C   5,C   0,C   1)     -0.0073         0.006410   
     60. D(H  13,C  11,C   0,C   5)   -179.9398         0.016724   
     61. D(H  13,C  11,C   0,C   1)      0.0615         0.017563   
     62. D(O  12,C  11,C   0,C   5)      0.0578         0.019046   
     63. D(O  12,C  11,C   0,C   1)   -179.9409         0.017915   
    -----------------------------------------------------------------

Number of atoms                         .... 14
Number of degrees of freedom            .... 63

         *************************************************************
         *                GEOMETRY OPTIMIZATION CYCLE   1            *
         *************************************************************
---------------------------------
CARTESIAN COORDINATES (ANGSTROEM)
---------------------------------
  C     -1.698560    0.070127    0.000050
  C     -0.302522    0.061252    0.000524
  C      0.402052    1.257984   -0.000024
  C     -0.289629    2.464862   -0.000919
  C     -1.684985    2.479043   -0.001357
  C     -2.388995    1.286740   -0.000972
  H      0.224354   -0.884809    0.001169
  H      1.483472    1.251967   -0.000354
  H      0.256933    3.398567   -0.001461
  H     -2.214817    3.421977   -0.001910
  H     -3.470343    1.278023   -0.001179
  C     -2.420147   -1.212409    0.000611
  O     -3.628868   -1.331675   -0.000747
  H     -1.769443   -2.106350    0.002469

----------------------------
CARTESIAN COORDINATES (A.U.)
----------------------------
  NO LB      ZA    FRAG     MASS         X           Y           Z
   0 C     6.0000    0    12.011   -3.209813    0.132521    0.000094
   1 C     6.0000    0    12.011   -0.571684    0.115750    0.000990
   2 C     6.0000    0    12.011    0.759768    2.377245   -0.000045
   3 C     6.0000    0    12.011   -0.547319    4.657914   -0.001737
   4 C     6.0000    0    12.011   -3.184160    4.684712   -0.002564
   5 C     6.0000    0    12.011   -4.514546    2.431586   -0.001837
   6 H     1.0000    0     1.008    0.423968   -1.672047    0.002209
   7 H     1.0000    0     1.008    2.803356    2.365875   -0.000669
   8 H     1.0000    0     1.008    0.485533    6.422361   -0.002761
   9 H     1.0000    0     1.008   -4.185398    6.466599   -0.003609
  10 H     1.0000    0     1.008   -6.557998    2.415113   -0.002228
  11 C     6.0000    0    12.011   -4.573415   -2.291121    0.001155
  12 O     8.0000    0    15.999   -6.857567   -2.516501   -0.001412
  13 H     1.0000    0     1.008   -3.343763   -3.980425    0.004666

--------------------------------
INTERNAL COORDINATES (ANGSTROEM)
--------------------------------
 C      0   0   0     0.000000000000     0.00000000     0.00000000
 C      1   0   0     1.396066290598     0.00000000     0.00000000
 C      2   1   0     1.388737664789   120.12312590     0.00000000
 C      3   2   1     1.391034835534   119.69491914     0.00000000
 C      4   3   2     1.395428127616   120.39999043     0.00000000
 C      5   4   3     1.384635934870   119.97796464     0.00000000
 H      2   1   3     1.082880487922   119.47835597   180.00922056
 H      3   2   1     1.081436789456   120.16859402   180.04268977
 H      4   3   2     1.081912815634   119.83891669   180.00693994
 H      5   4   3     1.081594555455   119.91379298   179.99126026
 H      6   5   4     1.081383154133   121.02210936   179.99242760
 C      1   2   3     1.471593253785   118.99894717   179.99832947
 O     12   1   2     1.214591568702   124.99834692   180.05914669
 H     12   1   2     1.105689675841   114.58574623     0.06153653

---------------------------
INTERNAL COORDINATES (A.U.)
---------------------------
 C      0   0   0     0.000000000000     0.00000000     0.00000000
 C      1   0   0     2.638182954030     0.00000000     0.00000000
 C      2   1   0     2.624333858313   120.12312590     0.00000000
 C      3   2   1     2.628674881904   119.69491914     0.00000000
 C      4   3   2     2.636977000764   120.39999043     0.00000000
 C      5   4   3     2.616582712091   119.97796464     0.00000000
 H      2   1   3     2.046347557939   119.47835597   180.00922056
 H      3   2   1     2.043619363219   120.16859402   180.04268977
 H      4   3   2     2.044518922328   119.83891669   180.00693994
 H      5   4   3     2.043917497749   119.91379298   179.99126026
 H      6   5   4     2.043518007147   121.02210936   179.99242760
 C      1   2   3     2.780908230180   118.99894717   179.99832947
 O     12   1   2     2.295245429416   124.99834692   180.05914669
 H     12   1   2     2.089450676443   114.58574623     0.06153653

---------------------
BASIS SET INFORMATION
---------------------
There are 3 groups of distinct atoms

 Group   1 Type C   : 18s5p2d1f contracted to 4s3p2d1f pattern {8811/311/11/1}
 Group   2 Type H   : 5s2p1d contracted to 3s2p1d pattern {311/11/1}
 Group   3 Type O   : 18s5p2d1f contracted to 4s3p2d1f pattern {8811/311/11/1}

Atom   0C    basis set group =>   1
Atom   1C    basis set group =>   1
Atom   2C    basis set group =>   1
Atom   3C    basis set group =>   1
Atom   4C    basis set group =>   1
Atom   5C    basis set group =>   1
Atom   6H    basis set group =>   2
Atom   7H    basis set group =>   2
Atom   8H    basis set group =>   2
Atom   9H    basis set group =>   2
Atom  10H    basis set group =>   2
Atom  11C    basis set group =>   1
Atom  12O    basis set group =>   3
Atom  13H    basis set group =>   2

-------------------------
BASIS SET IN INPUT FORMAT
-------------------------

 # Basis set for element : H 
 NewGTO H 
 S 3 
   1      33.8700000000      0.0254948632
   2       5.0950000000      0.1903627659
   3       1.1590000000      0.8521620222
 S 1 
   1       0.3258000000      1.0000000000
 S 1 
   1       0.1027000000      1.0000000000
 P 1 
   1       1.4070000000      1.0000000000
 P 1 
   1       0.3880000000      1.0000000000
 D 1 
   1       1.0570000000      1.0000000000
  end;

 # Basis set for element : C 
 NewGTO C 
 S 8 
   1    8236.0000000000      0.0005424302
   2    1235.0000000000      0.0041964279
   3     280.8000000000      0.0215409141
   4      79.2700000000      0.0836149496
   5      25.5900000000      0.2398716189
   6       8.9970000000      0.4437518201
   7       3.3190000000      0.3535796965
   8       0.3643000000     -0.0091763661
 S 8 
   1    8236.0000000000     -0.0001963922
   2    1235.0000000000     -0.0015259503
   3     280.8000000000     -0.0078904490
   4      79.2700000000     -0.0315148705
   5      25.5900000000     -0.0969100083
   6       8.9970000000     -0.2205415263
   7       3.3190000000     -0.2960691129
   8       0.3643000000      1.0405034329
 S 1 
   1       0.9059000000      1.0000000000
 S 1 
   1       0.1285000000      1.0000000000
 P 3 
   1      18.7100000000      0.0394263872
   2       4.1330000000      0.2440889849
   3       1.2000000000      0.8154920089
 P 1 
   1       0.3827000000      1.0000000000
 P 1 
   1       0.1209000000      1.0000000000
 D 1 
   1       1.0970000000      1.0000000000
 D 1 
   1       0.3180000000      1.0000000000
 F 1 
   1       0.7610000000      1.0000000000
  end;

 # Basis set for element : O 
 NewGTO O 
 S 8 
   1   15330.0000000000      0.0005201983
   2    2299.0000000000      0.0040233448
   3     522.4000000000      0.0207290833
   4     147.3000000000      0.0810823271
   5      47.5500000000      0.2362263521
   6      16.7600000000      0.4435182094
   7       6.2070000000      0.3586705887
   8       0.6882000000     -0.0083497972
 S 8 
   1   15330.0000000000     -0.0001972360
   2    2299.0000000000     -0.0015350107
   3     522.4000000000     -0.0079511839
   4     147.3000000000     -0.0321134529
   5      47.5500000000     -0.1002696430
   6      16.7600000000     -0.2340471118
   7       6.2070000000     -0.3014109278
   8       0.6882000000      1.0349196495
 S 1 
   1       1.7520000000      1.0000000000
 S 1 
   1       0.2384000000      1.0000000000
 P 3 
   1      34.4600000000      0.0411634896
   2       7.7490000000      0.2577628359
   3       2.2800000000      0.8024192744
 P 1 
   1       0.7156000000      1.0000000000
 P 1 
   1       0.2140000000      1.0000000000
 D 1 
   1       2.3140000000      1.0000000000
 D 1 
   1       0.6450000000      1.0000000000
 F 1 
   1       1.4280000000      1.0000000000
  end;

---------------------------------
AUXILIARY/J BASIS SET INFORMATION
---------------------------------
There are 3 groups of distinct atoms

 Group   1 Type C   : 14s11p10d5f3g contracted to 14s11p10d5f3g pattern {11111111111111/11111111111/1111111111/11111/111}
 Group   2 Type H   : 11s4p3d2f contracted to 11s4p3d2f pattern {11111111111/1111/111/11}
 Group   3 Type O   : 14s11p10d5f3g contracted to 14s11p10d5f3g pattern {11111111111111/11111111111/1111111111/11111/111}

Atom   0C    basis set group =>   1
Atom   1C    basis set group =>   1
Atom   2C    basis set group =>   1
Atom   3C    basis set group =>   1
Atom   4C    basis set group =>   1
Atom   5C    basis set group =>   1
Atom   6H    basis set group =>   2
Atom   7H    basis set group =>   2
Atom   8H    basis set group =>   2
Atom   9H    basis set group =>   2
Atom  10H    basis set group =>   2
Atom  11C    basis set group =>   1
Atom  12O    basis set group =>   3
Atom  13H    basis set group =>   2

-------------------------------------
AUXILIARY/J BASIS SET IN INPUT FORMAT
-------------------------------------

 # Auxiliary/J basis set for element : H 
 NewAuxJGTO H 
 S 1 
   1      73.3373968349      1.0000000000
 S 1 
   1      40.7429982416      1.0000000000
 S 1 
   1      22.6349990231      1.0000000000
 S 1 
   1      12.5749994573      1.0000000000
 S 1 
   1       6.9861108096      1.0000000000
 S 1 
   1       3.8811726720      1.0000000000
 S 1 
   1       2.1562070400      1.0000000000
 S 1 
   1       1.1978928000      1.0000000000
 S 1 
   1       0.6654960000      1.0000000000
 S 1 
   1       0.3697200000      1.0000000000
 S 1 
   1       0.2054000000      1.0000000000
 P 1 
   1       3.9256000000      1.0000000000
 P 1 
   1       1.9628000000      1.0000000000
 P 1 
   1       0.9814000000      1.0000000000
 P 1 
   1       0.4907000000      1.0000000000
 D 1 
   1       3.7558400000      1.0000000000
 D 1 
   1       1.7072000000      1.0000000000
 D 1 
   1       0.7760000000      1.0000000000
 F 1 
   1       3.1790000000      1.0000000000
 F 1 
   1       1.4450000000      1.0000000000
  end;

 # Auxiliary/J basis set for element : C 
 NewAuxJGTO C 
 S 1 
   1     503.4992904519      1.0000000000
 S 1 
   1     279.7218280288      1.0000000000
 S 1 
   1     155.4010155716      1.0000000000
 S 1 
   1      86.3338975398      1.0000000000
 S 1 
   1      47.9632764110      1.0000000000
 S 1 
   1      26.6462646728      1.0000000000
 S 1 
   1      14.8034803738      1.0000000000
 S 1 
   1       8.2241557632      1.0000000000
 S 1 
   1       4.5689754240      1.0000000000
 S 1 
   1       2.5383196800      1.0000000000
 S 1 
   1       1.4101776000      1.0000000000
 S 1 
   1       0.7834320000      1.0000000000
 S 1 
   1       0.4352400000      1.0000000000
 S 1 
   1       0.2418000000      1.0000000000
 P 1 
   1      86.3338975398      1.0000000000
 P 1 
   1      47.9632764110      1.0000000000
 P 1 
   1      26.6462646728      1.0000000000
 P 1 
   1      14.8034803738      1.0000000000
 P 1 
   1       8.2241557632      1.0000000000
 P 1 
   1       4.5689754240      1.0000000000
 P 1 
   1       2.5383196800      1.0000000000
 P 1 
   1       1.4101776000      1.0000000000
 P 1 
   1       0.7834320000      1.0000000000
 P 1 
   1       0.4352400000      1.0000000000
 P 1 
   1       0.2418000000      1.0000000000
 D 1 
   1      47.9632764110      1.0000000000
 D 1 
   1      26.6462646728      1.0000000000
 D 1 
   1      14.8034803738      1.0000000000
 D 1 
   1       8.2241557632      1.0000000000
 D 1 
   1       4.5689754240      1.0000000000
 D 1 
   1       2.5383196800      1.0000000000
 D 1 
   1       1.4101776000      1.0000000000
 D 1 
   1       0.7834320000      1.0000000000
 D 1 
   1       0.4352400000      1.0000000000
 D 1 
   1       0.2418000000      1.0000000000
 F 1 
   1      10.2814958400      1.0000000000
 F 1 
   1       4.6734072000      1.0000000000
 F 1 
   1       2.1242760000      1.0000000000
 F 1 
   1       0.9655800000      1.0000000000
 F 1 
   1       0.4389000000      1.0000000000
 G 1 
   1       3.0782400000      1.0000000000
 G 1 
   1       1.3992000000      1.0000000000
 G 1 
   1       0.6360000000      1.0000000000
  end;

 # Auxiliary/J basis set for element : O 
 NewAuxJGTO O 
 S 1 
   1     891.2228962507      1.0000000000
 S 1 
   1     495.1238312504      1.0000000000
 S 1 
   1     275.0687951391      1.0000000000
 S 1 
   1     152.8159972995      1.0000000000
 S 1 
   1      84.8977762775      1.0000000000
 S 1 
   1      47.1654312653      1.0000000000
 S 1 
   1      26.2030173696      1.0000000000
 S 1 
   1      14.5572318720      1.0000000000
 S 1 
   1       8.0873510400      1.0000000000
 S 1 
   1       4.4929728000      1.0000000000
 S 1 
   1       2.4960960000      1.0000000000
 S 1 
   1       1.3867200000      1.0000000000
 S 1 
   1       0.7704000000      1.0000000000
 S 1 
   1       0.4280000000      1.0000000000
 P 1 
   1     152.8159972995      1.0000000000
 P 1 
   1      84.8977762775      1.0000000000
 P 1 
   1      47.1654312653      1.0000000000
 P 1 
   1      26.2030173696      1.0000000000
 P 1 
   1      14.5572318720      1.0000000000
 P 1 
   1       8.0873510400      1.0000000000
 P 1 
   1       4.4929728000      1.0000000000
 P 1 
   1       2.4960960000      1.0000000000
 P 1 
   1       1.3867200000      1.0000000000
 P 1 
   1       0.7704000000      1.0000000000
 P 1 
   1       0.4280000000      1.0000000000
 D 1 
   1      84.8977762775      1.0000000000
 D 1 
   1      47.1654312653      1.0000000000
 D 1 
   1      26.2030173696      1.0000000000
 D 1 
   1      14.5572318720      1.0000000000
 D 1 
   1       8.0873510400      1.0000000000
 D 1 
   1       4.4929728000      1.0000000000
 D 1 
   1       2.4960960000      1.0000000000
 D 1 
   1       1.3867200000      1.0000000000
 D 1 
   1       0.7704000000      1.0000000000
 D 1 
   1       0.4280000000      1.0000000000
 F 1 
   1      20.1225904000      1.0000000000
 F 1 
   1       9.1466320000      1.0000000000
 F 1 
   1       4.1575600000      1.0000000000
 F 1 
   1       1.8898000000      1.0000000000
 F 1 
   1       0.8590000000      1.0000000000
 G 1 
   1       6.2436000000      1.0000000000
 G 1 
   1       2.8380000000      1.0000000000
 G 1 
   1       1.2900000000      1.0000000000
  end;

---------------------------------
AUXILIARY/C BASIS SET INFORMATION
---------------------------------
There are 3 groups of distinct atoms

 Group   1 Type C   : 14s11p10d5f3g contracted to 14s11p10d5f3g pattern {11111111111111/11111111111/1111111111/11111/111}
 Group   2 Type H   : 11s4p3d2f contracted to 11s4p3d2f pattern {11111111111/1111/111/11}
 Group   3 Type O   : 14s11p10d5f3g contracted to 14s11p10d5f3g pattern {11111111111111/11111111111/1111111111/11111/111}

Atom   0C    basis set group =>   1
Atom   1C    basis set group =>   1
Atom   2C    basis set group =>   1
Atom   3C    basis set group =>   1
Atom   4C    basis set group =>   1
Atom   5C    basis set group =>   1
Atom   6H    basis set group =>   2
Atom   7H    basis set group =>   2
Atom   8H    basis set group =>   2
Atom   9H    basis set group =>   2
Atom  10H    basis set group =>   2
Atom  11C    basis set group =>   1
Atom  12O    basis set group =>   3
Atom  13H    basis set group =>   2

-------------------------------------
AUXILIARY/C BASIS SET IN INPUT FORMAT
-------------------------------------

 # Auxiliary/C basis set for element : H 
 NewAuxCGTO H 
 S 1 
   1      73.3373968349      1.0000000000
 S 1 
   1      40.7429982416      1.0000000000
 S 1 
   1      22.6349990231      1.0000000000
 S 1 
   1      12.5749994573      1.0000000000
 S 1 
   1       6.9861108096      1.0000000000
 S 1 
   1       3.8811726720      1.0000000000
 S 1 
   1       2.1562070400      1.0000000000
 S 1 
   1       1.1978928000      1.0000000000
 S 1 
   1       0.6654960000      1.0000000000
 S 1 
   1       0.3697200000      1.0000000000
 S 1 
   1       0.2054000000      1.0000000000
 P 1 
   1       3.9256000000      1.0000000000
 P 1 
   1       1.9628000000      1.0000000000
 P 1 
   1       0.9814000000      1.0000000000
 P 1 
   1       0.4907000000      1.0000000000
 D 1 
   1       3.7558400000      1.0000000000
 D 1 
   1       1.7072000000      1.0000000000
 D 1 
   1       0.7760000000      1.0000000000
 F 1 
   1       3.1790000000      1.0000000000
 F 1 
   1       1.4450000000      1.0000000000
  end;

 # Auxiliary/C basis set for element : C 
 NewAuxCGTO C 
 S 1 
   1     503.4992904519      1.0000000000
 S 1 
   1     279.7218280288      1.0000000000
 S 1 
   1     155.4010155716      1.0000000000
 S 1 
   1      86.3338975398      1.0000000000
 S 1 
   1      47.9632764110      1.0000000000
 S 1 
   1      26.6462646728      1.0000000000
 S 1 
   1      14.8034803738      1.0000000000
 S 1 
   1       8.2241557632      1.0000000000
 S 1 
   1       4.5689754240      1.0000000000
 S 1 
   1       2.5383196800      1.0000000000
 S 1 
   1       1.4101776000      1.0000000000
 S 1 
   1       0.7834320000      1.0000000000
 S 1 
   1       0.4352400000      1.0000000000
 S 1 
   1       0.2418000000      1.0000000000
 P 1 
   1      86.3338975398      1.0000000000
 P 1 
   1      47.9632764110      1.0000000000
 P 1 
   1      26.6462646728      1.0000000000
 P 1 
   1      14.8034803738      1.0000000000
 P 1 
   1       8.2241557632      1.0000000000
 P 1 
   1       4.5689754240      1.0000000000
 P 1 
   1       2.5383196800      1.0000000000
 P 1 
   1       1.4101776000      1.0000000000
 P 1 
   1       0.7834320000      1.0000000000
 P 1 
   1       0.4352400000      1.0000000000
 P 1 
   1       0.2418000000      1.0000000000
 D 1 
   1      47.9632764110      1.0000000000
 D 1 
   1      26.6462646728      1.0000000000
 D 1 
   1      14.8034803738      1.0000000000
 D 1 
   1       8.2241557632      1.0000000000
 D 1 
   1       4.5689754240      1.0000000000
 D 1 
   1       2.5383196800      1.0000000000
 D 1 
   1       1.4101776000      1.0000000000
 D 1 
   1       0.7834320000      1.0000000000
 D 1 
   1       0.4352400000      1.0000000000
 D 1 
   1       0.2418000000      1.0000000000
 F 1 
   1      10.2814958400      1.0000000000
 F 1 
   1       4.6734072000      1.0000000000
 F 1 
   1       2.1242760000      1.0000000000
 F 1 
   1       0.9655800000      1.0000000000
 F 1 
   1       0.4389000000      1.0000000000
 G 1 
   1       3.0782400000      1.0000000000
 G 1 
   1       1.3992000000      1.0000000000
 G 1 
   1       0.6360000000      1.0000000000
  end;

 # Auxiliary/C basis set for element : O 
 NewAuxCGTO O 
 S 1 
   1     891.2228962507      1.0000000000
 S 1 
   1     495.1238312504      1.0000000000
 S 1 
   1     275.0687951391      1.0000000000
 S 1 
   1     152.8159972995      1.0000000000
 S 1 
   1      84.8977762775      1.0000000000
 S 1 
   1      47.1654312653      1.0000000000
 S 1 
   1      26.2030173696      1.0000000000
 S 1 
   1      14.5572318720      1.0000000000
 S 1 
   1       8.0873510400      1.0000000000
 S 1 
   1       4.4929728000      1.0000000000
 S 1 
   1       2.4960960000      1.0000000000
 S 1 
   1       1.3867200000      1.0000000000
 S 1 
   1       0.7704000000      1.0000000000
 S 1 
   1       0.4280000000      1.0000000000
 P 1 
   1     152.8159972995      1.0000000000
 P 1 
   1      84.8977762775      1.0000000000
 P 1 
   1      47.1654312653      1.0000000000
 P 1 
   1      26.2030173696      1.0000000000
 P 1 
   1      14.5572318720      1.0000000000
 P 1 
   1       8.0873510400      1.0000000000
 P 1 
   1       4.4929728000      1.0000000000
 P 1 
   1       2.4960960000      1.0000000000
 P 1 
   1       1.3867200000      1.0000000000
 P 1 
   1       0.7704000000      1.0000000000
 P 1 
   1       0.4280000000      1.0000000000
 D 1 
   1      84.8977762775      1.0000000000
 D 1 
   1      47.1654312653      1.0000000000
 D 1 
   1      26.2030173696      1.0000000000
 D 1 
   1      14.5572318720      1.0000000000
 D 1 
   1       8.0873510400      1.0000000000
 D 1 
   1       4.4929728000      1.0000000000
 D 1 
   1       2.4960960000      1.0000000000
 D 1 
   1       1.3867200000      1.0000000000
 D 1 
   1       0.7704000000      1.0000000000
 D 1 
   1       0.4280000000      1.0000000000
 F 1 
   1      20.1225904000      1.0000000000
 F 1 
   1       9.1466320000      1.0000000000
 F 1 
   1       4.1575600000      1.0000000000
 F 1 
   1       1.8898000000      1.0000000000
 F 1 
   1       0.8590000000      1.0000000000
 G 1 
   1       6.2436000000      1.0000000000
 G 1 
   1       2.8380000000      1.0000000000
 G 1 
   1       1.2900000000      1.0000000000
  end;

----------------------------------
AUXILIARY/JK BASIS SET INFORMATION
----------------------------------
There are 3 groups of distinct atoms

 Group   1 Type C   : 14s11p10d5f3g contracted to 14s11p10d5f3g pattern {11111111111111/11111111111/1111111111/11111/111}
 Group   2 Type H   : 11s4p3d2f contracted to 11s4p3d2f pattern {11111111111/1111/111/11}
 Group   3 Type O   : 14s11p10d5f3g contracted to 14s11p10d5f3g pattern {11111111111111/11111111111/1111111111/11111/111}

Atom   0C    basis set group =>   1
Atom   1C    basis set group =>   1
Atom   2C    basis set group =>   1
Atom   3C    basis set group =>   1
Atom   4C    basis set group =>   1
Atom   5C    basis set group =>   1
Atom   6H    basis set group =>   2
Atom   7H    basis set group =>   2
Atom   8H    basis set group =>   2
Atom   9H    basis set group =>   2
Atom  10H    basis set group =>   2
Atom  11C    basis set group =>   1
Atom  12O    basis set group =>   3
Atom  13H    basis set group =>   2

--------------------------------------
AUXILIARY/JK BASIS SET IN INPUT FORMAT
--------------------------------------

 # Auxiliary/JK basis set for element : H 
 NewAuxJKGTO H 
 S 1 
   1      73.3373968349      1.0000000000
 S 1 
   1      40.7429982416      1.0000000000
 S 1 
   1      22.6349990231      1.0000000000
 S 1 
   1      12.5749994573      1.0000000000
 S 1 
   1       6.9861108096      1.0000000000
 S 1 
   1       3.8811726720      1.0000000000
 S 1 
   1       2.1562070400      1.0000000000
 S 1 
   1       1.1978928000      1.0000000000
 S 1 
   1       0.6654960000      1.0000000000
 S 1 
   1       0.3697200000      1.0000000000
 S 1 
   1       0.2054000000      1.0000000000
 P 1 
   1       3.9256000000      1.0000000000
 P 1 
   1       1.9628000000      1.0000000000
 P 1 
   1       0.9814000000      1.0000000000
 P 1 
   1       0.4907000000      1.0000000000
 D 1 
   1       3.7558400000      1.0000000000
 D 1 
   1       1.7072000000      1.0000000000
 D 1 
   1       0.7760000000      1.0000000000
 F 1 
   1       3.1790000000      1.0000000000
 F 1 
   1       1.4450000000      1.0000000000
  end;

 # Auxiliary/JK basis set for element : C 
 NewAuxJKGTO C 
 S 1 
   1     503.4992904519      1.0000000000
 S 1 
   1     279.7218280288      1.0000000000
 S 1 
   1     155.4010155716      1.0000000000
 S 1 
   1      86.3338975398      1.0000000000
 S 1 
   1      47.9632764110      1.0000000000
 S 1 
   1      26.6462646728      1.0000000000
 S 1 
   1      14.8034803738      1.0000000000
 S 1 
   1       8.2241557632      1.0000000000
 S 1 
   1       4.5689754240      1.0000000000
 S 1 
   1       2.5383196800      1.0000000000
 S 1 
   1       1.4101776000      1.0000000000
 S 1 
   1       0.7834320000      1.0000000000
 S 1 
   1       0.4352400000      1.0000000000
 S 1 
   1       0.2418000000      1.0000000000
 P 1 
   1      86.3338975398      1.0000000000
 P 1 
   1      47.9632764110      1.0000000000
 P 1 
   1      26.6462646728      1.0000000000
 P 1 
   1      14.8034803738      1.0000000000
 P 1 
   1       8.2241557632      1.0000000000
 P 1 
   1       4.5689754240      1.0000000000
 P 1 
   1       2.5383196800      1.0000000000
 P 1 
   1       1.4101776000      1.0000000000
 P 1 
   1       0.7834320000      1.0000000000
 P 1 
   1       0.4352400000      1.0000000000
 P 1 
   1       0.2418000000      1.0000000000
 D 1 
   1      47.9632764110      1.0000000000
 D 1 
   1      26.6462646728      1.0000000000
 D 1 
   1      14.8034803738      1.0000000000
 D 1 
   1       8.2241557632      1.0000000000
 D 1 
   1       4.5689754240      1.0000000000
 D 1 
   1       2.5383196800      1.0000000000
 D 1 
   1       1.4101776000      1.0000000000
 D 1 
   1       0.7834320000      1.0000000000
 D 1 
   1       0.4352400000      1.0000000000
 D 1 
   1       0.2418000000      1.0000000000
 F 1 
   1      10.2814958400      1.0000000000
 F 1 
   1       4.6734072000      1.0000000000
 F 1 
   1       2.1242760000      1.0000000000
 F 1 
   1       0.9655800000      1.0000000000
 F 1 
   1       0.4389000000      1.0000000000
 G 1 
   1       3.0782400000      1.0000000000
 G 1 
   1       1.3992000000      1.0000000000
 G 1 
   1       0.6360000000      1.0000000000
  end;

 # Auxiliary/JK basis set for element : O 
 NewAuxJKGTO O 
 S 1 
   1     891.2228962507      1.0000000000
 S 1 
   1     495.1238312504      1.0000000000
 S 1 
   1     275.0687951391      1.0000000000
 S 1 
   1     152.8159972995      1.0000000000
 S 1 
   1      84.8977762775      1.0000000000
 S 1 
   1      47.1654312653      1.0000000000
 S 1 
   1      26.2030173696      1.0000000000
 S 1 
   1      14.5572318720      1.0000000000
 S 1 
   1       8.0873510400      1.0000000000
 S 1 
   1       4.4929728000      1.0000000000
 S 1 
   1       2.4960960000      1.0000000000
 S 1 
   1       1.3867200000      1.0000000000
 S 1 
   1       0.7704000000      1.0000000000
 S 1 
   1       0.4280000000      1.0000000000
 P 1 
   1     152.8159972995      1.0000000000
 P 1 
   1      84.8977762775      1.0000000000
 P 1 
   1      47.1654312653      1.0000000000
 P 1 
   1      26.2030173696      1.0000000000
 P 1 
   1      14.5572318720      1.0000000000
 P 1 
   1       8.0873510400      1.0000000000
 P 1 
   1       4.4929728000      1.0000000000
 P 1 
   1       2.4960960000      1.0000000000
 P 1 
   1       1.3867200000      1.0000000000
 P 1 
   1       0.7704000000      1.0000000000
 P 1 
   1       0.4280000000      1.0000000000
 D 1 
   1      84.8977762775      1.0000000000
 D 1 
   1      47.1654312653      1.0000000000
 D 1 
   1      26.2030173696      1.0000000000
 D 1 
   1      14.5572318720      1.0000000000
 D 1 
   1       8.0873510400      1.0000000000
 D 1 
   1       4.4929728000      1.0000000000
 D 1 
   1       2.4960960000      1.0000000000
 D 1 
   1       1.3867200000      1.0000000000
 D 1 
   1       0.7704000000      1.0000000000
 D 1 
   1       0.4280000000      1.0000000000
 F 1 
   1      20.1225904000      1.0000000000
 F 1 
   1       9.1466320000      1.0000000000
 F 1 
   1       4.1575600000      1.0000000000
 F 1 
   1       1.8898000000      1.0000000000
 F 1 
   1       0.8590000000      1.0000000000
 G 1 
   1       6.2436000000      1.0000000000
 G 1 
   1       2.8380000000      1.0000000000
 G 1 
   1       1.2900000000      1.0000000000
  end;



           ************************************************************
           *        Program running with 8 parallel MPI-processes     *
           *              working on a common directory               *
           ************************************************************
------------------------------------------------------------------------------
                           ORCA GTO INTEGRAL CALCULATION
                           -- RI-GTO INTEGRALS CHOSEN --
------------------------------------------------------------------------------

                         BASIS SET STATISTICS AND STARTUP INFO

Gaussian basis set:
 # of primitive gaussian shells          ...  256
 # of primitive gaussian functions       ...  496
 # of contracted shells                  ...  116
 # of contracted basis functions         ...  324
 Highest angular momentum                ...    3
 Maximum contraction depth               ...    8
Auxiliary gaussian basis set:
 # of primitive gaussian shells          ...  464
 # of primitive gaussian functions       ... 1584
 # of contracted shells                  ...  464
 # of contracted aux-basis functions     ... 1584
 Highest angular momentum                ...    4
 Maximum contraction depth               ...    1
Ratio of auxiliary to basis functions    ...  4.89
Integral package used                  ... LIBINT
 One Electron integrals                  ... done
 Ordering auxiliary basis shells         ... done
 Integral threshhold             Thresh  ...  2.500e-11
 Primitive cut-off               TCut    ...  2.500e-12
 Pre-screening matrix                    ... done
 Shell pair data                         ... 
 Ordering of the shell pairs             ... done (   0.001 sec) 6390 of 6786 pairs
 Determination of significant pairs      ... done (   0.000 sec)
 Creation of shell pair data             ... done (   0.002 sec)
 Storage of shell pair data              ... done (   0.014 sec)
 Shell pair data done in (   0.017 sec)
 Computing two index integrals           ... done
 Cholesky decomposition of the V-matrix  ... done


Timings:
 Total evaluation time                   ...   0.427 sec (  0.007 min)
 One electron matrix time                ...   0.040 sec (  0.001 min) =  9.3%
 Schwartz matrix evaluation time         ...   0.174 sec (  0.003 min) = 40.7%
 Two index repulsion integral time       ...   0.053 sec (  0.001 min) = 12.5%
 Cholesky decomposition of V             ...   0.125 sec (  0.002 min) = 29.3%
 Three index repulsion integral time     ...   0.000 sec (  0.000 min) =  0.0%



           ************************************************************
           *        Program running with 8 parallel MPI-processes     *
           *              working on a common directory               *
           ************************************************************
-------------------------------------------------------------------------------
                                 ORCA SCF
-------------------------------------------------------------------------------

------------
SCF SETTINGS
------------
Hamiltonian:
 Density Functional     Method          .... DFT(GTOs)
 Exchange Functional    Exchange        .... B88
   X-Alpha parameter    XAlpha          ....  0.666667
   Becke's b parameter  XBeta           ....  0.004200
 Correlation Functional Correlation     .... LYP
 LDA part of GGA corr.  LDAOpt          .... VWN-5
 Gradients option       PostSCFGGA      .... off
 Hybrid DFT is turned on
   Fraction HF Exchange ScalHFX         ....  0.200000
   Scaling of DF-GGA-X  ScalDFX         ....  0.720000
   Scaling of DF-GGA-C  ScalDFC         ....  0.810000
   Scaling of DF-LDA-C  ScalLDAC        ....  1.000000
   Perturbative correction              ....  0.000000
   Density functional embedding theory  .... OFF
   NL short-range parameter             ....  4.800000
 RI-approximation to the Coulomb term is turned on
   Number of auxiliary basis functions  .... 1584
   RIJ-COSX (HFX calculated with COS-X)).... on


General Settings:
 Integral files         IntName         .... /tmp/slurm-scratch/opt+freq.29/opt+freq
 Hartree-Fock type      HFTyp           .... RHF
 Total Charge           Charge          ....    0
 Multiplicity           Mult            ....    1
 Number of Electrons    NEL             ....   56
 Basis Dimension        Dim             ....  324
 Nuclear Repulsion      ENuc            ....    321.7258375664 Eh

Convergence Acceleration:
 DIIS                   CNVDIIS         .... on
   Start iteration      DIISMaxIt       ....    12
   Startup error        DIISStart       ....  0.200000
   # of expansion vecs  DIISMaxEq       ....     5
   Bias factor          DIISBfac        ....   1.050
   Max. coefficient     DIISMaxC        ....  10.000
 Newton-Raphson         CNVNR           .... off
 SOSCF                  CNVSOSCF        .... on
   Start iteration      SOSCFMaxIt      ....   150
   Startup grad/error   SOSCFStart      ....  0.003300
 Level Shifting         CNVShift        .... on
   Level shift para.    LevelShift      ....    0.2500
   Turn off err/grad.   ShiftErr        ....    0.0010
 Zerner damping         CNVZerner       .... off
 Static damping         CNVDamp         .... on
   Fraction old density DampFac         ....    0.7000
   Max. Damping (<1)    DampMax         ....    0.9800
   Min. Damping (>=0)   DampMin         ....    0.0000
   Turn off err/grad.   DampErr         ....    0.1000
 Fernandez-Rico         CNVRico         .... off

SCF Procedure:
 Maximum # iterations   MaxIter         ....   125
 SCF integral mode      SCFMode         .... Direct
   Integral package                     .... LIBINT
 Reset frequency        DirectResetFreq ....    20
 Integral Threshold     Thresh          ....  2.500e-11 Eh
 Primitive CutOff       TCut            ....  2.500e-12 Eh

Convergence Tolerance:
 Convergence Check Mode ConvCheckMode   .... Total+1el-Energy
 Convergence forced     ConvForced      .... 0
 Energy Change          TolE            ....  1.000e-08 Eh
 1-El. energy change                    ....  1.000e-05 Eh
 Orbital Gradient       TolG            ....  1.000e-05
 Orbital Rotation angle TolX            ....  1.000e-05
 DIIS Error             TolErr          ....  5.000e-07


Diagonalization of the overlap matrix:
Smallest eigenvalue                        ... 3.334e-05
Time for diagonalization                   ...    0.015 sec
Threshold for overlap eigenvalues          ... 1.000e-08
Number of eigenvalues below threshold      ... 0
Time for construction of square roots      ...    0.008 sec
Total time needed                          ...    0.024 sec

-------------------
DFT GRID GENERATION
-------------------

General Integration Accuracy     IntAcc      ...  4.670
Radial Grid Type                 RadialGrid  ... Gauss-Chebyshev
Angular Grid (max. acc.)         AngularGrid ... Lebedev-302
Angular grid pruning method      GridPruning ... 3 (G Style)
Weight generation scheme         WeightScheme... Becke
Basis function cutoff            BFCut       ...    1.0000e-11
Integration weight cutoff        WCut        ...    1.0000e-14
Grids for H and He will be reduced by one unit

# of grid points (after initial pruning)     ...  70060 (   0.0 sec)
# of grid points (after weights+screening)   ...  64503 (   0.0 sec)
nearest neighbour list constructed           ...    0.0 sec
Grid point re-assignment to atoms done       ...    0.0 sec
Grid point division into batches done        ...    0.2 sec
Reduced shell lists constructed in    0.3 sec

Total number of grid points                  ...    64503
Total number of batches                      ...     1013
Average number of points per batch           ...       63
Average number of grid points per atom       ...     4607
Average number of shells per batch           ...    97.21 (83.80%)
Average number of basis functions per batch  ...   267.63 (82.60%)
Average number of large shells per batch     ...    78.55 (80.81%)
Average number of large basis fcns per batch ...   214.37 (80.10%)
Maximum spatial batch extension              ...   3.70,  4.15, 15.40 au
Average spatial batch extension              ...   0.16,  0.16,  0.22 au

Time for grid setup =    0.351 sec

------------------------------
INITIAL GUESS: MODEL POTENTIAL
------------------------------
Loading Hartree-Fock densities                     ... done
Calculating cut-offs                               ... done
Setting up the integral package                    ... done
Initializing the effective Hamiltonian             ... done
Starting the Coulomb interaction                   ... done (   0.0 sec)
Reading the grid                                   ... done
Mapping shells                                     ... done
Starting the XC term evaluation                    ... done (   0.2 sec)
  promolecular density results
     # of electrons  =     55.996864002
     EX              =    -45.943690502
     EC              =     -1.884195250
     EX+EC           =    -47.827885752
Transforming the Hamiltonian                       ... done (   0.0 sec)
Diagonalizing the Hamiltonian                      ... done (   0.0 sec)
Back transforming the eigenvectors                 ... done (   0.0 sec)
Now organizing SCF variables                       ... done
                      ------------------
                      INITIAL GUESS DONE (   0.7 sec)
                      ------------------
--------------------
COSX GRID GENERATION
--------------------

General Integration Accuracy     IntAcc      ...  3.340
Radial Grid Type                 RadialGrid  ... Gauss-Chebyshev
Angular Grid (max. acc.)         AngularGrid ... Lebedev-50
Angular grid pruning method      GridPruning ... 3 (G Style)
Weight generation scheme         WeightScheme... Becke
Basis function cutoff            BFCut       ...    1.0000e-11
Integration weight cutoff        WCut        ...    1.0000e-14
Grids for H and He will be reduced by one unit

# of grid points (after initial pruning)     ...   6560 (   0.0 sec)
# of grid points (after weights+screening)   ...   6177 (   0.0 sec)
nearest neighbour list constructed           ...    0.0 sec
Grid point re-assignment to atoms done       ...    0.0 sec
Grid point division into batches done        ...    0.0 sec
Reduced shell lists constructed in    0.0 sec

Total number of grid points                  ...     6177
Total number of batches                      ...      102
Average number of points per batch           ...       60
Average number of grid points per atom       ...      441
Average number of shells per batch           ...    99.00 (85.34%)
Average number of basis functions per batch  ...   275.14 (84.92%)
Average number of large shells per batch     ...    86.00 (86.87%)
Average number of large basis fcns per batch ...   236.86 (86.09%)
Maximum spatial batch extension              ...   3.72,  3.79, 17.16 au
Average spatial batch extension              ...   0.29,  0.29,  0.81 au

Overlap Fitting                  UseSFitting ... on
Constructing numerical overlap ... done (      0.0 sec)
Inverting numerical overlap    ... done (      0.0 sec)
Obtaining analytic overlap     ... done (      0.0 sec)
Final contraction and storage  ... done (      0.0 sec)


General Integration Accuracy     IntAcc      ...  4.010
Radial Grid Type                 RadialGrid  ... Gauss-Chebyshev
Angular Grid (max. acc.)         AngularGrid ... Lebedev-50
Angular grid pruning method      GridPruning ... 3 (G Style)
Weight generation scheme         WeightScheme... Becke
Basis function cutoff            BFCut       ...    1.0000e-11
Integration weight cutoff        WCut        ...    1.0000e-14
Grids for H and He will be reduced by one unit

# of grid points (after initial pruning)     ...  10066 (   0.0 sec)
# of grid points (after weights+screening)   ...   9433 (   0.0 sec)
nearest neighbour list constructed           ...    0.0 sec
Grid point re-assignment to atoms done       ...    0.0 sec
Grid point division into batches done        ...    0.0 sec
Reduced shell lists constructed in    0.0 sec

Total number of grid points                  ...     9433
Total number of batches                      ...      154
Average number of points per batch           ...       61
Average number of grid points per atom       ...      674
Average number of shells per batch           ...   100.62 (86.74%)
Average number of basis functions per batch  ...   279.48 (86.26%)
Average number of large shells per batch     ...    85.48 (84.95%)
Average number of large basis fcns per batch ...   236.33 (84.56%)
Maximum spatial batch extension              ...   3.60,  3.12, 20.99 au
Average spatial batch extension              ...   0.29,  0.27,  0.64 au

Overlap Fitting                  UseSFitting ... on
Constructing numerical overlap ... done (      0.0 sec)
Inverting numerical overlap    ... done (      0.0 sec)
Obtaining analytic overlap     ... done (      0.0 sec)
Final contraction and storage  ... done (      0.0 sec)


General Integration Accuracy     IntAcc      ...  4.340
Radial Grid Type                 RadialGrid  ... Gauss-Chebyshev
Angular Grid (max. acc.)         AngularGrid ... Lebedev-194
Angular grid pruning method      GridPruning ... 3 (G Style)
Weight generation scheme         WeightScheme... Becke
Basis function cutoff            BFCut       ...    1.0000e-11
Integration weight cutoff        WCut        ...    1.0000e-14
Grids for H and He will be reduced by one unit

# of grid points (after initial pruning)     ...  35456 (   0.0 sec)
# of grid points (after weights+screening)   ...  32854 (   0.0 sec)
nearest neighbour list constructed           ...    0.0 sec
Grid point re-assignment to atoms done       ...    0.0 sec
Grid point division into batches done        ...    0.1 sec
Reduced shell lists constructed in    0.1 sec

Total number of grid points                  ...    32854
Total number of batches                      ...      521
Average number of points per batch           ...       63
Average number of grid points per atom       ...     2347
Average number of shells per batch           ...    99.27 (85.58%)
Average number of basis functions per batch  ...   273.90 (84.54%)
Average number of large shells per batch     ...    81.42 (82.02%)
Average number of large basis fcns per batch ...   223.06 (81.44%)
Maximum spatial batch extension              ...   3.25,  3.53, 17.17 au
Average spatial batch extension              ...   0.19,  0.20,  0.29 au

Overlap Fitting                  UseSFitting ... on
Constructing numerical overlap ... done (      0.0 sec)
Inverting numerical overlap    ... done (      0.0 sec)
Obtaining analytic overlap     ... done (      0.0 sec)
Final contraction and storage  ... done (      0.0 sec)

Time for X-Grid setup             =    0.316 sec

--------------------
CPCM SOLVATION MODEL
--------------------
CPCM parameters:
  Epsilon                                         ...       8.9300
  Refrac                                          ...       1.0000
  Rsolv                                           ...       1.3000
  Surface type                                    ...    GEPOL SES
  Epsilon function type                           ...         CPCM
Solvent:                                     ... DICHLOROMETHANE
SMD-CDS solvent descriptors:
  Soln                                       ...    1.4242
  Soln25                                     ...    1.4212
  Sola                                       ...    0.1000
  Solb                                       ...    0.0500
  Solg                                       ...   39.1500
  Solc                                       ...    0.0000
  Solh                                       ...    0.6670
Radii:
 Radius for C  used is    3.4960 Bohr (=   1.8500 Ang.)
 Radius for H  used is    2.2677 Bohr (=   1.2000 Ang.)
 Radius for O  used is    3.9949 Bohr (=   2.1140 Ang.)
Calculating surface                               ...        done! (  0.0s)
GEPOL surface points                              ...          454
GEPOL Volume                                      ...     879.8969
GEPOL Surface-area                                ...     520.5366
Calculating surface distance matrix               ...        done! (  0.0s)
Performing Cholesky decomposition & store         ...        done! (  0.0s)
Overall time for CPCM initialization              ...                 0.0s
--------------
SCF ITERATIONS
--------------
ITER       Energy         Delta-E        Max-DP      RMS-DP      [F,P]     Damp
               ***  Starting incremental Fock matrix formation  ***
  0   -345.2941986690   0.000000000000 0.25494424  0.00159392  0.2974872 0.7000
  1   -345.3891902066  -0.094991537565 0.20032971  0.00119537  0.1163341 0.7000
                               ***Turning on DIIS***
  2   -345.4264770597  -0.037286853057 0.22888096  0.00153700  0.0391829 0.0000
  3   -345.4878393758  -0.061362316176 0.16811175  0.00095090  0.0550684 0.0000
  4   -345.4993693130  -0.011529937210 0.02520206  0.00016935  0.0222885 0.0000
  5   -345.5003414156  -0.000972102521 0.01411505  0.00008717  0.0078915 0.0000
                      *** Initiating the SOSCF procedure ***
                           *** Shutting down DIIS ***
                      *** Re-Reading the Fockian *** 
                      *** Removing any level shift *** 
ITER      Energy       Delta-E        Grad      Rot      Max-DP    RMS-DP
  6   -345.50041154  -0.0000701248  0.000159  0.000159  0.003976  0.000036
               *** Restarting incremental Fock matrix formation ***
  7   -345.50040846   0.0000030784  0.000124  0.000590  0.002469  0.000015
  8   -345.50040781   0.0000006488  0.000186  0.000384  0.001176  0.000007
  9   -345.50040914  -0.0000013257  0.000022  0.000054  0.000057  0.000001
 10   -345.50040913   0.0000000107  0.000033  0.000031  0.000035  0.000000
 11   -345.50040916  -0.0000000272  0.000004  0.000009  0.000037  0.000000
 12   -345.50040915   0.0000000022  0.000006  0.000006  0.000040  0.000000
                  ***Gradient check signals convergence***
              ***Rediagonalizing the Fockian in SOSCF/NRSCF***

               *****************************************************
               *                     SUCCESS                       *
               *           SCF CONVERGED AFTER  13 CYCLES          *
               *****************************************************

Setting up the final grid:

General Integration Accuracy     IntAcc      ...  5.010
Radial Grid Type                 RadialGrid  ... Gauss-Chebyshev
Angular Grid (max. acc.)         AngularGrid ... Lebedev-434
Angular grid pruning method      GridPruning ... 3 (G Style)
Weight generation scheme         WeightScheme... Becke
Basis function cutoff            BFCut       ...    1.0000e-11
Integration weight cutoff        WCut        ...    1.0000e-14
Grids for H and He will be reduced by one unit

# of grid points (after initial pruning)     ... 125880 (   0.0 sec)
# of grid points (after weights+screening)   ... 115675 (   0.0 sec)
nearest neighbour list constructed           ...    0.0 sec
Grid point re-assignment to atoms done       ...    0.0 sec
Grid point division into batches done        ...    0.8 sec
Reduced shell lists constructed in    0.9 sec

Total number of grid points                  ...   115675
Total number of batches                      ...     1814
Average number of points per batch           ...       63
Average number of grid points per atom       ...     8262
Average number of shells per batch           ...    96.14 (82.88%)
Average number of basis functions per batch  ...   263.79 (81.42%)
Average number of large shells per batch     ...    76.85 (79.93%)
Average number of large basis fcns per batch ...   209.64 (79.47%)
Maximum spatial batch extension              ...   3.55,  4.05, 15.50 au
Average spatial batch extension              ...   0.13,  0.14,  0.17 au

Final grid set up in    1.0 sec
Final integration                            ... done (   0.4 sec)
Change in XC energy                          ...    -0.000020556
Integrated number of electrons               ...    55.999965951
Previous integrated no of electrons          ...    55.999911058
Old exchange energy                            =     -9.326615992 Eh
New exchange energy                            =     -9.326759635 Eh
Exchange energy change after final integration =     -0.000143643 Eh
Total energy after final integration           =   -345.500573348 Eh
Final COS-X integration done in                =     6.569 sec

SMD CDS free energy correction energy :                -2.74713     Kcal/mol
Total Energy after SMD CDS correction =              -345.504951173 Eh

----------------
TOTAL SCF ENERGY
----------------

Total Energy       :         -345.50495117 Eh           -9401.66769 eV

Components:
Nuclear Repulsion  :          321.72583757 Eh            8754.60512 eV
Electronic Energy  :         -667.23078874 Eh          -18156.27281 eV
One Electron Energy:        -1104.39600665 Eh          -30052.14316 eV
Two Electron Energy:          437.16521791 Eh           11895.87035 eV
CPCM Dielectric    :           -0.00999514 Eh              -0.27198 eV
SMD CDS (Gcds)     :           -0.00437783 Eh              -0.11913 eV

Virial components:
Potential Energy   :         -688.94590139 Eh          -18747.17106 eV
Kinetic Energy     :          343.44095022 Eh            9345.50337 eV
Virial Ratio       :            2.00600977


DFT components:
N(Alpha)           :       27.999982975631 electrons
N(Beta)            :       27.999982975631 electrons
N(Total)           :       55.999965951263 electrons
E(X)               :      -37.074100549977 Eh       
E(C)               :       -2.230592569978 Eh       
E(XC)              :      -39.304693119955 Eh       
DFET-embed. en.    :        0.000000000000 Eh       
CPCM Solvation Model Properties:
Surface-charge          :           -0.03282167
Charge-correction       :            0.00013803 Eh               0.00376 eV
Free-energy (cav+disp)  :            0.00367635 Eh               0.10004 eV
Corrected G(solv)       :         -345.50113679 Eh           -9401.56390 eV

---------------
SCF CONVERGENCE
---------------

  Last Energy change         ...    3.8596e-09  Tolerance :   1.0000e-08
  Last MAX-Density change    ...    3.9968e-15  Tolerance :   1.0000e-07
  Last RMS-Density change    ...    1.7219e-17  Tolerance :   5.0000e-09
  Last Orbital Gradient      ...    9.1389e-07  Tolerance :   1.0000e-05
  Last Orbital Rotation      ...    2.3499e-06  Tolerance :   1.0000e-05

             **** THE GBW FILE WAS UPDATED (/tmp/slurm-scratch/opt+freq.29/opt+freq.gbw) ****
             **** DENSITY FILE WAS UPDATED (/tmp/slurm-scratch/opt+freq.29/opt+freq.scfp) ****
             **** ENERGY FILE WAS UPDATED (/tmp/slurm-scratch/opt+freq.29/opt+freq.en.tmp) ****
             **** THE GBW FILE WAS UPDATED (/tmp/slurm-scratch/opt+freq.29/opt+freq.gbw) ****
             **** DENSITY FILE WAS UPDATED (/tmp/slurm-scratch/opt+freq.29/opt+freq.scfp) ****
----------------
ORBITAL ENERGIES
----------------

  NO   OCC          E(Eh)            E(eV) 
   0   2.0000     -19.121905      -520.3335 
   1   2.0000     -10.256718      -279.0995 
   2   2.0000     -10.186924      -277.2003 
   3   2.0000     -10.186374      -277.1853 
   4   2.0000     -10.185218      -277.1539 
   5   2.0000     -10.183860      -277.1169 
   6   2.0000     -10.180758      -277.0325 
   7   2.0000     -10.180634      -277.0291 
   8   2.0000      -1.044071       -28.4106 
   9   2.0000      -0.867141       -23.5961 
  10   2.0000      -0.769350       -20.9351 
  11   2.0000      -0.755287       -20.5524 
  12   2.0000      -0.650233       -17.6937 
  13   2.0000      -0.613722       -16.7002 
  14   2.0000      -0.570460       -15.5230 
  15   2.0000      -0.520052       -14.1513 
  16   2.0000      -0.481454       -13.1010 
  17   2.0000      -0.459812       -12.5121 
  18   2.0000      -0.436963       -11.8904 
  19   2.0000      -0.429849       -11.6968 
  20   2.0000      -0.426272       -11.5994 
  21   2.0000      -0.410124       -11.1600 
  22   2.0000      -0.367165        -9.9911 
  23   2.0000      -0.362466        -9.8632 
  24   2.0000      -0.348172        -9.4742 
  25   2.0000      -0.266784        -7.2595 
  26   2.0000      -0.264687        -7.2025 
  27   2.0000      -0.260761        -7.0957 
  28   0.0000      -0.066831        -1.8186 
  29   0.0000      -0.017105        -0.4655 
  30   0.0000       0.034794         0.9468 
  31   0.0000       0.055691         1.5154 
  32   0.0000       0.073320         1.9951 
  33   0.0000       0.091076         2.4783 
  34   0.0000       0.103753         2.8232 
  35   0.0000       0.119094         3.2407 
  36   0.0000       0.140235         3.8160 
  37   0.0000       0.148255         4.0342 
  38   0.0000       0.193061         5.2535 
  39   0.0000       0.222175         6.0457 
  40   0.0000       0.241582         6.5738 
  41   0.0000       0.247973         6.7477 
  42   0.0000       0.259776         7.0689 
  43   0.0000       0.266956         7.2643 
  44   0.0000       0.267485         7.2786 
  45   0.0000       0.299575         8.1519 
  46   0.0000       0.301907         8.2153 
  47   0.0000       0.315701         8.5906 
  48   0.0000       0.331109         9.0099 
  49   0.0000       0.349045         9.4980 
  50   0.0000       0.350805         9.5459 
  51   0.0000       0.366943         9.9850 
  52   0.0000       0.377075        10.2607 
  53   0.0000       0.391779        10.6608 
  54   0.0000       0.395126        10.7519 
  55   0.0000       0.398150        10.8342 
  56   0.0000       0.406733        11.0678 
  57   0.0000       0.412840        11.2339 
  58   0.0000       0.433549        11.7975 
  59   0.0000       0.446566        12.1517 
  60   0.0000       0.455792        12.4027 
  61   0.0000       0.462572        12.5872 
  62   0.0000       0.474460        12.9107 
  63   0.0000       0.483203        13.1486 
  64   0.0000       0.493159        13.4195 
  65   0.0000       0.504172        13.7192 
  66   0.0000       0.516259        14.0481 
  67   0.0000       0.539844        14.6899 
  68   0.0000       0.557053        15.1582 
  69   0.0000       0.559822        15.2335 
  70   0.0000       0.580064        15.7843 
  71   0.0000       0.594260        16.1706 
  72   0.0000       0.615348        16.7445 
  73   0.0000       0.624951        17.0058 
  74   0.0000       0.639260        17.3951 
  75   0.0000       0.663044        18.0423 
  76   0.0000       0.673394        18.3240 
  77   0.0000       0.702986        19.1292 
  78   0.0000       0.712152        19.3786 
  79   0.0000       0.729733        19.8571 
  80   0.0000       0.732410        19.9299 
  81   0.0000       0.741302        20.1718 
  82   0.0000       0.762630        20.7522 
  83   0.0000       0.777654        21.1610 
  84   0.0000       0.804309        21.8864 
  85   0.0000       0.823375        22.4052 
  86   0.0000       0.827797        22.5255 
  87   0.0000       0.840320        22.8663 
  88   0.0000       0.859761        23.3953 
  89   0.0000       0.875067        23.8118 
  90   0.0000       0.916690        24.9444 
  91   0.0000       0.922570        25.1044 
  92   0.0000       0.933977        25.4148 
  93   0.0000       0.968996        26.3677 
  94   0.0000       0.970700        26.4141 
  95   0.0000       0.987505        26.8714 
  96   0.0000       1.000417        27.2227 
  97   0.0000       1.017627        27.6910 
  98   0.0000       1.044591        28.4248 
  99   0.0000       1.063503        28.9394 
 100   0.0000       1.071767        29.1643 
 101   0.0000       1.108720        30.1698 
 102   0.0000       1.129733        30.7416 
 103   0.0000       1.145979        31.1837 
 104   0.0000       1.152635        31.3648 
 105   0.0000       1.169222        31.8161 
 106   0.0000       1.188727        32.3469 
 107   0.0000       1.224623        33.3237 
 108   0.0000       1.240580        33.7579 
 109   0.0000       1.248356        33.9695 
 110   0.0000       1.253102        34.0986 
 111   0.0000       1.283245        34.9189 
 112   0.0000       1.290637        35.1200 
 113   0.0000       1.299940        35.3732 
 114   0.0000       1.304261        35.4907 
 115   0.0000       1.339469        36.4488 
 116   0.0000       1.361954        37.0607 
 117   0.0000       1.365391        37.1542 
 118   0.0000       1.380108        37.5546 
 119   0.0000       1.388651        37.7871 
 120   0.0000       1.404798        38.2265 
 121   0.0000       1.410457        38.3805 
 122   0.0000       1.440355        39.1941 
 123   0.0000       1.440750        39.2048 
 124   0.0000       1.500367        40.8271 
 125   0.0000       1.515830        41.2478 
 126   0.0000       1.524530        41.4846 
 127   0.0000       1.539365        41.8883 
 128   0.0000       1.608530        43.7703 
 129   0.0000       1.702862        46.3372 
 130   0.0000       1.730688        47.0944 
 131   0.0000       1.735066        47.2135 
 132   0.0000       1.784260        48.5522 
 133   0.0000       1.881104        51.1874 
 134   0.0000       1.918144        52.1953 
 135   0.0000       1.924700        52.3738 
 136   0.0000       1.939592        52.7790 
 137   0.0000       1.977759        53.8175 
 138   0.0000       1.979613        53.8680 
 139   0.0000       2.024438        55.0878 
 140   0.0000       2.036381        55.4128 
 141   0.0000       2.073135        56.4129 
 142   0.0000       2.100915        57.1688 
 143   0.0000       2.109312        57.3973 
 144   0.0000       2.132045        58.0159 
 145   0.0000       2.138930        58.2032 
 146   0.0000       2.161059        58.8054 
 147   0.0000       2.198238        59.8171 
 148   0.0000       2.202835        59.9422 
 149   0.0000       2.224720        60.5377 
 150   0.0000       2.263074        61.5814 
 151   0.0000       2.328922        63.3732 
 152   0.0000       2.337862        63.6165 
 153   0.0000       2.377219        64.6874 
 154   0.0000       2.390887        65.0593 
 155   0.0000       2.429993        66.1235 
 156   0.0000       2.434640        66.2499 
 157   0.0000       2.443845        66.5004 
 158   0.0000       2.476407        67.3865 
 159   0.0000       2.493061        67.8396 
 160   0.0000       2.497417        67.9582 
 161   0.0000       2.531993        68.8990 
 162   0.0000       2.559439        69.6459 
 163   0.0000       2.576313        70.1050 
 164   0.0000       2.612732        71.0961 
 165   0.0000       2.637056        71.7579 
 166   0.0000       2.651542        72.1521 
 167   0.0000       2.654772        72.2400 
 168   0.0000       2.682787        73.0023 
 169   0.0000       2.706186        73.6391 
 170   0.0000       2.718279        73.9681 
 171   0.0000       2.722043        74.0706 
 172   0.0000       2.733956        74.3947 
 173   0.0000       2.739789        74.5534 
 174   0.0000       2.774194        75.4897 
 175   0.0000       2.801563        76.2344 
 176   0.0000       2.825381        76.8825 
 177   0.0000       2.831321        77.0442 
 178   0.0000       2.863007        77.9064 
 179   0.0000       2.897773        78.8524 
 180   0.0000       2.922505        79.5254 
 181   0.0000       2.927820        79.6700 
 182   0.0000       2.934462        79.8508 
 183   0.0000       2.937212        79.9256 
 184   0.0000       2.968942        80.7890 
 185   0.0000       2.974714        80.9461 
 186   0.0000       2.977587        81.0243 
 187   0.0000       2.987058        81.2820 
 188   0.0000       3.014121        82.0184 
 189   0.0000       3.028594        82.4122 
 190   0.0000       3.052619        83.0660 
 191   0.0000       3.055825        83.1532 
 192   0.0000       3.059565        83.2550 
 193   0.0000       3.069377        83.5220 
 194   0.0000       3.091732        84.1303 
 195   0.0000       3.096379        84.2568 
 196   0.0000       3.113404        84.7200 
 197   0.0000       3.129069        85.1463 
 198   0.0000       3.136941        85.3605 
 199   0.0000       3.151431        85.7548 
 200   0.0000       3.154416        85.8360 
 201   0.0000       3.174660        86.3869 
 202   0.0000       3.192471        86.8715 
 203   0.0000       3.202874        87.1546 
 204   0.0000       3.234685        88.0202 
 205   0.0000       3.243671        88.2648 
 206   0.0000       3.290961        89.5516 
 207   0.0000       3.318446        90.2995 
 208   0.0000       3.319438        90.3265 
 209   0.0000       3.335125        90.7534 
 210   0.0000       3.342574        90.9561 
 211   0.0000       3.354682        91.2855 
 212   0.0000       3.360940        91.4558 
 213   0.0000       3.374664        91.8293 
 214   0.0000       3.405615        92.6715 
 215   0.0000       3.412461        92.8578 
 216   0.0000       3.421458        93.1026 
 217   0.0000       3.448229        93.8311 
 218   0.0000       3.456866        94.0661 
 219   0.0000       3.512294        95.5744 
 220   0.0000       3.554320        96.7180 
 221   0.0000       3.567120        97.0663 
 222   0.0000       3.602887        98.0396 
 223   0.0000       3.632552        98.8468 
 224   0.0000       3.647764        99.2607 
 225   0.0000       3.653032        99.4040 
 226   0.0000       3.689478       100.3958 
 227   0.0000       3.721909       101.2783 
 228   0.0000       3.762484       102.3824 
 229   0.0000       3.763804       102.4183 
 230   0.0000       3.773774       102.6896 
 231   0.0000       3.777621       102.7943 
 232   0.0000       3.789249       103.1107 
 233   0.0000       3.808103       103.6237 
 234   0.0000       3.822391       104.0125 
 235   0.0000       3.829653       104.2101 
 236   0.0000       3.849140       104.7404 
 237   0.0000       3.862532       105.1048 
 238   0.0000       3.887135       105.7743 
 239   0.0000       3.892902       105.9312 
 240   0.0000       3.910257       106.4035 
 241   0.0000       3.913917       106.5031 
 242   0.0000       3.964836       107.8887 
 243   0.0000       3.971139       108.0602 
 244   0.0000       4.027287       109.5881 
 245   0.0000       4.050936       110.2316 
 246   0.0000       4.052982       110.2872 
 247   0.0000       4.075799       110.9081 
 248   0.0000       4.096806       111.4798 
 249   0.0000       4.117716       112.0487 
 250   0.0000       4.122108       112.1683 
 251   0.0000       4.138595       112.6169 
 252   0.0000       4.172067       113.5277 
 253   0.0000       4.202410       114.3534 
 254   0.0000       4.220490       114.8454 
 255   0.0000       4.242105       115.4336 
 256   0.0000       4.244506       115.4989 
 257   0.0000       4.281703       116.5111 
 258   0.0000       4.298694       116.9734 
 259   0.0000       4.301234       117.0425 
 260   0.0000       4.314668       117.4081 
 261   0.0000       4.341915       118.1495 
 262   0.0000       4.343815       118.2012 
 263   0.0000       4.364327       118.7594 
 264   0.0000       4.374547       119.0375 
 265   0.0000       4.382995       119.2673 
 266   0.0000       4.404562       119.8542 
 267   0.0000       4.466209       121.5317 
 268   0.0000       4.537528       123.4724 
 269   0.0000       4.587817       124.8409 
 270   0.0000       4.644572       126.3852 
 271   0.0000       4.647989       126.4782 
 272   0.0000       4.673327       127.1677 
 273   0.0000       4.697424       127.8234 
 274   0.0000       4.755021       129.3907 
 275   0.0000       4.757458       129.4570 
 276   0.0000       4.773064       129.8817 
 277   0.0000       4.783271       130.1594 
 278   0.0000       4.806261       130.7850 
 279   0.0000       4.850384       131.9857 
 280   0.0000       4.908981       133.5802 
 281   0.0000       4.919029       133.8536 
 282   0.0000       4.982619       135.5839 
 283   0.0000       4.985938       135.6743 
 284   0.0000       5.014518       136.4520 
 285   0.0000       5.032706       136.9469 
 286   0.0000       5.073348       138.0528 
 287   0.0000       5.078292       138.1873 
 288   0.0000       5.115825       139.2087 
 289   0.0000       5.178029       140.9013 
 290   0.0000       5.214263       141.8873 
 291   0.0000       5.225178       142.1843 
 292   0.0000       5.291669       143.9936 
 293   0.0000       5.355397       145.7277 
 294   0.0000       5.383296       146.4869 
 295   0.0000       5.471377       148.8837 
 296   0.0000       5.559158       151.2724 
 297   0.0000       5.625618       153.0809 
 298   0.0000       5.655355       153.8900 
 299   0.0000       5.665161       154.1569 
 300   0.0000       5.733467       156.0156 
 301   0.0000       5.824744       158.4993 
 302   0.0000       5.922720       161.1654 
[...]
      4       0.106534  -0.012969  -0.026853  -0.046909  -0.008432   0.106919
      5       0.000128   0.000045  -0.000099   0.000101  -0.000098  -0.000147
      6      -0.096743  -0.000891  -0.020398   0.108141  -0.012210  -0.008837
      7      -0.021859  -0.032526   0.055524   0.045380   0.140109  -0.102390
      8      -0.000214   0.000127  -0.000032  -0.000069  -0.000098   0.000044
      9       0.071207  -0.055206   0.014789  -0.003695   0.062961  -0.146970
     10      -0.040097   0.036666   0.002568  -0.009657  -0.037131   0.093910
     11       0.000310  -0.000443   0.000038  -0.000022   0.000035   0.000009
     12      -0.005901   0.049716   0.043371  -0.003492  -0.134967   0.076691
     13       0.059453   0.015917  -0.007486   0.119199  -0.033845   0.067781
     14       0.000331   0.000415   0.000206   0.000123   0.000088   0.000007
     15      -0.084782   0.006597   0.000672  -0.001975  -0.021704  -0.030983
     16      -0.061077  -0.007052  -0.032307  -0.087924   0.040701  -0.188300
     17      -0.000640  -0.000209  -0.000242  -0.000017   0.000082   0.000260
     18       0.354528   0.028544  -0.520290   0.271303  -0.386957  -0.509827
     19       0.305068   0.004174  -0.293279   0.111010  -0.178644  -0.252692
     20      -0.001306   0.000050   0.001029  -0.000533   0.000370   0.000880
     21      -0.106311  -0.001847  -0.018601   0.119344  -0.018059  -0.010437
     22      -0.267277  -0.379849   0.544744   0.506025  -0.375483  -0.186322
     23       0.001212  -0.000541  -0.000440   0.000093   0.000060   0.000081
     24       0.439294  -0.598012   0.107736   0.035155   0.083451   0.341896
     25      -0.256462   0.353896  -0.053382  -0.026048  -0.048220  -0.190420
     26      -0.001628   0.002387  -0.000080   0.000107   0.000259  -0.000808
     27       0.227219   0.478356   0.273459   0.383986   0.419376   0.206742
     28       0.196952   0.255488   0.120393   0.345924   0.282347   0.144361
     29      -0.002167  -0.002603  -0.001229  -0.001390  -0.001075  -0.000011
     30      -0.089598   0.007147   0.002033  -0.010383  -0.023283  -0.036987
     31      -0.542104  -0.261799  -0.471681  -0.081115   0.475104   0.551316
     32       0.004182   0.001710   0.002200   0.000286  -0.000917  -0.001538
     33      -0.004362  -0.000514  -0.004863   0.005762  -0.000040  -0.001469
     34       0.013343  -0.011096  -0.029719   0.131216   0.089208   0.011729
     35      -0.000129  -0.000022  -0.000053  -0.000018  -0.000143  -0.000022
     36      -0.013315   0.000888  -0.003507   0.034497   0.004077  -0.000256
     37      -0.010021   0.000903  -0.001300   0.013624  -0.027677   0.000012
     38       0.000009   0.000008   0.000012  -0.000007   0.000039  -0.000003
     39      -0.033960  -0.010704  -0.042553   0.282660  -0.235479  -0.018723
     40      -0.005979  -0.018650  -0.058673   0.338144  -0.079971  -0.002410
     41       0.000339   0.000053   0.000201  -0.000570   0.000315  -0.000006
                 30         31         32         33         34         35    
      0       0.014198  -0.139073  -0.058518   0.246436  -0.161248  -0.098131
      1       0.020167   0.084565  -0.137197  -0.178851  -0.146231   0.060945
      2      -0.000040  -0.000098   0.000100   0.000211   0.000045  -0.000105
      3       0.020512   0.008768   0.115359  -0.202138   0.255322  -0.023652
      4      -0.016939  -0.101791   0.016594   0.026812   0.200394  -0.061396
      5       0.000020   0.000054  -0.000031  -0.000017  -0.000108   0.000044
      6      -0.004729   0.077804  -0.034459   0.138635  -0.097667   0.006793
      7       0.051580   0.117778   0.141954  -0.196087  -0.236464   0.065352
      8      -0.000022  -0.000073  -0.000065   0.000116   0.000128  -0.000041
      9      -0.005100  -0.123090  -0.056126  -0.290946   0.105330   0.013548
     10       0.002441   0.060491  -0.088089   0.204469   0.094059  -0.027372
     11       0.000022   0.000060   0.000068  -0.000087  -0.000036   0.000013
     12      -0.038502  -0.042203   0.158858   0.159275  -0.224185   0.000988
     13      -0.041887  -0.112366   0.050616  -0.086821  -0.199535   0.034724
     14       0.000026   0.000102  -0.000068   0.000054   0.000107  -0.000011
     15       0.019666   0.085704  -0.059898  -0.091304   0.099909   0.029729
     16       0.018617   0.043319   0.107830   0.226829   0.267232  -0.079469
     17      -0.000015  -0.000038  -0.000156  -0.000239  -0.000178   0.000088
     18      -0.069925   0.203063  -0.373598   0.160143  -0.410627   0.072052
     19      -0.074210  -0.010214  -0.269463   0.240337  -0.165459  -0.001330
     20       0.000054  -0.000045   0.000530  -0.000447   0.000492  -0.000037
     21      -0.005223   0.090755  -0.047262   0.159847  -0.108115   0.007067
     22      -0.205153  -0.410506  -0.460450   0.243119   0.263450  -0.056499
     23       0.000110   0.000353   0.000147   0.000086  -0.000230   0.000034
     24       0.127137   0.525887  -0.071249   0.445203   0.034600  -0.025594
     25      -0.075882  -0.320357  -0.103091  -0.220326   0.153020  -0.007457
     26      -0.000125  -0.000636  -0.000053  -0.000691   0.000101   0.000036
     27       0.129677   0.331599  -0.420758   0.006893   0.336353   0.013627
     28       0.049409   0.078975  -0.284040  -0.196041   0.103113   0.041239
     29      -0.000233  -0.000377   0.000750   0.000368  -0.000573  -0.000078
     30       0.022551   0.100328  -0.071113  -0.093718   0.114750   0.047836
     31       0.008533  -0.180572  -0.426382  -0.305974  -0.361745   0.072615
     32       0.000023   0.000497   0.000816   0.000746   0.000856  -0.000152
     33       0.004722  -0.016311   0.011673   0.062823   0.058884   0.671424
     34      -0.091120  -0.003117   0.037519   0.034090   0.031178   0.105436
     35       0.000284  -0.000097  -0.000044   0.000050  -0.000011   0.000465
     36      -0.072249   0.052395   0.005220  -0.068132  -0.018602  -0.442159
     37       0.032066  -0.000669  -0.001025  -0.012666  -0.002986  -0.046875
     38      -0.000139   0.000060   0.000006  -0.000065  -0.000011  -0.000369
     39       0.814238  -0.314958  -0.015052   0.131576  -0.104808  -0.254769
     40       0.469221  -0.205768   0.019881   0.077193  -0.071654  -0.474912
     41      -0.000906   0.000315   0.000042  -0.000073   0.000142   0.000654
                 36         37         38         39         40         41    
      0       0.002672   0.001801  -0.001049   0.000800   0.001619  -0.000216
      1       0.000473   0.000603   0.000069   0.000671  -0.001416   0.001431
      2       0.000005   0.000001  -0.000000  -0.000000   0.000001  -0.000002
      3      -0.000559  -0.035603   0.018511  -0.009513  -0.007900  -0.004543
      4       0.000725   0.061803  -0.033440   0.018464   0.018966   0.010301
      5      -0.000000  -0.000045   0.000026  -0.000019  -0.000016  -0.000013
      6      -0.000494   0.035366   0.010422  -0.041174  -0.057416  -0.035811
      7      -0.000291  -0.001685   0.002460  -0.001875   0.000608   0.001354
      8       0.000001   0.000010   0.000001  -0.000011  -0.000013  -0.000013
      9      -0.000279  -0.012609  -0.026603   0.021145  -0.013826  -0.020800
     10       0.000023  -0.021509  -0.047040   0.031031  -0.029210  -0.034425
     11      -0.000001   0.000011   0.000023  -0.000015   0.000013   0.000016
     12       0.000367  -0.007583  -0.023242  -0.025742  -0.003838   0.023426
     13      -0.000232   0.014041   0.043523   0.041488   0.013291  -0.042680
     14      -0.000000  -0.000010  -0.000029  -0.000024  -0.000007   0.000032
     15      -0.000032   0.006215   0.018631   0.039656  -0.053656   0.052188
     16       0.000482  -0.000824  -0.000816  -0.001626  -0.000648   0.002075
     17       0.000000   0.000002   0.000009   0.000022  -0.000023   0.000026
     18       0.001459   0.405896  -0.214634   0.111344   0.106288   0.056454
     19      -0.009568  -0.719991   0.381747  -0.199105  -0.194912  -0.102645
     20       0.000015   0.000558  -0.000287   0.000135   0.000134   0.000062
     21       0.001112  -0.426597  -0.121172   0.474792   0.643455   0.395810
     22      -0.000802   0.003834  -0.001789  -0.000040  -0.003764  -0.003548
     23      -0.000000  -0.000105  -0.000030   0.000104   0.000151   0.000086
     24      -0.000008   0.148641   0.318045  -0.219160   0.178632   0.222279
     25       0.000439   0.254502   0.545698  -0.368958   0.311681   0.378617
     26      -0.000002  -0.000120  -0.000270   0.000173  -0.000165  -0.000189
     27      -0.001738   0.092052   0.282744   0.275493   0.070405  -0.261847
     28       0.001085  -0.164281  -0.506137  -0.486354  -0.132265   0.465860
     29      -0.000003   0.000107   0.000335   0.000333   0.000084  -0.000299
     30      -0.006144  -0.072191  -0.226192  -0.467343   0.614261  -0.585720
     31       0.001628   0.001209   0.000246   0.001745   0.000858  -0.002324
     32      -0.000002  -0.000043  -0.000123  -0.000240   0.000314  -0.000286
     33       0.043822   0.000315   0.000038   0.000501  -0.000602   0.000807
     34      -0.070128   0.000847  -0.000541   0.000497   0.000139   0.000707
     35       0.000111  -0.000003   0.000003  -0.000000  -0.000002   0.000000
     36       0.001911  -0.000358   0.000102  -0.000369   0.000196  -0.000550
     37       0.000595  -0.000167   0.000185   0.000041  -0.000209   0.000010
     38       0.000005  -0.000002  -0.000000   0.000004   0.000002   0.000004
     39      -0.567166   0.002039  -0.001198   0.001454  -0.000172   0.002390
     40       0.819347  -0.007438   0.003697  -0.004273   0.001094  -0.006451
     41      -0.001472   0.000030  -0.000012   0.000007  -0.000001   0.000006


-----------
IR SPECTRUM
-----------

 Mode    freq (cm**-1)   T**2         TX         TY         TZ
-------------------------------------------------------------------
   6:       111.13    7.644868  ( -0.002377   0.000711   2.764934)
   7:       219.40   12.688409  (  0.349827   3.544258   0.065299)
   8:       228.79   13.367227  (  0.008500   0.077247  -3.655296)
   9:       416.72    0.109385  (  0.001629  -0.015957   0.330345)
  10:       445.08    0.226192  ( -0.139280  -0.454482   0.015471)
  11:       463.46   12.181005  (  0.010487   0.011912   3.490094)
  12:       630.08    0.684549  (  0.069747  -0.824384  -0.008667)
  13:       660.23   45.238965  (  2.061495   6.402245  -0.021581)
  14:       705.17   60.809552  (  0.008764   0.013377   7.798032)
  15:       766.19   62.198308  ( -0.002711   0.002423   7.886590)
  16:       838.86   51.165928  ( -1.902898  -6.895278  -0.007163)
  17:       864.93    0.002652  ( -0.013027  -0.037375  -0.032939)
  18:       951.18    1.801398  ( -0.000839  -0.035524  -1.341691)
  19:      1004.57    0.000443  (  0.019204  -0.007703  -0.003902)
  20:      1019.52    1.452429  (  0.594312   1.048435  -0.002710)
  21:      1025.83    0.198506  (  0.004771  -0.004156  -0.445495)
  22:      1041.05    2.106347  ( -0.294038  -0.512102  -1.325760)
  23:      1041.25    8.630285  (  1.408986   2.562843  -0.277274)
  24:      1097.01   12.332799  (  3.043744  -1.751664   0.009719)
  25:      1170.50    4.843165  ( -1.814926  -1.244670   0.002630)
  26:      1177.51   34.374609  ( -2.832522  -5.133363   0.003744)
  27:      1227.87  129.682855  (  5.755796   9.826172   0.003816)
  28:      1333.40   32.856756  (  3.197570   4.757330  -0.010502)
  29:      1349.25   10.127296  ( -2.497481   1.972268  -0.006534)
  30:      1424.32   20.815711  (  2.537135  -3.791880   0.017425)
  31:      1483.37   22.495138  (  0.626226  -4.701374   0.007872)
  32:      1519.97    1.236537  (  0.573895   0.952456  -0.003106)
  33:      1618.57   30.406494  (  4.091853   3.696379   0.003932)
  34:      1635.45   85.549929  (  5.879729   7.139938   0.001611)
  35:      1742.93  460.679584  ( 19.223246   9.547054   0.013179)
  36:      2913.34  175.959980  (  4.777675 -12.374720   0.010352)
  37:      3164.79    4.351055  ( -0.632211   1.987801   0.003680)
  38:      3171.32    2.291394  ( -0.620295  -1.380805   0.002507)
  39:      3180.80   14.041487  ( -1.595576   3.390515  -0.005928)
  40:      3189.68   22.634689  ( -4.740918   0.397757  -0.013084)
  41:      3195.11   14.677097  ( -0.749688  -3.757002  -0.000462)

The first frequency considered to be a vibration is 6
The total number of vibrations considered is 36


--------------------------
THERMOCHEMISTRY AT 298.15K
--------------------------

Temperature         ... 298.15 K
Pressure            ... 1.00 atm
Total Mass          ... 106.12 AMU

Throughout the following assumptions are being made:
  (1) The electronic state is orbitally nondegenerate
  (2) There are no thermally accessible electronically excited states
  (3) Hindered rotations indicated by low frequency modes are not
      treated as such but are treated as vibrations and this may
      cause some error
  (4) All equations used are the standard statistical mechanics
      equations for an ideal gas
  (5) All vibrations are strictly harmonic

freq.     111.13  E(vib)   ...       0.45 
freq.     219.40  E(vib)   ...       0.33 
freq.     228.79  E(vib)   ...       0.32 
freq.     416.72  E(vib)   ...       0.18 
freq.     445.08  E(vib)   ...       0.17 
freq.     463.46  E(vib)   ...       0.16 
freq.     630.08  E(vib)   ...       0.09 
freq.     660.23  E(vib)   ...       0.08 
freq.     705.17  E(vib)   ...       0.07 
freq.     766.19  E(vib)   ...       0.06 
freq.     838.86  E(vib)   ...       0.04 
freq.     864.93  E(vib)   ...       0.04 
freq.     951.18  E(vib)   ...       0.03 
freq.    1004.57  E(vib)   ...       0.02 
freq.    1019.52  E(vib)   ...       0.02 
freq.    1025.83  E(vib)   ...       0.02 
freq.    1041.05  E(vib)   ...       0.02 
freq.    1041.25  E(vib)   ...       0.02 
freq.    1097.01  E(vib)   ...       0.02 
freq.    1170.50  E(vib)   ...       0.01 
freq.    1177.51  E(vib)   ...       0.01 
freq.    1227.87  E(vib)   ...       0.01 
freq.    1333.40  E(vib)   ...       0.01 
freq.    1349.25  E(vib)   ...       0.01 
freq.    1424.32  E(vib)   ...       0.00 
freq.    1483.37  E(vib)   ...       0.00 
freq.    1519.97  E(vib)   ...       0.00 
freq.    1618.57  E(vib)   ...       0.00 
freq.    1635.45  E(vib)   ...       0.00 
freq.    1742.93  E(vib)   ...       0.00 
freq.    2913.34  E(vib)   ...       0.00 
freq.    3164.79  E(vib)   ...       0.00 
freq.    3171.32  E(vib)   ...       0.00 
freq.    3180.80  E(vib)   ...       0.00 
freq.    3189.68  E(vib)   ...       0.00 
freq.    3195.11  E(vib)   ...       0.00 

------------
INNER ENERGY
------------

The inner energy is: U= E(el) + E(ZPE) + E(vib) + E(rot) + E(trans)
    E(el)   - is the total energy from the electronic structure calculation
              = E(kin-el) + E(nuc-el) + E(el-el) + E(nuc-nuc)
    E(ZPE)  - the the zero temperature vibrational energy from the frequency calculation
    E(vib)  - the the finite temperature correction to E(ZPE) due to population
              of excited vibrational states
    E(rot)  - is the rotational thermal energy
    E(trans)- is the translational thermal energy

Summary of contributions to the inner energy U:
Electronic energy                ...   -345.52936112 Eh
Zero point energy                ...      0.10941727 Eh      68.66 kcal/mol
Thermal vibrational correction   ...      0.00350976 Eh       2.20 kcal/mol
Thermal rotational correction    ...      0.00141627 Eh       0.89 kcal/mol
Thermal translational correction ...      0.00141627 Eh       0.89 kcal/mol
-----------------------------------------------------------------------
Total thermal energy                   -345.41360155 Eh


Summary of corrections to the electronic energy:
(perhaps to be used in another calculation)
Total thermal correction                  0.00634230 Eh       3.98 kcal/mol
Non-thermal (ZPE) correction              0.10941727 Eh      68.66 kcal/mol
-----------------------------------------------------------------------
Total correction                          0.11575957 Eh      72.64 kcal/mol


--------
ENTHALPY
--------

The enthalpy is H = U + kB*T
                kB is Boltzmann's constant
Total free energy                 ...   -345.41360155 Eh 
Thermal Enthalpy correction       ...      0.00094421 Eh       0.59 kcal/mol
-----------------------------------------------------------------------
Total Enthalpy                    ...   -345.41265734 Eh


Note: Only C1 symmetry has been detected, increase convergence thresholds 
      if your molecule has a higher symmetry. Symmetry factor of 1.0 is   
      used for the rotational entropy correction. 
 

Note: Rotational entropy computed according to Herzberg 
Infrared and Raman Spectra, Chapter V,1, Van Nostrand Reinhold, 1945 
Point Group:  C1, Symmetry Number:   1  
Rotational constants in cm-1:     0.175647     0.052324     0.040315 

Vibrational entropy computed according to the QRRHO of S. Grimme
Chem.Eur.J. 2012 18 9955


-------
ENTROPY
-------

The entropy contributions are T*S = T*(S(el)+S(vib)+S(rot)+S(trans))
     S(el)   - electronic entropy
     S(vib)  - vibrational entropy
     S(rot)  - rotational entropy
     S(trans)- translational entropy
The entropies will be listed as mutliplied by the temperature to get
units of energy

Electronic entropy                ...      0.00000000 Eh      0.00 kcal/mol
Vibrational entropy               ...      0.00563189 Eh      3.53 kcal/mol
Rotational entropy                ...      0.01324062 Eh      8.31 kcal/mol
Translational entropy             ...      0.01895542 Eh     11.89 kcal/mol
-----------------------------------------------------------------------
Final entropy term                ...      0.03782793 Eh     23.74 kcal/mol

In case the symmetry of your molecule has not been determined correctly
or in case you have a reason to use a different symmetry number we print 
out the resulting rotational entropy values for sn=1,12 :
 --------------------------------------------------------
|  sn= 1 | S(rot)=       0.01324062 Eh      8.31 kcal/mol|
|  sn= 2 | S(rot)=       0.01258616 Eh      7.90 kcal/mol|
|  sn= 3 | S(rot)=       0.01220333 Eh      7.66 kcal/mol|
|  sn= 4 | S(rot)=       0.01193171 Eh      7.49 kcal/mol|
|  sn= 5 | S(rot)=       0.01172102 Eh      7.36 kcal/mol|
|  sn= 6 | S(rot)=       0.01154887 Eh      7.25 kcal/mol|
|  sn= 7 | S(rot)=       0.01140333 Eh      7.16 kcal/mol|
|  sn= 8 | S(rot)=       0.01127725 Eh      7.08 kcal/mol|
|  sn= 9 | S(rot)=       0.01116604 Eh      7.01 kcal/mol|
|  sn=10 | S(rot)=       0.01106656 Eh      6.94 kcal/mol|
|  sn=11 | S(rot)=       0.01097657 Eh      6.89 kcal/mol|
|  sn=12 | S(rot)=       0.01089442 Eh      6.84 kcal/mol|
 --------------------------------------------------------


-------------------
GIBBS FREE ENERGY
-------------------

The Gibbs free energy is G = H - T*S

Total enthalpy                    ...   -345.41265734 Eh 
Total entropy correction          ...     -0.03782793 Eh    -23.74 kcal/mol
-----------------------------------------------------------------------
Final Gibbs free energy         ...   -345.45048528 Eh

For completeness - the Gibbs free energy minus the electronic energy
G-E(el)                           ...      0.07887584 Eh     49.50 kcal/mol


Timings for individual modules:

Sum of individual times         ...      692.824 sec (=  11.547 min)
GTO integral calculation        ...        1.311 sec (=   0.022 min)   0.2 %
SCF iterations                  ...       69.390 sec (=   1.156 min)  10.0 %
SCF Gradient evaluation         ...       11.143 sec (=   0.186 min)   1.6 %
Geometry relaxation             ...        0.558 sec (=   0.009 min)   0.1 %
Analytical frequency calculation...      610.423 sec (=  10.174 min)  88.1 %
                             ****ORCA TERMINATED NORMALLY****
TOTAL RUN TIME: 0 days 0 hours 11 minutes 33 seconds 501 msec
(SLURM) EXECUTION TIME: 693.527867754 seconds.
