(SLURM) JOB ID:         201

                                 *****************
                                 * O   R   C   A *
                                 *****************

           --- An Ab Initio, DFT and Semiempirical electronic structure package ---

                  #######################################################
                  #                        -***-                        #
                  #          Department of theory and spectroscopy      #
                  #               Directorship: Frank Neese             #
                  #        Max Planck Institute fuer Kohlenforschung    #
                  #                Kaiser Wilhelm Platz 1               #
                  #                 D-45470 Muelheim/Ruhr               #
                  #                      Germany                        #
                  #                                                     #
                  #                  All rights reserved                #
                  #                        -***-                        #
                  #######################################################


                         Program Version 4.2.1 -  RELEASE  -


 With contributions from (in alphabetic order):
   Daniel Aravena         : Magnetic Suceptibility
   Michael Atanasov       : Ab Initio Ligand Field Theory (pilot matlab implementation)
   Alexander A. Auer      : GIAO ZORA, VPT2
   Ute Becker             : Parallelization
   Giovanni Bistoni       : ED, misc. LED, open-shell LED, HFLD
   Martin Brehm           : Molecular dynamics
   Dmytro Bykov           : SCF Hessian
   Vijay G. Chilkuri      : MRCI spin determinant printing, contributions to CSF-ICE
   Dipayan Datta          : RHF DLPNO-CCSD density
   Achintya Kumar Dutta   : EOM-CC, STEOM-CC
   Dmitry Ganyushin       : Spin-Orbit,Spin-Spin,Magnetic field MRCI
   Miquel Garcia          : C-PCM Hessian, Gaussian charge scheme
   Yang Guo               : DLPNO-NEVPT2, CIM, IAO-localization
   Andreas Hansen         : Spin unrestricted coupled pair/coupled cluster methods
   Benjamin Helmich-Paris : CASSCF linear response (MC-RPA)
   Lee Huntington         : MR-EOM, pCC
   Robert Izsak           : Overlap fitted RIJCOSX, COSX-SCS-MP3, EOM
   Christian Kollmar      : KDIIS, OOCD, Brueckner-CCSD(T), CCSD density
   Simone Kossmann        : Meta GGA functionals, TD-DFT gradient, OOMP2, MP2 Hessian
   Martin Krupicka        : AUTO-CI
   Lucas Lang             : DCDCAS
   Dagmar Lenk            : GEPOL surface, SMD
   Dimitrios Liakos       : Extrapolation schemes; Compound Job, initial MDCI parallelization
   Dimitrios Manganas     : Further ROCIS development; embedding schemes
   Dimitrios Pantazis     : SARC Basis sets
   Taras Petrenko         : DFT Hessian,TD-DFT gradient, ASA, ECA, R-Raman, ABS, FL, XAS/XES, NRVS
   Peter Pinski           : DLPNO-MP2, DLPNO-MP2 Gradient
   Christoph Reimann      : Effective Core Potentials
   Marius Retegan         : Local ZFS, SOC
   Christoph Riplinger    : Optimizer, TS searches, QM/MM, DLPNO-CCSD(T), (RO)-DLPNO pert. Triples
   Tobias Risthaus        : Range-separated hybrids, TD-DFT gradient, RPA, STAB
   Michael Roemelt        : Original ROCIS implementation
   Masaaki Saitow         : Open-shell DLPNO-CCSD energy and density
   Barbara Sandhoefer     : DKH picture change effects
   Avijit Sen             : IP-ROCIS
   Kantharuban Sivalingam : CASSCF convergence, NEVPT2, FIC-MRCI
   Bernardo de Souza      : ESD, SOC TD-DFT
   Georgi Stoychev        : AutoAux, RI-MP2 NMR
   Willem Van den Heuvel  : Paramagnetic NMR
   Boris Wezisla          : Elementary symmetry handling
   Frank Wennmohs         : Technical directorship


 We gratefully acknowledge several colleagues who have allowed us to
 interface, adapt or use parts of their codes:
   Stefan Grimme, W. Hujo, H. Kruse,             : VdW corrections, initial TS optimization,
                  C. Bannwarth                     DFT functionals, gCP, sTDA/sTD-DF
   Ed Valeev, F. Pavosevic, A. Kumar             : LibInt (2-el integral package), F12 methods
   Garnet Chan, S. Sharma, J. Yang, R. Olivares  : DMRG
   Ulf Ekstrom                                   : XCFun DFT Library
   Mihaly Kallay                                 : mrcc  (arbitrary order and MRCC methods)
   Andreas Klamt, Michael Diedenhofen            : otool_cosmo (COSMO solvation model)
   Jiri Pittner, Ondrej Demel                    : Mk-CCSD
   Frank Weinhold                                : gennbo (NPA and NBO analysis)
   Christopher J. Cramer and Donald G. Truhlar   : smd solvation model
   Lars Goerigk                                  : TD-DFT with DH, B97 family of functionals
   V. Asgeirsson, H. Jonsson                     : NEB implementation
   FAccTs GmbH                                   : IRC, NEB, NEB-TS, Multilevel, MM, QM/MM, CI optimization
   S Lehtola, MJT Oliveira, MAL Marques          : LibXC Library


 Your calculation uses the libint2 library for the computation of 2-el integrals
 For citations please refer to: http://libint.valeyev.net

 Your ORCA version has been built with support for libXC version: 4.2.3
 For citations please refer to: https://tddft.org/programs/libxc/

 This ORCA versions uses:
   CBLAS   interface :  Fast vector & matrix operations
   LAPACKE interface :  Fast linear algebra routines
   SCALAPACK package :  Parallel linear algebra routines




***************************************
The coordinates will be read from file: init.xyz
***************************************


Your calculation utilizes the atom-pairwise dispersion correction
with the Becke-Johnson damping scheme (D3BJ)
Cite in your paper:
S.Grimme, S.Ehrlich, L.Goerigk, J Comput Chem, (2011), 32, 1456–1465 
S.Grimme, J.Antony, S.Ehrlich and H.Krieg, J.Chem.Phys., 132, (2010), 154104 
   

Your calculation utilizes the SMD solvation module
Please cite in your paper:
A.V. Marenich, C.J. Cramer, D.G. Truhlar J. Phys. Chem. B, 113, (2009), 6378 

----- Orbital basis set information -----
Your calculation utilizes the basis: cc-pVTZ 
       H, B-Ne : Obtained from the ccRepo (grant-hill.group.shef.ac.uk/ccrepo) Feb. 2017
                 T. H. Dunning, Jr., J. Chem. Phys. 90, 1007 (1989)
            He : Obtained from the ccRepo (grant-hill.group.shef.ac.uk/ccrepo) Feb. 2017
                 D. E. Woon, T. H. Dunning, Jr., J. Chem. Phys. 100, 2975 (1994)
  Li-Be, Na-Mg : Obtained from the ccRepo (grant-hill.group.shef.ac.uk/ccrepo) Feb. 2017
                 B. P. Prascher, D. E. Woon, K. A. Peterson, T. H. Dunning, Jr., A. K. Wilson, Theor. Chem. Acc. 128, 69 (2011)
         Al-Ar : Obtained from the ccRepo (grant-hill.group.shef.ac.uk/ccrepo) Feb. 2017
                 D. E. Woon, T. H. Dunning, Jr., J. Chem. Phys. 98, 1358 (1993)
            Ca : Obtained from the Peterson Research Group Website (tyr0.chem.wsu.edu/~kipeters) Feb. 2017
                 J. Koput, K. A. Peterson, J. Phys. Chem. 106, 9595 (2002)
         Sc-Zn : Obtained from the ccRepo (grant-hill.group.shef.ac.uk/ccrepo) Feb. 2017
                 N. B. Balabanov, K. A. Peterson, J. Chem. Phys. 123, 064107 (2005)
                 N. B. Balabanov, K. A. Peterson, J. Chem. Phys. 125, 074110 (2006)
         Ga-Kr : Obtained from the ccRepo (grant-hill.group.shef.ac.uk/ccrepo) Feb. 2017
                 A. K. Wilson, D. E. Woon, K. A. Peterson, T. H. Dunning, Jr., J. Chem. Phys. 110, 7667 (1999)
             Y : Obtained from the ccRepo (grant-hill.group.shef.ac.uk/ccrepo) Feb. 2017
                 K. A. Peterson, D. Figgen, M. Dolg, H. Stoll, J. Chem. Phys. 126, 124101 (2007)
        Ag, Au : Obtained from the Peterson Research Group Website (tyr0.chem.wsu.edu/~kipeters) Feb. 2017
                 K. A. Peterson, C. Puzzarini, Theor. Chem. Acc. 114, 283 (2005)

================================================================================
                                        WARNINGS
                       Please study these warnings very carefully!
================================================================================


WARNING: Geometry Optimization
  ===> : Switching off AutoStart
         For restart on a previous wavefunction, please use MOREAD

INFO   : the flag for use of LIBINT has been found!

================================================================================
                                       INPUT FILE
================================================================================
NAME = /tmp/slurm-scratch/opt+freq.201/opt+freq.inp
|  1> ! B3LYP D3BJ cc-pVTZ NoRI Opt Freq TightSCF Grid4 FinalGrid5 PrintBasis PrintMOs
|  2> %maxcore 1450
|  3> 
|  4> * xyzfile 0 1 init.xyz
|  5> 
|  6> %cpcm
|  7>  smd true
|  8>  smdsolvent "dichloromethane"
|  9> end
| 10> 
| 11> %scf
| 12>  guess pmodel
| 13> end
| 14> 
| 15> %geom
| 16>  maxiter 30
| 17>  trust 0.2
| 18>  inhess read
| 19>  inhessname "freq.hess"
| 20> end
| 21> %pal nprocs 8 end
| 22> 
| 23>                          ****END OF INPUT****
================================================================================

                       *****************************
                       * Geometry Optimization Run *
                       *****************************

Geometry optimization settings:
Update method            Update   .... BFGS
Choice of coordinates    CoordSys .... Z-matrix Internals
Initial Hessian          InHess   .... Read

Convergence Tolerances:
Energy Change            TolE     ....  5.0000e-06 Eh
Max. Gradient            TolMAXG  ....  3.0000e-04 Eh/bohr
RMS Gradient             TolRMSG  ....  1.0000e-04 Eh/bohr
Max. Displacement        TolMAXD  ....  4.0000e-03 bohr
RMS Displacement         TolRMSD  ....  2.0000e-03 bohr
Strict Convergence                ....  False
------------------------------------------------------------------------------
                        ORCA OPTIMIZATION COORDINATE SETUP
------------------------------------------------------------------------------

The optimization will be done in new redundant internal coordinates
Making redundant internal coordinates   ...  (new redundants) done
Evaluating the initial hessian          ... (Reading Exact Hessian)...  
InHessName: freq.hess	The file <freq.hess> is opened as a .hess file
done
done
Diagonalizing the Hessian               .... done
Dimension of the hessian                .... 63
Lowest eigenvalues of the non projected Hessian:
 -0.000000000 -0.000000000 -0.000000000 -0.000000000 -0.000000000
done
Evaluating the coordinates              ...  done
Calculating the B-matrix                .... done
Calculating the G-matrix                .... done
Diagonalizing the G-matrix              .... done
The first mode is                       ....   27
The number of degrees of freedom        ....   36

    -----------------------------------------------------------------
                    Redundant Internal Coordinates


    -----------------------------------------------------------------
         Definition                    Initial Value    d2E/dq (diagonal element)
    -----------------------------------------------------------------
      1. B(C   1,C   0)                  1.3962         0.398999   
      2. B(C   2,C   1)                  1.3888         0.406941   
      3. B(C   3,C   2)                  1.3911         0.402319   
      4. B(C   4,C   3)                  1.3954         0.392755   
      5. B(C   5,C   4)                  1.3847         0.415285   
      6. B(C   5,C   0)                  1.3989         0.391649   
      7. B(H   6,C   1)                  1.0829         0.330927   
      8. B(H   7,C   2)                  1.0815         0.334753   
      9. B(H   8,C   3)                  1.0820         0.333884   
     10. B(H   9,C   4)                  1.0816         0.334339   
     11. B(H  10,C   5)                  1.0814         0.336049   
     12. B(C  11,C   0)                  1.4718         0.316139   
     13. B(O  12,C  11)                  1.2147         0.768589   
     14. B(H  13,C  11)                  1.1057         0.277574   
     15. A(C   1,C   0,C  11)          119.0302         0.108626   
     16. A(C   5,C   0,C  11)          121.0219         0.102960   
     17. A(C   1,C   0,C   5)          119.9479         0.075226   
     18. A(C   0,C   1,H   6)          119.4812         0.074017   
     19. A(C   2,C   1,H   6)          120.3839         0.074784   
     20. A(C   0,C   1,C   2)          120.1349         0.073481   
     21. A(C   3,C   2,H   7)          120.1450         0.074237   
     22. A(C   1,C   2,H   7)          120.1862         0.074384   
     23. A(C   1,C   2,C   3)          119.6688         0.073340   
     24. A(C   2,C   3,C   4)          120.4159         0.073596   
     25. A(C   4,C   3,H   8)          119.7432         0.074686   
     26. A(C   2,C   3,H   8)          119.8409         0.074651   
     27. A(C   5,C   4,H   9)          120.1188         0.074505   
     28. A(C   3,C   4,H   9)          119.8967         0.074530   
     29. A(C   3,C   4,C   5)          119.9845         0.073255   
     30. A(C   0,C   5,H  10)          119.1046         0.072713   
     31. A(C   0,C   5,C   4)          119.8480         0.073408   
     32. A(C   4,C   5,H  10)          121.0474         0.072150   
     33. A(O  12,C  11,H  13)          120.4206         0.111437   
     34. A(C   0,C  11,H  13)          114.5738         0.094795   
     35. A(C   0,C  11,O  12)          125.0056         0.133529   
     36. D(H   6,C   1,C   0,C   5)   -179.9918         0.006933   
     37. D(C   2,C   1,C   0,C   5)      0.0001         0.006486   
     38. D(C   2,C   1,C   0,C  11)   -179.9987         0.006577   
     39. D(H   6,C   1,C   0,C  11)      0.0095         0.006619   
     40. D(C   3,C   2,C   1,C   0)      0.0062         0.007538   
     41. D(C   3,C   2,C   1,H   6)    179.9979         0.007939   
     42. D(H   7,C   2,C   1,H   6)      0.0329         0.008241   
     43. D(H   7,C   2,C   1,C   0)   -179.9589         0.008160   
     44. D(H   8,C   3,C   2,H   7)     -0.0291         0.008315   
     45. D(H   8,C   3,C   2,C   1)   -179.9942         0.008094   
     46. D(C   4,C   3,C   2,H   7)    179.9600         0.008061   
     47. D(C   4,C   3,C   2,C   1)     -0.0051         0.007623   
     48. D(H   9,C   4,C   3,C   2)    179.9921         0.008087   
     49. D(C   5,C   4,C   3,H   8)    179.9868         0.007976   
     50. D(C   5,C   4,C   3,C   2)     -0.0023         0.007609   
     51. D(H   9,C   4,C   3,H   8)     -0.0188         0.008357   
     52. D(H  10,C   5,C   4,H   9)     -0.0003         0.008325   
     53. D(C   0,C   5,C   4,H   9)   -179.9858         0.008327   
     54. D(C   0,C   5,C   4,C   3)      0.0086         0.007433   
     55. D(H  10,C   5,C   0,C  11)      0.0055         0.006737   
     56. D(H  10,C   5,C   0,C   1)   -179.9933         0.006873   
     57. D(H  10,C   5,C   4,C   3)    179.9941         0.008013   
     58. D(C   4,C   5,C   0,C  11)    179.9912         0.006509   
     59. D(C   4,C   5,C   0,C   1)     -0.0075         0.006413   
     60. D(H  13,C  11,C   0,C   5)   -179.9504         0.016719   
     61. D(H  13,C  11,C   0,C   1)      0.0484         0.017566   
     62. D(O  12,C  11,C   0,C   5)      0.0428         0.019084   
     63. D(O  12,C  11,C   0,C   1)   -179.9585         0.017978   
    -----------------------------------------------------------------

Number of atoms                         .... 14
Number of degrees of freedom            .... 63

         *************************************************************
         *                GEOMETRY OPTIMIZATION CYCLE   1            *
         *************************************************************
---------------------------------
CARTESIAN COORDINATES (ANGSTROEM)
---------------------------------
  C     -1.698327    0.070071    0.000011
  C     -0.302202    0.061352    0.000509
  C      0.402527    1.258090   -0.000012
  C     -0.289627    2.464777   -0.000901
  C     -1.685003    2.478839   -0.001378
  C     -2.389079    1.286502   -0.001015
  H      0.224830   -0.884630    0.001168
  H      1.483989    1.252304   -0.000298
  H      0.256588    3.398742   -0.001403
  H     -2.214653    3.421921   -0.001938
  H     -3.470466    1.277339   -0.001279
  C     -2.420577   -1.212345    0.000610
  O     -3.629412   -1.331249   -0.000458
  H     -1.770085   -2.106414    0.002283

----------------------------
CARTESIAN COORDINATES (A.U.)
----------------------------
  NO LB      ZA    FRAG     MASS         X           Y           Z
   0 C     6.0000    0    12.011   -3.209374    0.132415    0.000021
   1 C     6.0000    0    12.011   -0.571078    0.115938    0.000962
   2 C     6.0000    0    12.011    0.760665    2.377446   -0.000022
   3 C     6.0000    0    12.011   -0.547315    4.657754   -0.001702
   4 C     6.0000    0    12.011   -3.184193    4.684327   -0.002603
   5 C     6.0000    0    12.011   -4.514704    2.431137   -0.001919
   6 H     1.0000    0     1.008    0.424867   -1.671709    0.002207
   7 H     1.0000    0     1.008    2.804332    2.366512   -0.000562
   8 H     1.0000    0     1.008    0.484881    6.422692   -0.002651
   9 H     1.0000    0     1.008   -4.185088    6.466493   -0.003663
  10 H     1.0000    0     1.008   -6.558231    2.413820   -0.002418
  11 C     6.0000    0    12.011   -4.574228   -2.290999    0.001153
  12 O     8.0000    0    15.999   -6.858595   -2.515696   -0.000865
  13 H     1.0000    0     1.008   -3.344976   -3.980546    0.004315

--------------------------------
INTERNAL COORDINATES (ANGSTROEM)
--------------------------------
 C      0   0   0     0.000000000000     0.00000000     0.00000000
 C      1   0   0     1.396153166709     0.00000000     0.00000000
 C      2   1   0     1.388821347075   120.13490609     0.00000000
 C      3   2   1     1.391104451592   119.66877264     0.00000000
 C      4   3   2     1.395446902666   120.41587412     0.00000000
 C      5   4   3     1.384698852112   119.98450363     0.00000000
 H      2   1   3     1.082886926945   119.48115050   180.00816901
 H      3   2   1     1.081477248958   120.18621865   180.04109446
 H      4   3   2     1.081961427156   119.84094749   180.00580435
 H      5   4   3     1.081634392994   119.89669132   179.99205270
 H      6   5   4     1.081426691769   121.04738111   179.99408580
 C      1   2   3     1.471813348333   119.03015062   180.00130531
 O     12   1   2     1.214669133238   125.00564056   180.04153184
 H     12   1   2     1.105668848217   114.57377108     0.04839256

---------------------------
INTERNAL COORDINATES (A.U.)
---------------------------
 C      0   0   0     0.000000000000     0.00000000     0.00000000
 C      1   0   0     2.638347126087     0.00000000     0.00000000
 C      2   1   0     2.624491994915   120.13490609     0.00000000
 C      3   2   1     2.628806437188   119.66877264     0.00000000
 C      4   3   2     2.637012480468   120.41587412     0.00000000
 C      5   4   3     2.616701608447   119.98450363     0.00000000
 H      2   1   3     2.046359725930   119.48115050   180.00816901
 H      3   2   1     2.043695820597   120.18621865   180.04109446
 H      4   3   2     2.044610784792   119.84094749   180.00580435
 H      5   4   3     2.043992779789   119.89669132   179.99205270
 H      6   5   4     2.043600281355   121.04738111   179.99408580
 C      1   2   3     2.781324148599   119.03015062   180.00130531
 O     12   1   2     2.295392005147   125.00564056   180.04153184
 H     12   1   2     2.089411317939   114.57377108     0.04839256

---------------------
BASIS SET INFORMATION
---------------------
There are 3 groups of distinct atoms

 Group   1 Type C   : 18s5p2d1f contracted to 4s3p2d1f pattern {8811/311/11/1}
 Group   2 Type H   : 5s2p1d contracted to 3s2p1d pattern {311/11/1}
 Group   3 Type O   : 18s5p2d1f contracted to 4s3p2d1f pattern {8811/311/11/1}

Atom   0C    basis set group =>   1
Atom   1C    basis set group =>   1
Atom   2C    basis set group =>   1
Atom   3C    basis set group =>   1
Atom   4C    basis set group =>   1
Atom   5C    basis set group =>   1
Atom   6H    basis set group =>   2
Atom   7H    basis set group =>   2
Atom   8H    basis set group =>   2
Atom   9H    basis set group =>   2
Atom  10H    basis set group =>   2
Atom  11C    basis set group =>   1
Atom  12O    basis set group =>   3
Atom  13H    basis set group =>   2

-------------------------
BASIS SET IN INPUT FORMAT
-------------------------

 # Basis set for element : H 
 NewGTO H 
 S 3 
   1      33.8700000000      0.0254948632
   2       5.0950000000      0.1903627659
   3       1.1590000000      0.8521620222
 S 1 
   1       0.3258000000      1.0000000000
 S 1 
   1       0.1027000000      1.0000000000
 P 1 
   1       1.4070000000      1.0000000000
 P 1 
   1       0.3880000000      1.0000000000
 D 1 
   1       1.0570000000      1.0000000000
  end;

 # Basis set for element : C 
 NewGTO C 
 S 8 
   1    8236.0000000000      0.0005424302
   2    1235.0000000000      0.0041964279
   3     280.8000000000      0.0215409141
   4      79.2700000000      0.0836149496
   5      25.5900000000      0.2398716189
   6       8.9970000000      0.4437518201
   7       3.3190000000      0.3535796965
   8       0.3643000000     -0.0091763661
 S 8 
   1    8236.0000000000     -0.0001963922
   2    1235.0000000000     -0.0015259503
   3     280.8000000000     -0.0078904490
   4      79.2700000000     -0.0315148705
   5      25.5900000000     -0.0969100083
   6       8.9970000000     -0.2205415263
   7       3.3190000000     -0.2960691129
   8       0.3643000000      1.0405034329
 S 1 
   1       0.9059000000      1.0000000000
 S 1 
   1       0.1285000000      1.0000000000
 P 3 
   1      18.7100000000      0.0394263872
   2       4.1330000000      0.2440889849
   3       1.2000000000      0.8154920089
 P 1 
   1       0.3827000000      1.0000000000
 P 1 
   1       0.1209000000      1.0000000000
 D 1 
   1       1.0970000000      1.0000000000
 D 1 
   1       0.3180000000      1.0000000000
 F 1 
   1       0.7610000000      1.0000000000
  end;

 # Basis set for element : O 
 NewGTO O 
 S 8 
   1   15330.0000000000      0.0005201983
   2    2299.0000000000      0.0040233448
   3     522.4000000000      0.0207290833
   4     147.3000000000      0.0810823271
   5      47.5500000000      0.2362263521
   6      16.7600000000      0.4435182094
   7       6.2070000000      0.3586705887
   8       0.6882000000     -0.0083497972
 S 8 
   1   15330.0000000000     -0.0001972360
   2    2299.0000000000     -0.0015350107
   3     522.4000000000     -0.0079511839
   4     147.3000000000     -0.0321134529
   5      47.5500000000     -0.1002696430
   6      16.7600000000     -0.2340471118
   7       6.2070000000     -0.3014109278
   8       0.6882000000      1.0349196495
 S 1 
   1       1.7520000000      1.0000000000
 S 1 
   1       0.2384000000      1.0000000000
 P 3 
   1      34.4600000000      0.0411634896
   2       7.7490000000      0.2577628359
   3       2.2800000000      0.8024192744
 P 1 
   1       0.7156000000      1.0000000000
 P 1 
   1       0.2140000000      1.0000000000
 D 1 
   1       2.3140000000      1.0000000000
 D 1 
   1       0.6450000000      1.0000000000
 F 1 
   1       1.4280000000      1.0000000000
  end;



           ************************************************************
           *        Program running with 8 parallel MPI-processes     *
           *              working on a common directory               *
           ************************************************************
------------------------------------------------------------------------------
                           ORCA GTO INTEGRAL CALCULATION
------------------------------------------------------------------------------

                         BASIS SET STATISTICS AND STARTUP INFO

 # of primitive gaussian shells          ...  256
 # of primitive gaussian functions       ...  496
 # of contracted shells                  ...  116
 # of contracted basis functions         ...  324
 Highest angular momentum                ...    3
 Maximum contraction depth               ...    8
 Integral package used                   ... LIBINT
 Integral threshhold            Thresh   ...  2.500e-11
 Primitive cut-off              TCut     ...  2.500e-12


------------------------------ INTEGRAL EVALUATION ----------------------------


 * One electron integrals 
 Pre-screening matrix                    ... done
 Shell pair data                         ... done (   0.006 sec)



           ************************************************************
           *        Program running with 8 parallel MPI-processes     *
           *              working on a common directory               *
           ************************************************************
-------------------------------------------------------------------------------
                                 ORCA SCF
-------------------------------------------------------------------------------

------------
SCF SETTINGS
------------
Hamiltonian:
 Density Functional     Method          .... DFT(GTOs)
 Exchange Functional    Exchange        .... B88
   X-Alpha parameter    XAlpha          ....  0.666667
   Becke's b parameter  XBeta           ....  0.004200
 Correlation Functional Correlation     .... LYP
 LDA part of GGA corr.  LDAOpt          .... VWN-5
 Gradients option       PostSCFGGA      .... off
 Hybrid DFT is turned on
   Fraction HF Exchange ScalHFX         ....  0.200000
   Scaling of DF-GGA-X  ScalDFX         ....  0.720000
   Scaling of DF-GGA-C  ScalDFC         ....  0.810000
   Scaling of DF-LDA-C  ScalLDAC        ....  1.000000
   Perturbative correction              ....  0.000000
   Density functional embedding theory  .... OFF
   NL short-range parameter             ....  4.800000


General Settings:
 Integral files         IntName         .... /tmp/slurm-scratch/opt+freq.201/opt+freq
 Hartree-Fock type      HFTyp           .... RHF
 Total Charge           Charge          ....    0
 Multiplicity           Mult            ....    1
 Number of Electrons    NEL             ....   56
 Basis Dimension        Dim             ....  324
 Nuclear Repulsion      ENuc            ....    321.7108015614 Eh

Convergence Acceleration:
 DIIS                   CNVDIIS         .... on
   Start iteration      DIISMaxIt       ....    12
   Startup error        DIISStart       ....  0.200000
   # of expansion vecs  DIISMaxEq       ....     5
   Bias factor          DIISBfac        ....   1.050
   Max. coefficient     DIISMaxC        ....  10.000
 Newton-Raphson         CNVNR           .... off
 SOSCF                  CNVSOSCF        .... on
   Start iteration      SOSCFMaxIt      ....   150
   Startup grad/error   SOSCFStart      ....  0.003300
 Level Shifting         CNVShift        .... on
   Level shift para.    LevelShift      ....    0.2500
   Turn off err/grad.   ShiftErr        ....    0.0010
 Zerner damping         CNVZerner       .... off
 Static damping         CNVDamp         .... on
   Fraction old density DampFac         ....    0.7000
   Max. Damping (<1)    DampMax         ....    0.9800
   Min. Damping (>=0)   DampMin         ....    0.0000
   Turn off err/grad.   DampErr         ....    0.1000
 Fernandez-Rico         CNVRico         .... off

SCF Procedure:
 Maximum # iterations   MaxIter         ....   125
 SCF integral mode      SCFMode         .... Direct
   Integral package                     .... LIBINT
 Reset frequency        DirectResetFreq ....    20
 Integral Threshold     Thresh          ....  2.500e-11 Eh
 Primitive CutOff       TCut            ....  2.500e-12 Eh

Convergence Tolerance:
 Convergence Check Mode ConvCheckMode   .... Total+1el-Energy
 Convergence forced     ConvForced      .... 0
 Energy Change          TolE            ....  1.000e-08 Eh
 1-El. energy change                    ....  1.000e-05 Eh
 Orbital Gradient       TolG            ....  1.000e-05
 Orbital Rotation angle TolX            ....  1.000e-05
 DIIS Error             TolErr          ....  5.000e-07


Diagonalization of the overlap matrix:
Smallest eigenvalue                        ... 3.335e-05
Time for diagonalization                   ...    0.236 sec
Threshold for overlap eigenvalues          ... 1.000e-08
Number of eigenvalues below threshold      ... 0
Time for construction of square roots      ...    0.038 sec
Total time needed                          ...    0.275 sec

-------------------
DFT GRID GENERATION
-------------------

General Integration Accuracy     IntAcc      ...  4.670
Radial Grid Type                 RadialGrid  ... Gauss-Chebyshev
Angular Grid (max. acc.)         AngularGrid ... Lebedev-302
Angular grid pruning method      GridPruning ... 3 (G Style)
Weight generation scheme         WeightScheme... Becke
Basis function cutoff            BFCut       ...    1.0000e-11
Integration weight cutoff        WCut        ...    1.0000e-14
Grids for H and He will be reduced by one unit

# of grid points (after initial pruning)     ...  70060 (   0.0 sec)
# of grid points (after weights+screening)   ...  64504 (   0.1 sec)
nearest neighbour list constructed           ...    0.0 sec
Grid point re-assignment to atoms done       ...    0.0 sec
Grid point division into batches done        ...    0.7 sec
Reduced shell lists constructed in    1.1 sec

Total number of grid points                  ...    64504
Total number of batches                      ...     1013
Average number of points per batch           ...       63
Average number of grid points per atom       ...     4607
Average number of shells per batch           ...    97.20 (83.79%)
Average number of basis functions per batch  ...   267.55 (82.58%)
Average number of large shells per batch     ...    78.53 (80.80%)
Average number of large basis fcns per batch ...   214.30 (80.09%)
Maximum spatial batch extension              ...   3.70,  4.15, 15.40 au
Average spatial batch extension              ...   0.16,  0.16,  0.22 au

Time for grid setup =    1.427 sec

------------------------------
INITIAL GUESS: MODEL POTENTIAL
------------------------------
Loading Hartree-Fock densities                     ... done
Calculating cut-offs                               ... done
Setting up the integral package                    ... done
Initializing the effective Hamiltonian             ... done
Starting the Coulomb interaction                   ... done (   0.3 sec)
Reading the grid                                   ... done
Mapping shells                                     ... done
Starting the XC term evaluation                    ... done (   0.9 sec)
  promolecular density results
     # of electrons  =     55.996863028
     EX              =    -45.943460879
     EC              =     -1.884175993
     EX+EC           =    -47.827636872
Transforming the Hamiltonian                       ... done (   0.0 sec)
Diagonalizing the Hamiltonian                      ... done (   0.1 sec)
Back transforming the eigenvectors                 ... done (   0.0 sec)
Now organizing SCF variables                       ... done
                      ------------------
                      INITIAL GUESS DONE (   3.0 sec)
                      ------------------

--------------------
CPCM SOLVATION MODEL
--------------------
CPCM parameters:
  Epsilon                                         ...       8.9300
  Refrac                                          ...       1.0000
  Rsolv                                           ...       1.3000
  Surface type                                    ...    GEPOL SES
  Epsilon function type                           ...         CPCM
Solvent:                                     ... DICHLOROMETHANE
SMD-CDS solvent descriptors:
  Soln                                       ...    1.4242
  Soln25                                     ...    1.4212
  Sola                                       ...    0.1000
  Solb                                       ...    0.0500
  Solg                                       ...   39.1500
  Solc                                       ...    0.0000
  Solh                                       ...    0.6670
Radii:
 Radius for C  used is    3.4960 Bohr (=   1.8500 Ang.)
 Radius for H  used is    2.2677 Bohr (=   1.2000 Ang.)
 Radius for O  used is    3.9949 Bohr (=   2.1140 Ang.)
Calculating surface                               ...        done! (  0.1s)
GEPOL surface points                              ...          454
GEPOL Volume                                      ...     879.9001
GEPOL Surface-area                                ...     520.5528
Calculating surface distance matrix               ...        done! (  0.0s)
Performing Cholesky decomposition & store         ...        done! (  0.0s)
Overall time for CPCM initialization              ...                 0.1s
--------------
SCF ITERATIONS
--------------
ITER       Energy         Delta-E        Max-DP      RMS-DP      [F,P]     Damp
               ***  Starting incremental Fock matrix formation  ***
  0   -345.2943887610   0.000000000000 0.25344033  0.00158352  0.2974764 0.7000
  1   -345.3893613286  -0.094972567596 0.19893654  0.00118626  0.1163251 0.7000
                               ***Turning on DIIS***
  2   -345.4266381631  -0.037276834443 0.22588801  0.00150289  0.0391655 0.0000
  3   -345.4879849812  -0.061346818170 0.16779395  0.00095027  0.0550550 0.0000
  4   -345.4995146920  -0.011529710727 0.02523476  0.00016937  0.0222771 0.0000
  5   -345.5004883814  -0.000973689420 0.01412446  0.00008711  0.0078757 0.0000
                      *** Initiating the SOSCF procedure ***
                           *** Shutting down DIIS ***
                      *** Re-Reading the Fockian *** 
                      *** Removing any level shift *** 
ITER      Energy       Delta-E        Grad      Rot      Max-DP    RMS-DP
  6   -345.50055822  -0.0000698340  0.000160  0.000160  0.003953  0.000036
               *** Restarting incremental Fock matrix formation ***
  7   -345.50056073  -0.0000025176  0.000124  0.000593  0.002322  0.000014
  8   -345.50056011   0.0000006209  0.000187  0.000385  0.001187  0.000007
  9   -345.50056143  -0.0000013191  0.000022  0.000054  0.000058  0.000001
 10   -345.50056142   0.0000000155  0.000034  0.000031  0.000035  0.000000
 11   -345.50056145  -0.0000000306  0.000004  0.000010  0.000044  0.000000
 12   -345.50056145   0.0000000005  0.000007  0.000007  0.000040  0.000000
                  ***Gradient check signals convergence***
              ***Rediagonalizing the Fockian in SOSCF/NRSCF***

               *****************************************************
               *                     SUCCESS                       *
               *           SCF CONVERGED AFTER  13 CYCLES          *
               *****************************************************

Setting up the final grid:

General Integration Accuracy     IntAcc      ...  5.010
Radial Grid Type                 RadialGrid  ... Gauss-Chebyshev
Angular Grid (max. acc.)         AngularGrid ... Lebedev-434
Angular grid pruning method      GridPruning ... 3 (G Style)
Weight generation scheme         WeightScheme... Becke
Basis function cutoff            BFCut       ...    1.0000e-11
Integration weight cutoff        WCut        ...    1.0000e-14
Grids for H and He will be reduced by one unit

# of grid points (after initial pruning)     ... 125880 (   0.0 sec)
# of grid points (after weights+screening)   ... 115680 (   0.2 sec)
nearest neighbour list constructed           ...    0.0 sec
Grid point re-assignment to atoms done       ...    0.0 sec
Grid point division into batches done        ...    1.8 sec
Reduced shell lists constructed in    2.2 sec

Total number of grid points                  ...   115680
Total number of batches                      ...     1814
Average number of points per batch           ...       63
Average number of grid points per atom       ...     8263
Average number of shells per batch           ...    96.14 (82.88%)
Average number of basis functions per batch  ...   263.82 (81.43%)
Average number of large shells per batch     ...    76.92 (80.01%)
Average number of large basis fcns per batch ...   209.72 (79.49%)
Maximum spatial batch extension              ...   3.55,  4.22, 15.50 au
Average spatial batch extension              ...   0.13,  0.14,  0.17 au

Final grid set up in    3.8 sec
Final integration                            ... done (   2.2 sec)
Change in XC energy                          ...    -0.000020624
Integrated number of electrons               ...    55.999966039
Previous integrated no of electrons          ...    55.999910354

SMD CDS free energy correction energy :                -2.74680     Kcal/mol
Total Energy after SMD CDS correction =              -345.504959372 Eh

----------------
TOTAL SCF ENERGY
----------------

Total Energy       :         -345.50495937 Eh           -9401.66792 eV

Components:
Nuclear Repulsion  :          321.71080156 Eh            8754.19597 eV
Electronic Energy  :         -667.21576093 Eh          -18155.86388 eV
One Electron Energy:        -1104.36503765 Eh          -30051.30045 eV
Two Electron Energy:          437.14927672 Eh           11895.43657 eV
CPCM Dielectric    :           -0.00998803 Eh              -0.27179 eV
SMD CDS (Gcds)     :           -0.00437730 Eh              -0.11911 eV

Virial components:
Potential Energy   :         -688.94490641 Eh          -18747.14399 eV
Kinetic Energy     :          343.43994703 Eh            9345.47607 eV
Virial Ratio       :            2.00601273


DFT components:
N(Alpha)           :       27.999983019497 electrons
N(Beta)            :       27.999983019497 electrons
N(Total)           :       55.999966038994 electrons
E(X)               :      -37.073788702568 Eh       
E(C)               :       -2.230568426456 Eh       
E(XC)              :      -39.304357129024 Eh       
DFET-embed. en.    :        0.000000000000 Eh       
CPCM Solvation Model Properties:
Surface-charge          :           -0.03282807
Charge-correction       :            0.00013810 Eh               0.00376 eV
Free-energy (cav+disp)  :            0.00367640 Eh               0.10004 eV
Corrected G(solv)       :         -345.50114488 Eh           -9401.56412 eV

---------------
SCF CONVERGENCE
---------------

  Last Energy change         ...   -1.1927e-09  Tolerance :   1.0000e-08
  Last MAX-Density change    ...    1.7575e-05  Tolerance :   1.0000e-07
  Last RMS-Density change    ...    1.9921e-07  Tolerance :   5.0000e-09
  Last Orbital Gradient      ...    8.9701e-07  Tolerance :   1.0000e-05
  Last Orbital Rotation      ...    2.2934e-06  Tolerance :   1.0000e-05

             **** THE GBW FILE WAS UPDATED (/tmp/slurm-scratch/opt+freq.201/opt+freq.gbw) ****
             **** DENSITY FILE WAS UPDATED (/tmp/slurm-scratch/opt+freq.201/opt+freq.scfp) ****
             **** ENERGY FILE WAS UPDATED (/tmp/slurm-scratch/opt+freq.201/opt+freq.en.tmp) ****
             **** THE GBW FILE WAS UPDATED (/tmp/slurm-scratch/opt+freq.201/opt+freq.gbw) ****
             **** DENSITY FILE WAS UPDATED (/tmp/slurm-scratch/opt+freq.201/opt+freq.scfp) ****
----------------
ORBITAL ENERGIES
----------------

  NO   OCC          E(Eh)            E(eV) 
   0   2.0000     -19.122012      -520.3364 
   1   2.0000     -10.256764      -279.1007 
   2   2.0000     -10.186981      -277.2018 
   3   2.0000     -10.186421      -277.1866 
   4   2.0000     -10.185259      -277.1550 
   5   2.0000     -10.183869      -277.1172 
   6   2.0000     -10.180798      -277.0336 
   7   2.0000     -10.180690      -277.0307 
   8   2.0000      -1.044073       -28.4107 
   9   2.0000      -0.867212       -23.5980 
  10   2.0000      -0.769365       -20.9355 
  11   2.0000      -0.755335       -20.5537 
  12   2.0000      -0.650256       -17.6944 
  13   2.0000      -0.613759       -16.7012 
  14   2.0000      -0.570476       -15.5234 
  15   2.0000      -0.519995       -14.1498 
  16   2.0000      -0.481412       -13.0999 
  17   2.0000      -0.459797       -12.5117 
  18   2.0000      -0.436945       -11.8899 
  19   2.0000      -0.429887       -11.6978 
  20   2.0000      -0.426292       -11.6000 
  21   2.0000      -0.410110       -11.1597 
  22   2.0000      -0.367149        -9.9906 
  23   2.0000      -0.362445        -9.8626 
  24   2.0000      -0.348247        -9.4763 
  25   2.0000      -0.266789        -7.2597 
  26   2.0000      -0.264688        -7.2025 
  27   2.0000      -0.260801        -7.0967 
  28   0.0000      -0.066860        -1.8193 
  29   0.0000      -0.017138        -0.4663 
  30   0.0000       0.034729         0.9450 
  31   0.0000       0.055740         1.5168 
  32   0.0000       0.073343         1.9958 
  33   0.0000       0.091111         2.4793 
  34   0.0000       0.103800         2.8245 
  35   0.0000       0.119097         3.2408 
  36   0.0000       0.140225         3.8157 
  37   0.0000       0.148201         4.0328 
  38   0.0000       0.193025         5.2525 
  39   0.0000       0.222259         6.0480 
  40   0.0000       0.241573         6.5735 
  41   0.0000       0.248010         6.7487 
  42   0.0000       0.259748         7.0681 
  43   0.0000       0.267065         7.2672 
  44   0.0000       0.267481         7.2785 
  45   0.0000       0.299696         8.1551 
  46   0.0000       0.301918         8.2156 
  47   0.0000       0.315662         8.5896 
  48   0.0000       0.331079         9.0091 
  49   0.0000       0.349050         9.4981 
  50   0.0000       0.350907         9.5487 
  51   0.0000       0.366934         9.9848 
  52   0.0000       0.377153        10.2628 
  53   0.0000       0.391810        10.6617 
  54   0.0000       0.395264        10.7557 
  55   0.0000       0.398137        10.8339 
  56   0.0000       0.406635        11.0651 
  57   0.0000       0.412805        11.2330 
  58   0.0000       0.433530        11.7969 
  59   0.0000       0.446660        12.1542 
  60   0.0000       0.455771        12.4022 
  61   0.0000       0.462584        12.5875 
  62   0.0000       0.474388        12.9087 
  63   0.0000       0.483148        13.1471 
  64   0.0000       0.493132        13.4188 
  65   0.0000       0.504115        13.7177 
  66   0.0000       0.516285        14.0488 
  67   0.0000       0.539790        14.6884 
  68   0.0000       0.556999        15.1567 
  69   0.0000       0.559780        15.2324 
  70   0.0000       0.580106        15.7855 
  71   0.0000       0.594178        16.1684 
  72   0.0000       0.615239        16.7415 
  73   0.0000       0.624871        17.0036 
  74   0.0000       0.639103        17.3909 
  75   0.0000       0.663044        18.0423 
  76   0.0000       0.673366        18.3232 
  77   0.0000       0.702951        19.1283 
  78   0.0000       0.711936        19.3728 
  79   0.0000       0.729699        19.8561 
  80   0.0000       0.732368        19.9288 
  81   0.0000       0.741195        20.1690 
  82   0.0000       0.762395        20.7458 
  83   0.0000       0.777643        21.1608 
  84   0.0000       0.804368        21.8880 
  85   0.0000       0.823298        22.4031 
  86   0.0000       0.827678        22.5223 
  87   0.0000       0.840285        22.8653 
  88   0.0000       0.859714        23.3940 
  89   0.0000       0.875042        23.8111 
  90   0.0000       0.916594        24.9418 
  91   0.0000       0.922524        25.1031 
  92   0.0000       0.933977        25.4148 
  93   0.0000       0.968855        26.3639 
  94   0.0000       0.970613        26.4117 
  95   0.0000       0.987437        26.8695 
  96   0.0000       1.000391        27.2220 
  97   0.0000       1.017545        27.6888 
  98   0.0000       1.044634        28.4259 
  99   0.0000       1.063543        28.9405 
 100   0.0000       1.071592        29.1595 
 101   0.0000       1.108711        30.1696 
 102   0.0000       1.129744        30.7419 
 103   0.0000       1.145816        31.1792 
 104   0.0000       1.152589        31.3635 
 105   0.0000       1.169066        31.8119 
 106   0.0000       1.188637        32.3445 
 107   0.0000       1.224400        33.3176 
 108   0.0000       1.240563        33.7574 
 109   0.0000       1.248207        33.9654 
 110   0.0000       1.253008        34.0961 
 111   0.0000       1.283248        34.9190 
 112   0.0000       1.290636        35.1200 
 113   0.0000       1.299841        35.3705 
 114   0.0000       1.304193        35.4889 
 115   0.0000       1.339321        36.4448 
 116   0.0000       1.361911        37.0595 
 117   0.0000       1.365317        37.1522 
 118   0.0000       1.380038        37.5527 
 119   0.0000       1.388687        37.7881 
 120   0.0000       1.404699        38.2238 
 121   0.0000       1.410578        38.3838 
 122   0.0000       1.440220        39.1904 
 123   0.0000       1.440682        39.2029 
 124   0.0000       1.500524        40.8313 
 125   0.0000       1.515810        41.2473 
 126   0.0000       1.524461        41.4827 
 127   0.0000       1.539335        41.8874 
 128   0.0000       1.608411        43.7671 
 129   0.0000       1.702869        46.3374 
 130   0.0000       1.730614        47.0924 
 131   0.0000       1.735079        47.2139 
 132   0.0000       1.783913        48.5427 
 133   0.0000       1.880905        51.1820 
 134   0.0000       1.918109        52.1944 
 135   0.0000       1.924726        52.3745 
 136   0.0000       1.939729        52.7827 
 137   0.0000       1.977687        53.8156 
 138   0.0000       1.979655        53.8692 
 139   0.0000       2.024448        55.0880 
 140   0.0000       2.036369        55.4124 
 141   0.0000       2.073215        56.4151 
 142   0.0000       2.101118        57.1743 
 143   0.0000       2.109229        57.3950 
 144   0.0000       2.131928        58.0127 
 145   0.0000       2.138961        58.2041 
 146   0.0000       2.160963        58.8028 
 147   0.0000       2.198273        59.8181 
 148   0.0000       2.202969        59.9458 
 149   0.0000       2.224633        60.5353 
 150   0.0000       2.263180        61.5843 
 151   0.0000       2.328817        63.3703 
 152   0.0000       2.337714        63.6124 
 153   0.0000       2.377190        64.6866 
 154   0.0000       2.390792        65.0567 
 155   0.0000       2.430128        66.1271 
 156   0.0000       2.434453        66.2448 
 157   0.0000       2.443943        66.5031 
 158   0.0000       2.476250        67.3822 
 159   0.0000       2.492972        67.8372 
 160   0.0000       2.497210        67.9525 
 161   0.0000       2.531978        68.8986 
 162   0.0000       2.559318        69.6426 
 163   0.0000       2.576196        70.1018 
 164   0.0000       2.612627        71.0932 
 165   0.0000       2.636973        71.7557 
 166   0.0000       2.651491        72.1507 
 167   0.0000       2.654645        72.2366 
 168   0.0000       2.682762        73.0017 
 169   0.0000       2.706185        73.6390 
 170   0.0000       2.718521        73.9747 
 171   0.0000       2.722055        74.0709 
 172   0.0000       2.734083        74.3982 
 173   0.0000       2.739908        74.5567 
 174   0.0000       2.774195        75.4897 
 175   0.0000       2.801689        76.2378 
 176   0.0000       2.825257        76.8792 
 177   0.0000       2.831340        77.0447 
 178   0.0000       2.862918        77.9040 
 179   0.0000       2.897811        78.8534 
 180   0.0000       2.922654        79.5294 
 181   0.0000       2.927850        79.6708 
 182   0.0000       2.934449        79.8504 
 183   0.0000       2.937117        79.9230 
 184   0.0000       2.968912        80.7882 
 185   0.0000       2.974741        80.9468 
 186   0.0000       2.977416        81.0196 
 187   0.0000       2.987071        81.2823 
 188   0.0000       3.014116        82.0183 
 189   0.0000       3.028461        82.4086 
 190   0.0000       3.052592        83.0653 
 191   0.0000       3.055643        83.1483 
 192   0.0000       3.059320        83.2483 
 193   0.0000       3.069175        83.5165 
 194   0.0000       3.091500        84.1240 
 195   0.0000       3.096367        84.2564 
 196   0.0000       3.113199        84.7144 
 197   0.0000       3.128790        85.1387 
 198   0.0000       3.137092        85.3646 
 199   0.0000       3.151215        85.7489 
 200   0.0000       3.154424        85.8362 
 201   0.0000       3.174714        86.3883 
 202   0.0000       3.192458        86.8712 
 203   0.0000       3.203064        87.1598 
 204   0.0000       3.234438        88.0135 
 205   0.0000       3.243547        88.2614 
 206   0.0000       3.290903        89.5500 
 207   0.0000       3.318353        90.2970 
 208   0.0000       3.319530        90.3290 
 209   0.0000       3.335021        90.7505 
 210   0.0000       3.342321        90.9492 
 211   0.0000       3.354760        91.2877 
 212   0.0000       3.361061        91.4591 
 213   0.0000       3.374739        91.8313 
 214   0.0000       3.405614        92.6715 
 215   0.0000       3.412475        92.8582 
 216   0.0000       3.421381        93.1005 
 217   0.0000       3.448221        93.8309 
 218   0.0000       3.456976        94.0691 
 219   0.0000       3.512112        95.5694 
 220   0.0000       3.554271        96.7166 
 221   0.0000       3.567094        97.0656 
 222   0.0000       3.602885        98.0395 
 223   0.0000       3.632354        98.8414 
 224   0.0000       3.647759        99.2606 
 225   0.0000       3.652889        99.4002 
 226   0.0000       3.689512       100.3967 
 227   0.0000       3.721868       101.2772 
 228   0.0000       3.762342       102.3785 
 229   0.0000       3.763659       102.4144 
 230   0.0000       3.773790       102.6900 
 231   0.0000       3.777592       102.7935 
 232   0.0000       3.789244       103.1106 
 233   0.0000       3.807933       103.6191 
 234   0.0000       3.822295       104.0099 
 235   0.0000       3.829597       104.2086 
 236   0.0000       3.849077       104.7387 
 237   0.0000       3.862582       105.1062 
 238   0.0000       3.887090       105.7731 
 239   0.0000       3.892512       105.9206 
 240   0.0000       3.910063       106.3982 
 241   0.0000       3.913738       106.4982 
 242   0.0000       3.964717       107.8854 
 243   0.0000       3.971138       108.0601 
 244   0.0000       4.027167       109.5848 
 245   0.0000       4.050793       110.2277 
 246   0.0000       4.052919       110.2855 
 247   0.0000       4.075526       110.9007 
 248   0.0000       4.096906       111.4825 
 249   0.0000       4.117724       112.0490 
 250   0.0000       4.122141       112.1692 
 251   0.0000       4.138491       112.6141 
 252   0.0000       4.171987       113.5255 
 253   0.0000       4.202160       114.3466 
 254   0.0000       4.220350       114.8416 
 255   0.0000       4.241855       115.4268 
 256   0.0000       4.244380       115.4955 
 257   0.0000       4.281610       116.5085 
 258   0.0000       4.298420       116.9659 
 259   0.0000       4.301058       117.0377 
 260   0.0000       4.314673       117.4082 
 261   0.0000       4.341767       118.1455 
 262   0.0000       4.343792       118.2006 
 263   0.0000       4.364048       118.7518 
 264   0.0000       4.374622       119.0395 
 265   0.0000       4.382898       119.2647 
 266   0.0000       4.404552       119.8539 
 267   0.0000       4.466192       121.5313 
 268   0.0000       4.537658       123.4759 
 269   0.0000       4.587703       124.8378 
 270   0.0000       4.644531       126.3841 
 271   0.0000       4.647736       126.4713 
 272   0.0000       4.673277       127.1663 
 273   0.0000       4.697251       127.8187 
 274   0.0000       4.754795       129.3845 
 275   0.0000       4.757341       129.4538 
 276   0.0000       4.772843       129.8757 
 277   0.0000       4.783086       130.1544 
 278   0.0000       4.805950       130.7766 
 279   0.0000       4.850218       131.9812 
 280   0.0000       4.908663       133.5715 
 281   0.0000       4.918858       133.8489 
 282   0.0000       4.982503       135.5808 
 283   0.0000       4.986004       135.6761 
 284   0.0000       5.014340       136.4471 
 285   0.0000       5.032516       136.9417 
 286   0.0000       5.073210       138.0491 
 287   0.0000       5.078164       138.1839 
 288   0.0000       5.115777       139.2074 
 289   0.0000       5.178214       140.9064 
 290   0.0000       5.214165       141.8846 
 291   0.0000       5.225134       142.1831 
 292   0.0000       5.291682       143.9940 
 293   0.0000       5.355156       145.7212 
 294   0.0000       5.383035       146.4798 
 295   0.0000       5.471113       148.8765 
 296   0.0000       5.558885       151.2650 
 297   0.0000       5.625715       153.0835 
 298   0.0000       5.655302       153.8886 
 299   0.0000       5.664960       154.1514 
 300   0.0000       5.733344       156.0122 
 301   0.0000       5.824692       158.4979 
 302   0.0000       5.922549       161.1607 
 303   0.0000       5.961882       162.2311 
 304   0.0000       6.027077       164.0051 
 305   0.0000       6.099673       165.9805 
 306   0.0000       6.162323       167.6853 
 307   0.0000       6.263385       170.4354 
 308   0.0000       6.355652       172.9461 
 309   0.0000       6.384561       173.7327 
 310   0.0000       6.454094       175.6248 
 311   0.0000       6.712146       182.6468 
 312   0.0000       6.817316       185.5086 
 313   0.0000       6.980499       189.9490 
 314   0.0000       7.026925       191.2124 
 315   0.0000       7.153945       194.6687 
 316   0.0000       8.752313       238.1626 
 317   0.0000      11.047203       300.6097 
 318   0.0000      12.066580       328.3483 
 319   0.0000      12.645005       344.0881 
 320   0.0000      12.777987       347.7067 
 321   0.0000      13.323202       362.5428 
 322   0.0000      13.548121       368.6631 
 323   0.0000      15.430890       419.8959 
------------------
MOLECULAR ORBITALS
------------------
                      0         1         2         3         4         5   
                 -19.12201 -10.25676 -10.18698 -10.18642 -10.18526 -10.18387
                   2.00000   2.00000   2.00000   2.00000   2.00000   2.00000
                  --------  --------  --------  --------  --------  --------
  0C   1s         0.000255  0.002706  0.748833 -0.623640  0.006441  0.094730
  0C   2s         0.000518  0.000977  0.007910 -0.009100 -0.002732  0.003121
  0C   3s         0.000033  0.000994  0.040450 -0.032522  0.000093  0.004088
  0C   4s        -0.000045  0.003941  0.002726 -0.022239 -0.012596  0.016664
  0C   1pz        0.000000  0.000000  0.000000  0.000000 -0.000000  0.000001
  0C   1px       -0.000001 -0.000324  0.000462  0.000731  0.000008  0.000497
  0C   1py       -0.000050 -0.000563 -0.000153 -0.000030  0.000046 -0.000658
  0C   2pz       -0.000000 -0.000002 -0.000003 -0.000001  0.000001 -0.000004
  0C   2px       -0.000396  0.001735 -0.001862 -0.006972 -0.000845 -0.003767
  0C   2py        0.000024  0.003509  0.003568 -0.001477 -0.001629  0.004906
  0C   3pz        0.000000 -0.000007 -0.000003 -0.000000  0.000002 -0.000001
  0C   3px       -0.000767 -0.001820  0.002042 -0.007051 -0.003068 -0.001616
  0C   3py       -0.001517  0.007780  0.006942 -0.003586 -0.005218  0.002132
  0C   1dz2      -0.000076  0.000198 -0.001133  0.001342  0.000057 -0.000463
  0C   1dxz       0.000000 -0.000000  0.000001 -0.000001 -0.000000  0.000000
  0C   1dyz       0.000000  0.000000 -0.000001  0.000002  0.000000 -0.000000
  0C   1dx2y2     0.000060 -0.000126  0.000045  0.000009 -0.000045  0.000006
  0C   1dxy       0.000113  0.000380 -0.000080  0.000028  0.000088  0.000062
  0C   2dz2       0.000066  0.000515  0.000848  0.001088  0.000390 -0.001445
  0C   2dxz      -0.000000  0.000010  0.000000 -0.000008 -0.000003  0.000007
  0C   2dyz      -0.000001 -0.000001 -0.000004 -0.000005  0.000001 -0.000009
  0C   2dx2y2    -0.001185  0.005142 -0.004193 -0.011893 -0.001038 -0.004237
  0C   2dxy      -0.000765 -0.012449 -0.003281  0.005041  0.002144 -0.011265
  0C   1f0        0.000000  0.000001  0.000001  0.000001 -0.000000  0.000001
  0C   1f+1       0.000004 -0.000314  0.000411  0.000708  0.000001  0.000428
  0C   1f-1      -0.000045 -0.000542 -0.000124 -0.000001  0.000036 -0.000646
  0C   1f+2       0.000000 -0.000000  0.000000 -0.000001 -0.000000  0.000001
  0C   1f-2       0.000000 -0.000001  0.000001 -0.000001 -0.000000  0.000002
  0C   1f+3      -0.000135  0.001042 -0.000292  0.001945 -0.000046 -0.001409
  0C   1f-3       0.000015 -0.000095  0.000055  0.000042  0.000000  0.000133
  1C   1s         0.000126 -0.000116  0.625975  0.752823 -0.014067 -0.011005
  1C   2s         0.000241 -0.000206  0.008144  0.012382 -0.000606  0.000706
  1C   3s         0.000051 -0.000302  0.033893  0.039377 -0.000805 -0.000343
  1C   4s         0.001725  0.000140  0.003042  0.029030  0.014632 -0.009460
  1C   1pz       -0.000000  0.000000 -0.000000  0.000000 -0.000000  0.000000
  1C   1px        0.000034 -0.000236 -0.000607  0.000584  0.000043  0.000245
  1C   1py       -0.000003 -0.000258 -0.000104  0.000044  0.000345 -0.000221
  1C   2pz       -0.000000 -0.000000  0.000001 -0.000003  0.000001 -0.000002
  1C   2px       -0.000669  0.003050  0.003483 -0.006192  0.000151 -0.003191
  1C   2py        0.000022  0.001852  0.000487  0.000705 -0.003111  0.002340
  1C   3pz       -0.000001  0.000002  0.000002 -0.000005 -0.000003  0.000001
  1C   3px        0.000199  0.001004  0.001398 -0.005233 -0.001740  0.000771
  1C   3py        0.001428 -0.001068 -0.003466  0.005273  0.004415 -0.001822
  1C   1dz2       0.000019  0.000040 -0.000971 -0.001792  0.000103  0.000045
  1C   1dxz       0.000000 -0.000000  0.000000  0.000001 -0.000000 -0.000000
  1C   1dyz       0.000000  0.000000 -0.000001 -0.000002  0.000000  0.000000
  1C   1dx2y2     0.000025  0.000140 -0.000244  0.000072 -0.000174  0.000090
  1C   1dxy       0.000021  0.000225 -0.000064 -0.000299 -0.000102  0.000288
  1C   2dz2      -0.000010 -0.000811 -0.000343 -0.001633 -0.000947  0.000679
  1C   2dxz       0.000000  0.000003 -0.000000  0.000001  0.000000  0.000003
  1C   2dyz      -0.000000 -0.000005 -0.000003  0.000005  0.000001 -0.000001
  1C   2dx2y2     0.000029 -0.003652 -0.005367  0.008348  0.003852 -0.000319
  1C   2dxy      -0.000595 -0.007110 -0.001422  0.004501  0.001218 -0.006324
  1C   1f0       -0.000000 -0.000000 -0.000001  0.000000 -0.000000  0.000000
  1C   1f+1      -0.000012 -0.000100 -0.000685  0.000343  0.000032 -0.000000
  1C   1f-1       0.000002 -0.000047  0.000215  0.000214  0.000141 -0.000073
  1C   1f+2       0.000000 -0.000000  0.000000 -0.000001 -0.000000 -0.000000
  1C   1f-2       0.000000 -0.000000 -0.000001 -0.000001 -0.000000  0.000001
  1C   1f+3      -0.000056  0.000286  0.000230  0.002392  0.000259 -0.000480
  1C   1f-3       0.000005 -0.000318 -0.000015 -0.000156 -0.000193 -0.000327
  2C   1s         0.000072 -0.000009  0.028892  0.039891  0.061491  0.005307
  2C   2s         0.000144  0.000010 -0.000728 -0.000284 -0.000695  0.002397
  2C   3s         0.000032  0.000358  0.002087  0.002978  0.004196  0.000733
  2C   4s        -0.001724  0.004104  0.001977 -0.020803 -0.014542  0.008081
  2C   1pz       -0.000000 -0.000000  0.000000  0.000000 -0.000000 -0.000000
  2C   1px       -0.000010 -0.000110 -0.000359 -0.000041 -0.000274  0.000006
  2C   1py        0.000015 -0.000048 -0.000564 -0.000386  0.000720 -0.000002
  2C   2pz        0.000000  0.000001 -0.000002 -0.000002  0.000003  0.000001
  2C   2px       -0.000080  0.000835  0.003450  0.000345  0.002742 -0.002744
  2C   2py       -0.000339  0.000212  0.003772  0.002391 -0.005108 -0.000184
  2C   3pz       -0.000000 -0.000001 -0.000000  0.000001  0.000001  0.000000
  2C   3px        0.000470 -0.002639  0.000370  0.007589  0.005752 -0.005182
  2C   3py        0.000557  0.000759 -0.000303  0.000600 -0.000983 -0.000552
  2C   1dz2      -0.000011  0.000086  0.000233  0.000202  0.000278 -0.000086
  2C   1dxz      -0.000000 -0.000000 -0.000000  0.000000 -0.000000  0.000000
  2C   1dyz       0.000000  0.000000  0.000000  0.000000  0.000001 -0.000000
  2C   1dx2y2     0.000001  0.000172  0.000212 -0.000119  0.000064 -0.000100
  2C   1dxy       0.000014 -0.000077 -0.000113 -0.000312  0.000324  0.000014
  2C   2dz2       0.000056  0.000288  0.000034  0.001405  0.000898  0.000236
  2C   2dxz      -0.000000  0.000000  0.000002  0.000001 -0.000004  0.000000
  2C   2dyz      -0.000000 -0.000002  0.000000  0.000007  0.000004 -0.000002
  2C   2dx2y2    -0.000380 -0.003680  0.000255  0.008461  0.006229 -0.004422
  2C   2dxy       0.000162 -0.000981 -0.005300 -0.002069  0.005371 -0.000062
  2C   1f0       -0.000000  0.000000  0.000001  0.000000 -0.000001 -0.000000
  2C   1f+1      -0.000002 -0.000053 -0.000299 -0.000246 -0.000368  0.000052
  2C   1f-1       0.000010 -0.000111 -0.000452 -0.000430  0.000649 -0.000010
  2C   1f+2      -0.000000  0.000000  0.000000 -0.000000 -0.000001  0.000000
  2C   1f-2      -0.000000 -0.000000 -0.000000 -0.000001 -0.000002  0.000000
  2C   1f+3      -0.000011  0.000111  0.000549  0.001292  0.001226  0.000036
  2C   1f-3      -0.000034 -0.000040 -0.000177  0.000048  0.000010 -0.000052
  3C   1s        -0.000005 -0.000244 -0.001146  0.015067  0.975683  0.018380
  3C   2s        -0.000012 -0.000449 -0.002024  0.001677  0.013372  0.000253
  3C   3s        -0.000016 -0.000218 -0.000399  0.001013  0.051612  0.000939
  3C   4s         0.000665 -0.008844  0.001077  0.016358  0.022842 -0.012805
  3C   1pz       -0.000000  0.000000  0.000000  0.000000  0.000000  0.000000
  3C   1px       -0.000007 -0.000004 -0.000018  0.000052 -0.000018  0.000320
  3C   1py        0.000013  0.000008 -0.000236 -0.000212 -0.000008  0.000124
  3C   2pz        0.000000 -0.000000 -0.000003 -0.000001 -0.000001 -0.000000
  3C   2px        0.000124  0.000378  0.001564 -0.000977  0.000170 -0.002136
  3C   2py       -0.000117  0.000441  0.003897  0.000004 -0.000103 -0.001169
  3C   3pz        0.000000 -0.000001 -0.000001  0.000003  0.000001 -0.000001
  3C   3px       -0.000456  0.002821  0.001638 -0.002534 -0.001758  0.003249
  3C   3py       -0.000239  0.003530  0.001574 -0.007044 -0.002971  0.003117
  3C   1dz2       0.000001 -0.000009  0.000117 -0.000053 -0.001932 -0.000099
  3C   1dxz       0.000000  0.000000 -0.000000 -0.000000  0.000001  0.000000
  3C   1dyz       0.000000 -0.000000 -0.000000 -0.000000 -0.000002 -0.000000
  3C   1dx2y2    -0.000001  0.000015 -0.000169 -0.000116 -0.000194 -0.000005
  3C   1dxy      -0.000010 -0.000039  0.000158  0.000002  0.000315 -0.000210
  3C   2dz2      -0.000040 -0.000070 -0.000761 -0.000524 -0.001518  0.000773
  3C   2dxz      -0.000000 -0.000002 -0.000001  0.000004  0.000004 -0.000003
  3C   2dyz      -0.000000 -0.000000  0.000001  0.000002 -0.000002  0.000002
  3C   2dx2y2    -0.000214 -0.001442  0.000690  0.004797  0.001368  0.000167
  3C   2dxy       0.000106  0.002627  0.001611 -0.004363 -0.002669  0.005088
  3C   1f0       -0.000000  0.000000  0.000000  0.000000  0.000001  0.000000
  3C   1f+1      -0.000003  0.000018 -0.000025  0.000050 -0.000215  0.000143
  3C   1f-1       0.000005  0.000013 -0.000132 -0.000051 -0.000351  0.000025
  3C   1f+2      -0.000000 -0.000000  0.000000  0.000000 -0.000000  0.000000
  3C   1f-2      -0.000000 -0.000000 -0.000000 -0.000000 -0.000002  0.000000
  3C   1f+3      -0.000003  0.000073  0.000262  0.000234  0.001916 -0.000228
  3C   1f-3       0.000002 -0.000012  0.000096  0.000156 -0.000038  0.000172
  4C   1s         0.000009  0.000018  0.001070 -0.005057  0.060296 -0.091257
  4C   2s         0.000018  0.000055 -0.001616 -0.001715 -0.000577  0.000116
  4C   3s        -0.000021  0.000296 -0.000227 -0.000612  0.004162 -0.005816
  4C   4s        -0.000609  0.006473  0.005900 -0.015443 -0.014320  0.013530
  4C   1pz        0.000000  0.000000  0.000000 -0.000000  0.000000 -0.000000
  4C   1px        0.000000  0.000025 -0.000044  0.000072  0.000739  0.000463
  4C   1py       -0.000001 -0.000090 -0.000276  0.000216  0.000097  0.000518
  4C   2pz       -0.000000 -0.000001 -0.000002 -0.000000 -0.000001  0.000001
  4C   2px        0.000068 -0.000426 -0.000609 -0.001136 -0.005434 -0.002612
  4C   2py       -0.000027  0.000419  0.003794  0.000181 -0.000095 -0.004054
  4C   3pz       -0.000000  0.000003  0.000000 -0.000004 -0.000003  0.000004
  4C   3px       -0.000269  0.003812 -0.000421 -0.001921 -0.003588  0.002623
  4C   3py        0.000034 -0.002982 -0.000309  0.006504  0.004334 -0.005165
  4C   1dz2      -0.000013  0.000073  0.000105  0.000020  0.000278 -0.000209
  4C   1dxz      -0.000000  0.000000 -0.000000  0.000000 -0.000000 -0.000000
  4C   1dyz      -0.000000  0.000000 -0.000000  0.000000  0.000000 -0.000000
  4C   1dx2y2    -0.000007 -0.000046 -0.000201  0.000062 -0.000279 -0.000258
  4C   1dxy       0.000012 -0.000154 -0.000165  0.000027  0.000118  0.000209
  4C   2dz2       0.000004  0.000190 -0.000753  0.000302  0.000908 -0.001038
  4C   2dxz      -0.000000 -0.000000  0.000001 -0.000000 -0.000001 -0.000004
  4C   2dyz       0.000000  0.000002  0.000000 -0.000004 -0.000004  0.000002
  4C   2dx2y2     0.000181  0.002833  0.002697 -0.005092 -0.007674 -0.000441
  4C   2dxy       0.000170  0.002714 -0.000244 -0.004320 -0.002621  0.008565
  4C   1f0        0.000000  0.000000  0.000000 -0.000000  0.000001 -0.000000
  4C   1f+1       0.000007 -0.000078 -0.000010  0.000087  0.000721  0.000373
  4C   1f-1       0.000010 -0.000084 -0.000134  0.000070 -0.000018  0.000643
  4C   1f+2       0.000000  0.000000  0.000000 -0.000000 -0.000001 -0.000000
  4C   1f-2       0.000000 -0.000000  0.000000  0.000000 -0.000000  0.000001
  4C   1f+3      -0.000026  0.000090 -0.000243  0.000129  0.001257 -0.001234
  4C   1f-3       0.000003  0.000011  0.000117 -0.000170 -0.000064  0.000036
  5C   1s        -0.000175 -0.000364  0.064001 -0.068018  0.013622 -0.971421
  5C   2s        -0.000350 -0.000652 -0.000764 -0.000760 -0.000177 -0.014702
  5C   3s        -0.000070 -0.000347  0.003998 -0.004292  0.000678 -0.051559
  5C   4s         0.001255 -0.009390 -0.005831  0.014367  0.014503 -0.022511
  5C   1pz       -0.000000  0.000000  0.000001 -0.000000 -0.000000 -0.000000
  5C   1px        0.000041 -0.000026  0.000448  0.000091  0.000278  0.000015
  5C   1py        0.000025 -0.000318 -0.000688  0.000344  0.000205 -0.000092
  5C   2pz       -0.000000 -0.000003 -0.000005  0.000000 -0.000000 -0.000003
  5C   2px       -0.000943 -0.001523 -0.004609 -0.001282 -0.002761 -0.001885
  5C   2py        0.000287  0.004141  0.005285 -0.001518 -0.001342  0.002057
  5C   3pz        0.000000 -0.000004 -0.000002  0.000001  0.000002 -0.000003
  5C   3px        0.000077 -0.004867 -0.004317  0.005538  0.004569 -0.002861
  5C   3py       -0.000309  0.004043  0.000435  0.001463  0.000482  0.001920
  5C   1dz2       0.000021  0.000018  0.000180 -0.000104  0.000038  0.002004
  5C   1dxz      -0.000000 -0.000000 -0.000000  0.000000 -0.000000 -0.000001
  5C   1dyz       0.000000 -0.000000  0.000000 -0.000000  0.000000  0.000002
  5C   1dx2y2     0.000036 -0.000213  0.000176  0.000233  0.000194 -0.000303
  5C   1dxy       0.000040  0.000053  0.000178 -0.000217  0.000106  0.000036
  5C   2dz2      -0.000119 -0.000625  0.000160 -0.000876 -0.000930  0.001394
  5C   2dxz       0.000000  0.000003 -0.000003 -0.000002  0.000001 -0.000000
  5C   2dyz       0.000000  0.000004  0.000004 -0.000007 -0.000003  0.000004
  5C   2dx2y2     0.000309  0.008226  0.003408 -0.009267 -0.003074  0.004138
  5C   2dxy       0.000439 -0.000216  0.006366 -0.000638 -0.002678  0.001786
  5C   1f0       -0.000000  0.000000  0.000001 -0.000001 -0.000000 -0.000000
  5C   1f+1       0.000033  0.000036  0.000378 -0.000189  0.000122 -0.000345
  5C   1f-1       0.000021 -0.000037 -0.000494  0.000389  0.000102 -0.000077
  5C   1f+2      -0.000000  0.000000  0.000001 -0.000001 -0.000000  0.000001
  5C   1f-2       0.000000 -0.000000  0.000001 -0.000001 -0.000000  0.000001
  5C   1f+3      -0.000043  0.000226 -0.000741  0.000994  0.000321 -0.002021
  5C   1f-3      -0.000037  0.000258 -0.000194 -0.000244  0.000191 -0.000040
  6H   1s        -0.000018 -0.000273  0.000074  0.000064 -0.000033 -0.000041
  6H   2s        -0.000079 -0.006412 -0.007929  0.001168 -0.000480 -0.000866
  6H   3s         0.000278 -0.000023 -0.002485 -0.000073  0.000306  0.000306
  6H   1pz       -0.000000  0.000000  0.000000  0.000001  0.000000 -0.000000
  6H   1px       -0.000011  0.000031  0.000335  0.000518  0.000092 -0.000107
  6H   1py        0.000024 -0.000068 -0.000617 -0.000905 -0.000122  0.000219
  6H   2pz        0.000000  0.000001  0.000002  0.000001  0.000000 -0.000000
  6H   2px       -0.000054  0.000581  0.002888 -0.000735 -0.000434 -0.000674
  6H   2py       -0.000079 -0.001964 -0.002765 -0.001399 -0.000871 -0.000225
  6H   1dz2      -0.000011 -0.000110  0.000472  0.000666  0.000104 -0.000174
  6H   1dxz       0.000000  0.000000 -0.000001 -0.000001 -0.000000  0.000000
  6H   1dyz      -0.000000 -0.000000  0.000001  0.000001  0.000000 -0.000000
  6H   1dx2y2    -0.000005  0.000094  0.000355  0.000764  0.000096 -0.000090
  6H   1dxy      -0.000020  0.000009  0.000952  0.000859  0.000062 -0.000155
  7H   1s         0.000002  0.000077  0.000082  0.000070  0.000081  0.000050
  7H   2s         0.000397  0.002591 -0.002402 -0.004709 -0.005100  0.005046
  7H   3s        -0.000081  0.000475 -0.000621 -0.001079 -0.001216  0.001400
  7H   1pz       -0.000000 -0.000000  0.000000  0.000000  0.000000 -0.000000
  7H   1px        0.000004 -0.000010  0.000058 -0.000207 -0.000078 -0.000085
  7H   1py        0.000002  0.000018 -0.000031 -0.000015  0.000036 -0.000002
  7H   2pz        0.000000  0.000001 -0.000001 -0.000001  0.000000  0.000001
  7H   2px       -0.000138 -0.000627  0.001173  0.001476  0.001925 -0.001796
  7H   2py       -0.000061  0.000229  0.001632  0.000669 -0.001715  0.000032
  7H   1dz2       0.000007  0.000073  0.000099 -0.000090  0.000017  0.000003
  7H   1dxz       0.000000 -0.000000  0.000000 -0.000000 -0.000000 -0.000000
  7H   1dyz       0.000000  0.000000  0.000000 -0.000000 -0.000000  0.000000
  7H   1dx2y2     0.000006  0.000014 -0.000104  0.000015 -0.000080  0.000142
  7H   1dxy       0.000012 -0.000030 -0.000208 -0.000164  0.000276  0.000015
  8H   1s        -0.000004 -0.000080 -0.000047  0.000027  0.000085 -0.000003
  8H   2s        -0.000137 -0.002549 -0.004218  0.004045 -0.005616 -0.001045
  8H   3s         0.000116 -0.001201 -0.001170  0.001249 -0.001384 -0.000324
  8H   1pz       -0.000000 -0.000000 -0.000000 -0.000000 -0.000001  0.000000
  8H   1px       -0.000005  0.000032  0.000114  0.000049  0.000652 -0.000046
  8H   1py       -0.000005  0.000039  0.000171  0.000039  0.001118 -0.000118
  8H   2pz        0.000000 -0.000001 -0.000001  0.000000 -0.000002 -0.000000
  8H   2px        0.000072  0.000321  0.000517 -0.001134  0.001947 -0.000670
  8H   2py        0.000038  0.000668  0.001720 -0.000674  0.003287  0.000465
  8H   1dz2       0.000001 -0.000047  0.000084  0.000096  0.000859 -0.000103
  8H   1dxz      -0.000000  0.000000  0.000000 -0.000000  0.000001 -0.000000
  8H   1dyz      -0.000000 -0.000000  0.000000  0.000000  0.000001 -0.000000
  8H   1dx2y2    -0.000003  0.000035  0.000120  0.000015  0.000767  0.000025
  8H   1dxy      -0.000002 -0.000045 -0.000168  0.000040 -0.001363  0.000067
  9H   1s        -0.000004  0.000058 -0.000005 -0.000060  0.000084 -0.000093
  9H   2s         0.000231  0.002859 -0.002259 -0.004501 -0.005010  0.005628
  9H   3s        -0.000015  0.000942 -0.000795 -0.001190 -0.001129  0.001192
  9H   1pz       -0.000000  0.000000 -0.000000 -0.000000  0.000000 -0.000000
  9H   1px       -0.000002  0.000025 -0.000097  0.000029  0.000070 -0.000008
  9H   1py        0.000004 -0.000011  0.000155 -0.000016 -0.000066  0.000075
  9H   2pz        0.000000  0.000000 -0.000000 -0.000001 -0.000001  0.000001
  9H   2px        0.000066  0.000574  0.000112 -0.001246 -0.002350 -0.000344
  9H   2py       -0.000062 -0.000457  0.001316  0.000917  0.000849 -0.002597
  9H   1dz2       0.000002  0.000069  0.000104 -0.000078  0.000012 -0.000016
  9H   1dxz       0.000000 -0.000000 -0.000000  0.000000 -0.000000 -0.000000
  9H   1dyz      -0.000000  0.000000  0.000000 -0.000000  0.000000 -0.000000
  9H   1dx2y2     0.000000  0.000028  0.000141 -0.000001 -0.000193 -0.000296
  9H   1dxy      -0.000005 -0.000048  0.000097  0.000074  0.000201  0.000037
 10H   1s         0.000021 -0.000252  0.000033  0.000013 -0.000024 -0.000095
 10H   2s        -0.000950 -0.007319 -0.005323  0.005154 -0.000636  0.003838
 10H   3s        -0.000091 -0.001407 -0.001568  0.000675  0.000274  0.001590
 10H   1pz       -0.000000 -0.000000 -0.000000  0.000000 -0.000000  0.000000
 10H   1px       -0.000022 -0.000095 -0.000111 -0.000171 -0.000191  0.001260
 10H   1py       -0.000027 -0.000000 -0.000024  0.000009  0.000019  0.000012
 10H   2pz       -0.000000  0.000000 -0.000002  0.000000  0.000000  0.000001
 10H   2px       -0.000433 -0.002505 -0.002197  0.001509 -0.000655  0.002992
 10H   2py        0.000175 -0.000516  0.001761 -0.000374 -0.000812  0.000487
 10H   1dz2       0.000030 -0.000077  0.000090  0.000123  0.000133 -0.000815
 10H   1dxz      -0.000000  0.000000 -0.000000  0.000000 -0.000000  0.000001
 10H   1dyz      -0.000000 -0.000000  0.000000  0.000000  0.000000  0.000000
 10H   1dx2y2    -0.000039 -0.000134 -0.000229 -0.000006 -0.000151  0.001499
 10H   1dxy       0.000026 -0.000086  0.000230 -0.000141 -0.000053  0.000105
 11C   1s         0.000144  0.979733 -0.001615  0.000974 -0.000277  0.000240
 11C   2s         0.000442  0.012902  0.000392 -0.001071 -0.000548  0.000999
 11C   3s         0.000441  0.050755  0.000365 -0.000680 -0.000031  0.000450
 11C   4s        -0.002582  0.016084  0.005435  0.000952 -0.001069 -0.005291
 11C   1pz       -0.000000 -0.000001 -0.000000  0.000000 -0.000000  0.000000
 11C   1px       -0.000376 -0.000642  0.000232  0.000128  0.000035  0.000081
 11C   1py       -0.000031 -0.000117  0.000309 -0.000121  0.000098 -0.000283
 11C   2pz        0.000000  0.000001  0.000001  0.000001  0.000001 -0.000003
 11C   2px       -0.000449  0.001086 -0.000600 -0.003438 -0.000475 -0.000553
 11C   2py       -0.000275  0.000973 -0.000202 -0.003019 -0.001354  0.003834
 11C   3pz        0.000002  0.000003 -0.000001  0.000000  0.000000 -0.000001
 11C   3px        0.001126  0.003477  0.000665  0.000210 -0.000058 -0.000651
 11C   3py       -0.000818 -0.000082  0.001761 -0.000126 -0.000354  0.000047
 11C   1dz2      -0.000090 -0.002048  0.000168 -0.000176  0.000041 -0.000014
 11C   1dxz       0.000000  0.000004 -0.000000  0.000001  0.000000  0.000000
 11C   1dyz       0.000000 -0.000003  0.000000 -0.000000  0.000000  0.000000
 11C   1dx2y2     0.000217  0.000867  0.000055  0.000216  0.000034  0.000151
 11C   1dxy       0.000064 -0.000008  0.000091  0.000011 -0.000057  0.000150
 11C   2dz2       0.000186 -0.002292 -0.000088 -0.000876 -0.000144  0.000833
 11C   2dxz      -0.000001  0.000003  0.000002  0.000002  0.000001 -0.000003
 11C   2dyz      -0.000001 -0.000006 -0.000003 -0.000004 -0.000000 -0.000002
 11C   2dx2y2    -0.000910 -0.001725 -0.000929 -0.001868  0.000429 -0.003910
 11C   2dxy      -0.000653  0.000088 -0.002836 -0.002251 -0.000619 -0.000734
 11C   1f0       -0.000001 -0.000001 -0.000000  0.000000 -0.000000  0.000000
 11C   1f+1      -0.000223  0.000339  0.000191 -0.000070  0.000014  0.000056
 11C   1f-1      -0.000017  0.000448  0.000346 -0.000280  0.000040 -0.000026
 11C   1f+2       0.000001 -0.000003 -0.000000 -0.000000 -0.000000  0.000000
 11C   1f-2       0.000000 -0.000004  0.000001 -0.000001 -0.000000  0.000001
 11C   1f+3      -0.000479  0.002271 -0.000711  0.001007 -0.000011 -0.000402
 11C   1f-3      -0.000143  0.000651  0.000120  0.000288  0.000008  0.000171
 12O   1s         0.970682 -0.001030  0.000110 -0.000162 -0.000090  0.000479
 12O   2s        -0.003877 -0.001407  0.000228 -0.000298 -0.000162  0.000888
 12O   3s         0.051406  0.000873  0.000096  0.000093  0.000021  0.000024
 12O   4s         0.004508 -0.004770 -0.000086 -0.001291 -0.000398  0.002631
 12O   1pz        0.000001  0.000001 -0.000000  0.000000  0.000000 -0.000000
 12O   1px        0.001512  0.000667  0.000039  0.000081  0.000019 -0.000030
 12O   1py        0.000209  0.000071  0.000109  0.000036  0.000011  0.000041
 12O   2pz       -0.000000 -0.000003  0.000001 -0.000001 -0.000000  0.000001
 12O   2px       -0.000666 -0.003461  0.000107 -0.000912 -0.000157  0.000637
 12O   2py       -0.000201 -0.000343 -0.000464 -0.000281 -0.000067 -0.000139
 12O   3pz        0.000000 -0.000002  0.000001 -0.000000  0.000000  0.000001
 12O   3px        0.000443 -0.002289  0.000069 -0.000472 -0.000139  0.000883
 12O   3py        0.000108  0.000096 -0.000715 -0.000380 -0.000131 -0.000112
 12O   1dz2      -0.000132  0.000021 -0.000017  0.000007  0.000004 -0.000034
 12O   1dxz       0.000000 -0.000000 -0.000000 -0.000000 -0.000000  0.000000
 12O   1dyz       0.000000 -0.000000  0.000000  0.000000  0.000000  0.000000
 12O   1dx2y2     0.000239 -0.000048  0.000005 -0.000045  0.000000  0.000017
 12O   1dxy       0.000056 -0.000018  0.000087 -0.000004  0.000010  0.000034
 12O   2dz2       0.000264  0.001329  0.000081  0.000279  0.000007  0.000119
 12O   2dxz      -0.000001 -0.000004  0.000000 -0.000001 -0.000000  0.000000
 12O   2dyz      -0.000000 -0.000000 -0.000000 -0.000000 -0.000000  0.000000
 12O   2dx2y2    -0.000351 -0.002213  0.000146 -0.000374 -0.000032  0.000077
 12O   2dxy      -0.000128 -0.000373 -0.000370 -0.000184 -0.000045 -0.000158
 12O   1f0        0.000000  0.000001  0.000000  0.000000  0.000000  0.000000
 12O   1f+1       0.000069  0.000422  0.000057  0.000023 -0.000003  0.000069
 12O   1f-1       0.000005  0.000034 -0.000026  0.000001 -0.000005 -0.000007
 12O   1f+2      -0.000000 -0.000001 -0.000000 -0.000000 -0.000000 -0.000000
 12O   1f-2       0.000000 -0.000000  0.000000 -0.000000  0.000000  0.000000
 12O   1f+3       0.000033  0.000632 -0.000068  0.000134 -0.000001 -0.000002
 12O   1f-3       0.000010  0.000205 -0.000060  0.000029 -0.000012  0.000013
 13H   1s         0.000186  0.000058  0.000031 -0.000182 -0.000022  0.000025
 13H   2s        -0.000841 -0.008294 -0.002279 -0.003076 -0.000828  0.001553
 13H   3s        -0.000300 -0.002867  0.000518 -0.000182 -0.000058  0.000832
 13H   1pz       -0.000000  0.000002 -0.000000  0.000000  0.000000 -0.000000
 13H   1px       -0.000064  0.000713 -0.000110  0.000199  0.000020 -0.000139
 13H   1py        0.000101 -0.000956  0.000031 -0.000084 -0.000022  0.000160
 13H   2pz        0.000001  0.000006  0.000001  0.000002  0.000000 -0.000001
 13H   2px        0.000465  0.003038  0.000349  0.001223  0.000111  0.000287
 13H   2py       -0.000136 -0.003222 -0.000559 -0.000582 -0.000338  0.001132
 13H   1dz2       0.000070  0.000713 -0.000045  0.000007  0.000003 -0.000089
 13H   1dxz      -0.000000 -0.000003  0.000000 -0.000001 -0.000000  0.000000
 13H   1dyz       0.000000  0.000003 -0.000000  0.000000  0.000000 -0.000001
 13H   1dx2y2    -0.000111  0.000356  0.000058 -0.000190  0.000015 -0.000122
 13H   1dxy       0.000018  0.001503 -0.000100  0.000216  0.000037 -0.000156
                      6         7         8         9        10        11   
                 -10.18080 -10.18069  -1.04407  -0.86721  -0.76937  -0.75533
                   2.00000   2.00000   2.00000   2.00000   2.00000   2.00000
                  --------  --------  --------  --------  --------  --------
  0C   1s        -0.001528 -0.004563  0.004534  0.019655 -0.019692 -0.002928
  0C   2s        -0.000091 -0.000254 -0.041460 -0.216507  0.279450  0.042726
  0C   3s        -0.000005 -0.000075 -0.012007 -0.050755  0.065404  0.010088
  0C   4s        -0.015530 -0.021408  0.025626 -0.044332  0.107703  0.015603
[...]
      4       0.106661  -0.012863  -0.027361  -0.045859  -0.011733   0.104763
      5       0.000125   0.000045  -0.000093   0.000096  -0.000093  -0.000149
      6      -0.097755  -0.000777  -0.020323   0.108105  -0.012011  -0.009209
      7      -0.021796  -0.032857   0.055635   0.044858   0.146300  -0.096239
      8      -0.000211   0.000131  -0.000034  -0.000072  -0.000101   0.000040
      9       0.071228  -0.055275   0.014796  -0.004317   0.069311  -0.141713
     10      -0.040746   0.036938   0.002702  -0.010698  -0.041358   0.090536
     11       0.000316  -0.000448   0.000038  -0.000020   0.000033   0.000015
     12      -0.005242   0.049783   0.043514  -0.002964  -0.140215   0.071216
     13       0.059229   0.016022  -0.007329   0.119967  -0.035996   0.065612
     14       0.000327   0.000416   0.000208   0.000117   0.000093   0.000006
     15      -0.085304   0.006244   0.000217  -0.001498  -0.021539  -0.031319
     16      -0.060578  -0.007171  -0.032278  -0.088016   0.047630  -0.183136
     17      -0.000641  -0.000212  -0.000248  -0.000012   0.000078   0.000258
     18       0.356492   0.029869  -0.519183   0.274362  -0.378090  -0.511538
     19       0.305857   0.004855  -0.293067   0.113542  -0.173163  -0.252432
     20      -0.001290   0.000051   0.001011  -0.000521   0.000348   0.000876
     21      -0.107426  -0.001811  -0.018422   0.119321  -0.018054  -0.011002
     22      -0.264994  -0.381947   0.544695   0.504728  -0.376525  -0.191415
     23       0.001204  -0.000556  -0.000420   0.000101   0.000051   0.000085
     24       0.439275  -0.597354   0.106187   0.034104   0.072347   0.336920
     25      -0.257523   0.354176  -0.052396  -0.026951  -0.042306  -0.188271
     26      -0.001687   0.002442  -0.000088   0.000099   0.000292  -0.000808
     27       0.227538   0.477456   0.275382   0.382293   0.422491   0.214384
     28       0.196626   0.255193   0.121649   0.345579   0.285229   0.149760
     29      -0.002140  -0.002617  -0.001252  -0.001362  -0.001106  -0.000032
     30      -0.090415   0.006638   0.001298  -0.009854  -0.022785  -0.036839
     31      -0.540314  -0.261568  -0.472219  -0.082022   0.467239   0.554833
     32       0.004192   0.001721   0.002236   0.000259  -0.000900  -0.001551
     33      -0.004319  -0.000504  -0.004833   0.005675   0.000021  -0.001360
     34       0.013045  -0.011038  -0.029492   0.130766   0.091438   0.014432
     35      -0.000110  -0.000023  -0.000050  -0.000039  -0.000139  -0.000025
     36      -0.013338   0.000882  -0.003447   0.034552   0.004392  -0.000007
     37      -0.010044   0.000900  -0.001311   0.013765  -0.028395  -0.000981
     38       0.000002   0.000009   0.000011   0.000002   0.000041  -0.000001
     39      -0.034319  -0.010661  -0.042213   0.283034  -0.241127  -0.027833
     40      -0.006599  -0.018576  -0.058277   0.338369  -0.081954  -0.006276
     41       0.000258   0.000058   0.000188  -0.000501   0.000225  -0.000016
                 30         31         32         33         34         35    
      0       0.014961  -0.138758  -0.058231   0.245602  -0.160890  -0.097999
      1       0.019594   0.083955  -0.136966  -0.178565  -0.146348   0.060635
      2      -0.000035  -0.000100   0.000101   0.000209   0.000046  -0.000115
      3       0.020510   0.009268   0.115330  -0.201820   0.254911  -0.023748
      4      -0.016390  -0.101368   0.016786   0.026742   0.200233  -0.061336
      5       0.000019   0.000054  -0.000034  -0.000013  -0.000114   0.000044
      6      -0.005011   0.077405  -0.034584   0.138506  -0.097529   0.006833
      7       0.051111   0.118323   0.141473  -0.195692  -0.236415   0.065190
      8      -0.000021  -0.000074  -0.000062   0.000111   0.000130  -0.000040
      9      -0.004875  -0.122935  -0.055738  -0.290588   0.105258   0.013447
     10       0.002389   0.060169  -0.087976   0.204120   0.094016  -0.027255
     11       0.000023   0.000067   0.000069  -0.000077  -0.000039   0.000011
     12      -0.038390  -0.042409   0.158674   0.159229  -0.224057   0.000983
     13      -0.041356  -0.112177   0.050649  -0.086678  -0.199208   0.034617
     14       0.000027   0.000103  -0.000073   0.000049   0.000113  -0.000009
     15       0.019214   0.085528  -0.059858  -0.091057   0.099908   0.029664
     16       0.018167   0.043283   0.107647   0.226490   0.266914  -0.079159
     17      -0.000014  -0.000040  -0.000154  -0.000236  -0.000179   0.000087
     18      -0.071850   0.200460  -0.374278   0.161329  -0.410993   0.071947
     19      -0.074620  -0.011590  -0.269481   0.240595  -0.165445  -0.001255
     20       0.000057  -0.000047   0.000536  -0.000447   0.000503  -0.000047
     21      -0.005605   0.090158  -0.047505   0.159801  -0.107876   0.007068
     22      -0.204510  -0.413137  -0.459577   0.243221   0.264265  -0.056302
     23       0.000107   0.000346   0.000141   0.000092  -0.000226   0.000033
     24       0.126250   0.527040  -0.072187   0.445347   0.034056  -0.025406
     25      -0.075406  -0.321943  -0.102134  -0.221353   0.153357  -0.007448
     26      -0.000137  -0.000674  -0.000052  -0.000715   0.000107   0.000043
     27       0.129826   0.332884  -0.421913   0.005983   0.336658   0.013818
     28       0.050128   0.080219  -0.284805  -0.196440   0.103914   0.041252
     29      -0.000244  -0.000390   0.000766   0.000363  -0.000589  -0.000058
     30       0.022016   0.099973  -0.071359  -0.093829   0.114399   0.047863
     31       0.010644  -0.180067  -0.425547  -0.306640  -0.361747   0.071991
     32       0.000020   0.000500   0.000817   0.000751   0.000857  -0.000176
     33       0.004778  -0.016184   0.011641   0.062349   0.058655   0.671793
     34      -0.090852  -0.003353   0.037378   0.034116   0.031185   0.105920
     35       0.000297  -0.000111  -0.000044   0.000071  -0.000002   0.000620
     36      -0.072321   0.051956   0.005115  -0.067690  -0.018535  -0.442448
     37       0.031938  -0.000539  -0.000991  -0.012629  -0.002948  -0.047155
     38      -0.000162   0.000075   0.000006  -0.000084  -0.000016  -0.000479
     39       0.813945  -0.310613  -0.014258   0.130958  -0.104066  -0.253759
     40       0.470044  -0.203403   0.020271   0.077252  -0.071210  -0.474826
     41      -0.000752   0.000282   0.000035  -0.000073   0.000139   0.000680
                 36         37         38         39         40         41    
      0       0.002670   0.001819  -0.001032   0.000800   0.001616  -0.000216
      1       0.000479   0.000615   0.000077   0.000673  -0.001417   0.001417
      2       0.000005   0.000001   0.000000  -0.000000   0.000001  -0.000002
      3      -0.000556  -0.035860   0.018002  -0.009557  -0.007778  -0.004500
      4       0.000733   0.062286  -0.032602   0.018615   0.018720   0.010233
      5      -0.000000  -0.000044   0.000025  -0.000019  -0.000015  -0.000013
      6      -0.000495   0.035280   0.011290  -0.041952  -0.056832  -0.035650
      7      -0.000290  -0.001738   0.002423  -0.001854   0.000637   0.001382
      8       0.000001   0.000009   0.000001  -0.000010  -0.000011  -0.000012
      9      -0.000279  -0.012129  -0.026647   0.020988  -0.014092  -0.021130
     10       0.000023  -0.020622  -0.047010   0.030685  -0.029590  -0.034913
     11      -0.000001   0.000011   0.000023  -0.000016   0.000013   0.000017
     12       0.000365  -0.007303  -0.023439  -0.025513  -0.003959   0.023606
     13      -0.000232   0.013477   0.043786   0.041065   0.013538  -0.042885
     14      -0.000000  -0.000009  -0.000028  -0.000023  -0.000007   0.000031
     15      -0.000034   0.006088   0.019090   0.039717  -0.054015   0.051623
     16       0.000483  -0.000821  -0.000838  -0.001632  -0.000623   0.002053
     17       0.000000   0.000002   0.000008   0.000021  -0.000020   0.000024
     18       0.001489   0.408845  -0.208943   0.112046   0.104835   0.055996
     19      -0.009646  -0.725630   0.371947  -0.200572  -0.192388  -0.101919
     20       0.000016   0.000544  -0.000270   0.000131   0.000128   0.000059
     21       0.001094  -0.425566  -0.131334   0.483503   0.636727   0.393961
     22      -0.000794   0.003968  -0.001707  -0.000171  -0.003875  -0.003655
     23      -0.000000  -0.000095  -0.000029   0.000095   0.000134   0.000076
     24      -0.000009   0.142944   0.318561  -0.217329   0.181682   0.225894
     25       0.000442   0.244313   0.545689  -0.365291   0.316371   0.384260
     26      -0.000002  -0.000116  -0.000272   0.000173  -0.000168  -0.000193
     27      -0.001732   0.088541   0.284851   0.272953   0.072058  -0.263522
     28       0.001074  -0.157810  -0.509371  -0.481522  -0.135092   0.468483
     29      -0.000001   0.000100   0.000327   0.000322   0.000083  -0.000293
     30      -0.006084  -0.070662  -0.231519  -0.467843   0.618207  -0.579199
     31       0.001623   0.001267   0.000413   0.002011   0.000518  -0.002023
     32      -0.000002  -0.000039  -0.000116  -0.000220   0.000289  -0.000258
     33       0.043868   0.000314   0.000052   0.000505  -0.000607   0.000800
     34      -0.070104   0.000862  -0.000534   0.000504   0.000133   0.000702
     35       0.000131  -0.000003   0.000003  -0.000000  -0.000003   0.000000
     36       0.001913  -0.000360   0.000099  -0.000373   0.000202  -0.000546
     37       0.000595  -0.000170   0.000180   0.000039  -0.000209   0.000009
     38       0.000006  -0.000002  -0.000000   0.000003   0.000002   0.000004
     39      -0.567739   0.002112  -0.001188   0.001466  -0.000165   0.002360
     40       0.818948  -0.007554   0.003605  -0.004309   0.001120  -0.006377
     41      -0.001717   0.000032  -0.000012   0.000008  -0.000001   0.000007


-----------
IR SPECTRUM
-----------

 Mode    freq (cm**-1)   T**2         TX         TY         TZ
-------------------------------------------------------------------
   6:       110.76    7.670647  ( -0.003924  -0.000181   2.769590)
   7:       220.59   12.717567  (  0.347018   3.548366   0.079011)
   8:       228.90   13.353448  (  0.010983   0.091574  -3.653073)
   9:       416.88    0.105310  (  0.000403  -0.017068   0.324066)
  10:       445.49    0.231596  ( -0.137432  -0.460824   0.018682)
  11:       463.59   12.195299  (  0.010956   0.013073   3.492135)
  12:       630.60    0.651714  (  0.079208  -0.803347  -0.008643)
  13:       660.60   45.410777  (  2.058255   6.416684  -0.022908)
  14:       705.40   60.983215  (  0.009015   0.012611   7.809160)
  15:       766.35   62.195476  ( -0.001246   0.002562   7.886410)
  16:       839.36   51.174386  ( -1.904382  -6.895482  -0.007024)
  17:       865.05    0.002687  ( -0.014546  -0.039227  -0.030598)
  18:       951.26    1.814810  ( -0.001563  -0.037206  -1.346634)
  19:      1004.70    0.000409  (  0.017958  -0.009084  -0.002040)
  20:      1020.69    1.494106  (  0.600249   1.064800  -0.002728)
  21:      1025.88    0.201924  (  0.005350  -0.004288  -0.449307)
  22:      1041.05    1.862282  ( -0.076893  -0.117475  -1.357413)
  23:      1041.94    9.010637  (  1.439651   2.633012  -0.072718)
  24:      1098.14   12.296513  (  3.040674  -1.746632   0.009591)
  25:      1171.36    4.815249  ( -1.812897  -1.236384   0.002771)
  26:      1178.41   34.024603  ( -2.819387  -5.106432   0.003613)
  27:      1228.83  129.220459  (  5.746507   9.808063   0.004089)
  28:      1334.22   33.210412  (  3.288952   4.732134  -0.010470)
  29:      1350.10   10.326394  ( -2.398151   2.138976  -0.006790)
  30:      1424.63   20.528650  (  2.536341  -3.754370   0.018186)
  31:      1484.08   22.544459  (  0.658887  -4.702156   0.007622)
  32:      1520.81    1.216438  (  0.551936   0.954880  -0.002949)
  33:      1619.05   30.312149  (  4.084038   3.692258   0.004318)
  34:      1635.98   85.437233  (  5.868103   7.141610   0.001974)
  35:      1743.49  461.043539  ( 19.226074   9.560406   0.016650)
  36:      2912.90  175.795498  (  4.776734 -12.368433   0.012873)
  37:      3164.88    4.447733  ( -0.608537   2.019257   0.003838)
  38:      3171.63    2.139540  ( -0.593898  -1.336720   0.001924)
  39:      3181.00   13.891566  ( -1.628244   3.352662  -0.006449)
  40:      3189.77   22.566219  ( -4.734549   0.387424  -0.013025)
  41:      3195.29   14.831469  ( -0.757087  -3.776015  -0.000367)

The first frequency considered to be a vibration is 6
The total number of vibrations considered is 36


--------------------------
THERMOCHEMISTRY AT 298.15K
--------------------------

Temperature         ... 298.15 K
Pressure            ... 1.00 atm
Total Mass          ... 106.12 AMU

Throughout the following assumptions are being made:
  (1) The electronic state is orbitally nondegenerate
  (2) There are no thermally accessible electronically excited states
  (3) Hindered rotations indicated by low frequency modes are not
      treated as such but are treated as vibrations and this may
      cause some error
  (4) All equations used are the standard statistical mechanics
      equations for an ideal gas
  (5) All vibrations are strictly harmonic

freq.     110.76  E(vib)   ...       0.45 
freq.     220.59  E(vib)   ...       0.33 
freq.     228.90  E(vib)   ...       0.32 
freq.     416.88  E(vib)   ...       0.18 
freq.     445.49  E(vib)   ...       0.17 
freq.     463.59  E(vib)   ...       0.16 
freq.     630.60  E(vib)   ...       0.09 
freq.     660.60  E(vib)   ...       0.08 
freq.     705.40  E(vib)   ...       0.07 
freq.     766.35  E(vib)   ...       0.06 
freq.     839.36  E(vib)   ...       0.04 
freq.     865.05  E(vib)   ...       0.04 
freq.     951.26  E(vib)   ...       0.03 
freq.    1004.70  E(vib)   ...       0.02 
freq.    1020.69  E(vib)   ...       0.02 
freq.    1025.88  E(vib)   ...       0.02 
freq.    1041.05  E(vib)   ...       0.02 
freq.    1041.94  E(vib)   ...       0.02 
freq.    1098.14  E(vib)   ...       0.02 
freq.    1171.36  E(vib)   ...       0.01 
freq.    1178.41  E(vib)   ...       0.01 
freq.    1228.83  E(vib)   ...       0.01 
freq.    1334.22  E(vib)   ...       0.01 
freq.    1350.10  E(vib)   ...       0.01 
freq.    1424.63  E(vib)   ...       0.00 
freq.    1484.08  E(vib)   ...       0.00 
freq.    1520.81  E(vib)   ...       0.00 
freq.    1619.05  E(vib)   ...       0.00 
freq.    1635.98  E(vib)   ...       0.00 
freq.    1743.49  E(vib)   ...       0.00 
freq.    2912.90  E(vib)   ...       0.00 
freq.    3164.88  E(vib)   ...       0.00 
freq.    3171.63  E(vib)   ...       0.00 
freq.    3181.00  E(vib)   ...       0.00 
freq.    3189.77  E(vib)   ...       0.00 
freq.    3195.29  E(vib)   ...       0.00 

------------
INNER ENERGY
------------

The inner energy is: U= E(el) + E(ZPE) + E(vib) + E(rot) + E(trans)
    E(el)   - is the total energy from the electronic structure calculation
              = E(kin-el) + E(nuc-el) + E(el-el) + E(nuc-nuc)
    E(ZPE)  - the the zero temperature vibrational energy from the frequency calculation
    E(vib)  - the the finite temperature correction to E(ZPE) due to population
              of excited vibrational states
    E(rot)  - is the rotational thermal energy
    E(trans)- is the translational thermal energy

Summary of contributions to the inner energy U:
Electronic energy                ...   -345.52936904 Eh
Zero point energy                ...      0.10945153 Eh      68.68 kcal/mol
Thermal vibrational correction   ...      0.00350648 Eh       2.20 kcal/mol
Thermal rotational correction    ...      0.00141627 Eh       0.89 kcal/mol
Thermal translational correction ...      0.00141627 Eh       0.89 kcal/mol
-----------------------------------------------------------------------
Total thermal energy                   -345.41357850 Eh


Summary of corrections to the electronic energy:
(perhaps to be used in another calculation)
Total thermal correction                  0.00633902 Eh       3.98 kcal/mol
Non-thermal (ZPE) correction              0.10945153 Eh      68.68 kcal/mol
-----------------------------------------------------------------------
Total correction                          0.11579054 Eh      72.66 kcal/mol


--------
ENTHALPY
--------

The enthalpy is H = U + kB*T
                kB is Boltzmann's constant
Total free energy                 ...   -345.41357850 Eh 
Thermal Enthalpy correction       ...      0.00094421 Eh       0.59 kcal/mol
-----------------------------------------------------------------------
Total Enthalpy                    ...   -345.41263429 Eh


Note: Only C1 symmetry has been detected, increase convergence thresholds 
      if your molecule has a higher symmetry. Symmetry factor of 1.0 is   
      used for the rotational entropy correction. 
 

Note: Rotational entropy computed according to Herzberg 
Infrared and Raman Spectra, Chapter V,1, Van Nostrand Reinhold, 1945 
Point Group:  C1, Symmetry Number:   1  
Rotational constants in cm-1:     0.175666     0.052323     0.040315 

Vibrational entropy computed according to the QRRHO of S. Grimme
Chem.Eur.J. 2012 18 9955


-------
ENTROPY
-------

The entropy contributions are T*S = T*(S(el)+S(vib)+S(rot)+S(trans))
     S(el)   - electronic entropy
     S(vib)  - vibrational entropy
     S(rot)  - rotational entropy
     S(trans)- translational entropy
The entropies will be listed as mutliplied by the temperature to get
units of energy

Electronic entropy                ...      0.00000000 Eh      0.00 kcal/mol
Vibrational entropy               ...      0.00562568 Eh      3.53 kcal/mol
Rotational entropy                ...      0.01324058 Eh      8.31 kcal/mol
Translational entropy             ...      0.01895542 Eh     11.89 kcal/mol
-----------------------------------------------------------------------
Final entropy term                ...      0.03782167 Eh     23.73 kcal/mol

In case the symmetry of your molecule has not been determined correctly
or in case you have a reason to use a different symmetry number we print 
out the resulting rotational entropy values for sn=1,12 :
 --------------------------------------------------------
|  sn= 1 | S(rot)=       0.01324058 Eh      8.31 kcal/mol|
|  sn= 2 | S(rot)=       0.01258612 Eh      7.90 kcal/mol|
|  sn= 3 | S(rot)=       0.01220329 Eh      7.66 kcal/mol|
|  sn= 4 | S(rot)=       0.01193166 Eh      7.49 kcal/mol|
|  sn= 5 | S(rot)=       0.01172098 Eh      7.36 kcal/mol|
|  sn= 6 | S(rot)=       0.01154883 Eh      7.25 kcal/mol|
|  sn= 7 | S(rot)=       0.01140329 Eh      7.16 kcal/mol|
|  sn= 8 | S(rot)=       0.01127721 Eh      7.08 kcal/mol|
|  sn= 9 | S(rot)=       0.01116600 Eh      7.01 kcal/mol|
|  sn=10 | S(rot)=       0.01106652 Eh      6.94 kcal/mol|
|  sn=11 | S(rot)=       0.01097653 Eh      6.89 kcal/mol|
|  sn=12 | S(rot)=       0.01089438 Eh      6.84 kcal/mol|
 --------------------------------------------------------


-------------------
GIBBS FREE ENERGY
-------------------

The Gibbs free energy is G = H - T*S

Total enthalpy                    ...   -345.41263429 Eh 
Total entropy correction          ...     -0.03782167 Eh    -23.73 kcal/mol
-----------------------------------------------------------------------
Final Gibbs free energy         ...   -345.45045596 Eh

For completeness - the Gibbs free energy minus the electronic energy
G-E(el)                           ...      0.07891308 Eh     49.52 kcal/mol


Timings for individual modules:

Sum of individual times         ...     8508.360 sec (= 141.806 min)
GTO integral calculation        ...        9.238 sec (=   0.154 min)   0.1 %
SCF iterations                  ...      532.237 sec (=   8.871 min)   6.3 %
SCF Gradient evaluation         ...      150.763 sec (=   2.513 min)   1.8 %
Geometry relaxation             ...        4.451 sec (=   0.074 min)   0.1 %
Analytical frequency calculation...     7811.671 sec (= 130.195 min)  91.8 %
                             ****ORCA TERMINATED NORMALLY****
TOTAL RUN TIME: 0 days 2 hours 21 minutes 55 seconds 308 msec
(SLURM) EXECUTION TIME: 8519.188427993 seconds.
