(SLURM) JOB ID:         188

                                 *****************
                                 * O   R   C   A *
                                 *****************

           --- An Ab Initio, DFT and Semiempirical electronic structure package ---

                  #######################################################
                  #                        -***-                        #
                  #          Department of theory and spectroscopy      #
                  #               Directorship: Frank Neese             #
                  #        Max Planck Institute fuer Kohlenforschung    #
                  #                Kaiser Wilhelm Platz 1               #
                  #                 D-45470 Muelheim/Ruhr               #
                  #                      Germany                        #
                  #                                                     #
                  #                  All rights reserved                #
                  #                        -***-                        #
                  #######################################################


                         Program Version 4.2.1 -  RELEASE  -


 With contributions from (in alphabetic order):
   Daniel Aravena         : Magnetic Suceptibility
   Michael Atanasov       : Ab Initio Ligand Field Theory (pilot matlab implementation)
   Alexander A. Auer      : GIAO ZORA, VPT2
   Ute Becker             : Parallelization
   Giovanni Bistoni       : ED, misc. LED, open-shell LED, HFLD
   Martin Brehm           : Molecular dynamics
   Dmytro Bykov           : SCF Hessian
   Vijay G. Chilkuri      : MRCI spin determinant printing, contributions to CSF-ICE
   Dipayan Datta          : RHF DLPNO-CCSD density
   Achintya Kumar Dutta   : EOM-CC, STEOM-CC
   Dmitry Ganyushin       : Spin-Orbit,Spin-Spin,Magnetic field MRCI
   Miquel Garcia          : C-PCM Hessian, Gaussian charge scheme
   Yang Guo               : DLPNO-NEVPT2, CIM, IAO-localization
   Andreas Hansen         : Spin unrestricted coupled pair/coupled cluster methods
   Benjamin Helmich-Paris : CASSCF linear response (MC-RPA)
   Lee Huntington         : MR-EOM, pCC
   Robert Izsak           : Overlap fitted RIJCOSX, COSX-SCS-MP3, EOM
   Christian Kollmar      : KDIIS, OOCD, Brueckner-CCSD(T), CCSD density
   Simone Kossmann        : Meta GGA functionals, TD-DFT gradient, OOMP2, MP2 Hessian
   Martin Krupicka        : AUTO-CI
   Lucas Lang             : DCDCAS
   Dagmar Lenk            : GEPOL surface, SMD
   Dimitrios Liakos       : Extrapolation schemes; Compound Job, initial MDCI parallelization
   Dimitrios Manganas     : Further ROCIS development; embedding schemes
   Dimitrios Pantazis     : SARC Basis sets
   Taras Petrenko         : DFT Hessian,TD-DFT gradient, ASA, ECA, R-Raman, ABS, FL, XAS/XES, NRVS
   Peter Pinski           : DLPNO-MP2, DLPNO-MP2 Gradient
   Christoph Reimann      : Effective Core Potentials
   Marius Retegan         : Local ZFS, SOC
   Christoph Riplinger    : Optimizer, TS searches, QM/MM, DLPNO-CCSD(T), (RO)-DLPNO pert. Triples
   Tobias Risthaus        : Range-separated hybrids, TD-DFT gradient, RPA, STAB
   Michael Roemelt        : Original ROCIS implementation
   Masaaki Saitow         : Open-shell DLPNO-CCSD energy and density
   Barbara Sandhoefer     : DKH picture change effects
   Avijit Sen             : IP-ROCIS
   Kantharuban Sivalingam : CASSCF convergence, NEVPT2, FIC-MRCI
   Bernardo de Souza      : ESD, SOC TD-DFT
   Georgi Stoychev        : AutoAux, RI-MP2 NMR
   Willem Van den Heuvel  : Paramagnetic NMR
   Boris Wezisla          : Elementary symmetry handling
   Frank Wennmohs         : Technical directorship


 We gratefully acknowledge several colleagues who have allowed us to
 interface, adapt or use parts of their codes:
   Stefan Grimme, W. Hujo, H. Kruse,             : VdW corrections, initial TS optimization,
                  C. Bannwarth                     DFT functionals, gCP, sTDA/sTD-DF
   Ed Valeev, F. Pavosevic, A. Kumar             : LibInt (2-el integral package), F12 methods
   Garnet Chan, S. Sharma, J. Yang, R. Olivares  : DMRG
   Ulf Ekstrom                                   : XCFun DFT Library
   Mihaly Kallay                                 : mrcc  (arbitrary order and MRCC methods)
   Andreas Klamt, Michael Diedenhofen            : otool_cosmo (COSMO solvation model)
   Jiri Pittner, Ondrej Demel                    : Mk-CCSD
   Frank Weinhold                                : gennbo (NPA and NBO analysis)
   Christopher J. Cramer and Donald G. Truhlar   : smd solvation model
   Lars Goerigk                                  : TD-DFT with DH, B97 family of functionals
   V. Asgeirsson, H. Jonsson                     : NEB implementation
   FAccTs GmbH                                   : IRC, NEB, NEB-TS, Multilevel, MM, QM/MM, CI optimization
   S Lehtola, MJT Oliveira, MAL Marques          : LibXC Library


 Your calculation uses the libint2 library for the computation of 2-el integrals
 For citations please refer to: http://libint.valeyev.net

 Your ORCA version has been built with support for libXC version: 4.2.3
 For citations please refer to: https://tddft.org/programs/libxc/

 This ORCA versions uses:
   CBLAS   interface :  Fast vector & matrix operations
   LAPACKE interface :  Fast linear algebra routines
   SCALAPACK package :  Parallel linear algebra routines




***************************************
The coordinates will be read from file: init.xyz
***************************************


Your calculation utilizes the SMD solvation module
Please cite in your paper:
A.V. Marenich, C.J. Cramer, D.G. Truhlar J. Phys. Chem. B, 113, (2009), 6378 

Your calculation utilizes the semiempirical GFN2-xTB method
Please cite in your paper:
C. Bannwarth, Ehlert S., S. Grimme,  J. Chem. Theory Comput., 15, (2019), 1652.
   

----- Orbital basis set information -----
Your calculation utilizes the basis: def2-SVP
   F. Weigend and R. Ahlrichs, Phys. Chem. Chem. Phys. 7, 3297 (2005).

================================================================================
                                        WARNINGS
                       Please study these warnings very carefully!
================================================================================

WARNING: Gradients needed for Numerical Frequencies
  ===> : Setting RunTyp to EnGrad

WARNING: The environment variable RSH_COMMAND is not set!
  ===> : All Displacements for the Numerical Hessian calculation
         will be started on localhost

WARNING: Found dipole moment calculation with XTB calculation
  ===> : Switching off dipole moment calculation


INFO   : the flag for use of LIBINT has been found!

================================================================================
                                       INPUT FILE
================================================================================
NAME = /tmp/slurm-scratch/freq.188/freq.inp
|  1> ! XTB2 NumFreq
|  2> %maxcore 1450
|  3> 
|  4> * xyzfile 0 1 init.xyz
|  5> 
|  6> %cpcm
|  7>  smd true
|  8>  smdsolvent "ch2cl2"
|  9> end
| 10> %pal nprocs 8 end
| 11> 
| 12>                          ****END OF INPUT****
================================================================================

                     *******************************
                     * Energy+Gradient Calculation *
                     *******************************

      -----------------------------------------------------------      
     |                   =====================                   |     
     |                           x T B                           |     
     |                   =====================                   |     
     |                         S. Grimme                         |     
     |          Mulliken Center for Theoretical Chemistry        |     
     |                    University of Bonn                     |     
      -----------------------------------------------------------      

   * xtb version 6.3.0 (preview) compiled by 'ehlert@majestix' on 2020-01-15

   This program is distributed in the hope that it will be useful,
   but WITHOUT ANY WARRANTY; without even the implied warranty of
   MERCHANTABILITY or FITNESS FOR A PARTICULAR PURPOSE.
   
   FOR NON-COMMERCIAL, ACADEMIA USE ONLY.
   
   Cite this work as:
   * S. Grimme, C. Bannwarth, P. Shushkov, J. Chem. Theory Comput., 2017,
     13, 1989-2009. DOI: 10.1021/acs.jctc.7b00118
   * C. Bannwarth, S. Ehlert and S. Grimme., J. Chem. Theory Comput., 2019,
     15, 1652-1671. DOI: 10.1021/acs.jctc.8b01176
   * P. Pracht, E. Caldeweyher, S. Ehlert, S. Grimme, ChemRxiv, 2019, preprint.
     DOI: 10.26434/chemrxiv.8326202.v1
   * S. Grimme, S. Spicher unpublished
   
   for DFT-D4:
   * E. Caldeweyher, C. Bannwarth and S. Grimme, J. Chem. Phys., 2017,
     147, 034112. DOI: 10.1063/1.4993215
   * E. Caldeweyher, S. Ehlert, A. Hansen, H. Neugebauer, S. Spicher,
     C. Bannwarth and S. Grimme, J. Chem. Phys., 2019, 150, 154122.
     DOI: 10.1063/1.5090222
   
   for sTDA-xTB:
   * S. Grimme and C. Bannwarth, J. Chem. Phys., 2016, 145, 054103.
     DOI: 10.1063/1.4959605
   
   in the mass-spec context:
   * V. Asgeirsson, C. Bauer and S. Grimme, Chem. Sci., 2017, 8, 4879.
     DOI: 10.1039/c7sc00601b
   
   for metadynamics refer to:
   * S. Grimme, J. Chem. Theory Comput., 2019, 155, 2847-2862
     DOI: 10.1021/acs.jctc.9b00143
   
   with help from (in alphabetical order)
   C. Bannwarth, F. Bohle, G. Brandenburg, E. Caldeweyher, M. Checinski,
   S. Dohm, S. Ehlert, S. Ehrlich, F. März, H. Neugebauer, J. Pisarek,
   P. Pracht, P. Shushkov, and S. Spicher.
   
 * started run on 2020/09/03 at 18:28:52.170     

           -------------------------------------------------
          |                Calculation Setup                |
           -------------------------------------------------

          program call               : /opt/orca/otool_xtb /tmp/slurm-scratch/freq.188/freq_XTB.xyz --grad -c 0 -u 0 -P 8 --namespace /tmp/slurm-scratch/freq.188/freq --gbsa CH2Cl2
          hostname                   : headnode-pbs
          calculation namespace      : /tmp/slurm-scratch/freq.188/freq
          coordinate file            : /tmp/slurm-scratch/freq.188/freq_XTB.xyz
          omp threads                :                     8
          number of atoms            :                    36
          number of electrons        :                    88
          charge                     :                     0
          spin                       :                   0.0
          first test random number   :      0.56420181922482


molecular fragmentation (1/2 indicates fragments):
111111111111211111121222211111111111
# atoms in fragment 1/2:    30     6
 fragment masses (1/2) :      179.26       36.03
CMA distance (Bohr)    :   5.497
constraining FC (au)   :  0.0500

########################################################################
# WARNING! Please study the warnings concerning your input carefully
#  - Process number higher than OMP_NUM_THREADS, I hope you know what you are doing.
########################################################################

           ------------------------------------------------- 
          |                 G F N 2 - x T B                 |
          | Geometry, Frequencies, Noncovalent interactions |
          |            JCTC 2019 parametrisation            |
           ------------------------------------------------- 
             k(s)              :                1.8500
             k(p)              :                2.2300
             k(d)              :                2.2300
             k(f)              :                2.0000
             kEN (H0ij)        :               -2.0000
             D4 a1             :                0.5200
             D4 a2             :                5.0000
             D4 s6             :                1.0000
             D4 s8             :                2.7000
             D4 s9             :                5.0000
             alphaj            :                2.0000

  Z AO/shell   Hii/eV     exponent
  1     Wed Apr 25 08:07:45 CEST 2018   EN: 2.200 GM2: 0.406  GM3: 0.0800  RAES: 1.40
     1s    -10.707211    1.230000
  6     Wed Apr 25 08:07:45 CEST 2018   EN: 2.550 GM2: 0.538  GM3: 0.1500  RAES: 3.00
     2s    -13.970922    2.096432
     2p    -10.063292    1.800000
  7     Wed Apr 25 08:07:45 CEST 2018   EN: 3.040 GM2: 0.461  GM3:-0.0640  RAES: 1.90
     2s    -16.686243    2.339881
     2p    -12.523956    2.014332
  8     Wed Apr 25 08:07:45 CEST 2018   EN: 3.440 GM2: 0.452  GM3:-0.0517  RAES: 1.80
     2s    -20.229985    2.439742
     2p    -15.503117    2.137023

 Solvent             : CH2Cl2
 Using internal parameter file: .param_gbsa2_CH2Cl2
 Gsolv ref. state (COSMO-RS): gsolv [1 M gas/solution]
 temperature (mdtemp)       :    298.150000000000     
 dielectric constant        :    8.93000000000000     
 rho                        :    1.33000000000000     
 mass                       :    84.9300000000000     
 surface tension            :    15.5689454083859     
 probe radius               :   0.719875900000000     
 Gshift (Eh)                :   4.440829173451759E-003
 c1                         :    1.49173776000000     
 soset                      :   0.000000000000000E+000
 HB correction              :  F
           ------------------------------------------------- 
          |        Self-Consistent Charge Iterations        |
           ------------------------------------------------- 

          ...................................................
          :                      SETUP                      :
          :.................................................:
          :  # basis functions                  81          :
          :  # atomic orbitals                  81          :
          :  # shells                           51          :
          :  # electrons                        88          :
          :  max. iterations                   250          :
          :  Hamiltonian                  GFN2-xTB          :
          :  GBSA solvation                   true          :
          :  PC potential                    false          :
          :  electronic temp.          300.0000000     K    :
          :  accuracy                    1.0000000          :
          :  -> integral cutoff          0.2500000E+02      :
          :  -> integral neglect         0.1000000E-07      :
          :  -> SCF convergence          0.1000000E-05 Eh   :
          :  -> wf. convergence          0.1000000E-03 e    :
          :  Broyden damping             0.4000000          :
          ...................................................
  Checking positiv definite overlap ...  done.
 

 iter      E             dE          RMSdq      gap      omega  full diag
   1    -49.9520995 -0.499521E+02  0.385E+00    4.01       0.0  T
   2    -49.9913305 -0.392311E-01  0.224E+00    4.32       1.0  T
   3    -49.9903686  0.961920E-03  0.628E-01    4.30       1.0  T
   4    -49.9931120 -0.274333E-02  0.233E-01    4.32       1.0  T
   5    -49.9947151 -0.160311E-02  0.708E-02    4.32       1.0  T
   6    -49.9947335 -0.183979E-04  0.301E-02    4.32       1.0  T
   7    -49.9947354 -0.196415E-05  0.110E-02    4.32       1.5  T
   8    -49.9947370 -0.156345E-05  0.425E-03    4.32       3.9  T
   9    -49.9947372 -0.157405E-06  0.211E-03    4.32       7.9  T
  10    -49.9947372 -0.136228E-07  0.809E-04    4.32      20.6  T
  11    -49.9947372 -0.610087E-08  0.356E-04    4.32      46.9  T

   *** convergence criteria satisfied after 11 iterations ***

         #    Occupation            Energy/Eh            Energy/eV
      -------------------------------------------------------------
         1        2.0000           -0.6887153             -18.7409
       ...           ...                  ...                  ...
        38        2.0000           -0.4355372             -11.8516
        39        2.0000           -0.4263695             -11.6021
        40        2.0000           -0.4227283             -11.5030
        41        2.0000           -0.4093840             -11.1399
        42        2.0000           -0.4087064             -11.1215
        43        2.0000           -0.4062156             -11.0537
        44        2.0000           -0.3917836             -10.6610 (HOMO)
        45                         -0.2329346              -6.3385 (LUMO)
        46                         -0.2300196              -6.2592
        47                         -0.1060505              -2.8858
        48                         -0.0100685              -0.2740
        49                          0.0269151               0.7324
       ...                                ...                  ...
        81                          0.6419215              17.4676
      -------------------------------------------------------------
                  HL-Gap            0.1588490 Eh            4.3225 eV
             Fermi-level           -0.3123591 Eh           -8.4997 eV

 SCC (total)                   0 d,  0 h,  0 min,  0.032 sec
 SCC setup                      ...        0 min,  0.001 sec (  3.828%)
 Dispersion                     ...        0 min,  0.000 sec (  1.153%)
 integral evaluation            ...        0 min,  0.006 sec ( 17.453%)
 zeroth order Hamiltonian       ...        0 min,  0.000 sec (  0.035%)
 iterations                     ...        0 min,  0.015 sec ( 47.529%)
 molecular gradient             ...        0 min,  0.009 sec ( 28.785%)
 printout                       ...        0 min,  0.000 sec (  1.068%)

         :::::::::::::::::::::::::::::::::::::::::::::::::::::
         ::                     SUMMARY                     ::
         :::::::::::::::::::::::::::::::::::::::::::::::::::::
         :: total energy             -49.387488930823 Eh    ::
         :: total w/o Gsasa/hb       -49.369852842324 Eh    ::
         :: gradient norm              0.026225366639 Eh/a0 ::
         :: HOMO-LUMO gap              4.322502045833 eV    ::
         ::.................................................::
         :: SCC energy               -50.012373266463 Eh    ::
         :: -> isotropic ES            0.107095269281 Eh    ::
         :: -> anisotropic ES         -0.005703966330 Eh    ::
         :: -> anisotropic XC          0.021099076710 Eh    ::
         :: -> dispersion             -0.029523291653 Eh    ::
         :: -> Gsolv                  -0.024648393204 Eh    ::
         ::    -> Gborn               -0.007012304705 Eh    ::
         ::    -> Gsasa               -0.022076917672 Eh    ::
         ::    -> Ghb                  0.000000000000 Eh    ::
         ::    -> Gshift               0.004440829173 Eh    ::
         :: repulsion energy           0.624616469251 Eh    ::
         :: add. restraining           0.000000000000 Eh    ::
         :::::::::::::::::::::::::::::::::::::::::::::::::::::

           -------------------------------------------------
          |                Property Printout                |
           -------------------------------------------------

    * Orbital Energies and Occupations

         #    Occupation            Energy/Eh            Energy/eV
      -------------------------------------------------------------
         1        2.0000           -0.6887153             -18.7409
       ...           ...                  ...                  ...
        32        2.0000           -0.4664829             -12.6936
        33        2.0000           -0.4505186             -12.2592
        34        2.0000           -0.4479355             -12.1889
        35        2.0000           -0.4464551             -12.1487
        36        2.0000           -0.4426433             -12.0449
        37        2.0000           -0.4373006             -11.8996
        38        2.0000           -0.4355372             -11.8516
        39        2.0000           -0.4263695             -11.6021
        40        2.0000           -0.4227283             -11.5030
        41        2.0000           -0.4093840             -11.1399
        42        2.0000           -0.4087064             -11.1215
        43        2.0000           -0.4062156             -11.0537
        44        2.0000           -0.3917836             -10.6610 (HOMO)
        45                         -0.2329346              -6.3385 (LUMO)
        46                         -0.2300196              -6.2592
        47                         -0.1060505              -2.8858
        48                         -0.0100685              -0.2740
        49                          0.0269151               0.7324
        50                          0.0621877               1.6922
        51                          0.0717832               1.9533
        52                          0.0764026               2.0790
        53                          0.1023909               2.7862
        54                          0.1065851               2.9003
        55                          0.1206779               3.2838
       ...                                ...                  ...
        81                          0.6419215              17.4676
      -------------------------------------------------------------
                  HL-Gap            0.1588490 Eh            4.3225 eV
             Fermi-level           -0.3123591 Eh           -8.4997 eV

     #   Z        covCN         q      C6AA      α(0)
     1   6 C      2.966    -0.019    28.486     8.754
     2   6 C      2.920    -0.040    28.988     8.829
     3   6 C      2.914    -0.030    28.751     8.793
     4   6 C      2.915    -0.031    28.768     8.795
     5   6 C      2.915    -0.030    28.758     8.794
     6   6 C      2.918    -0.038    28.942     8.822
     7   6 C      3.666     0.182    17.930     6.073
     8   1 H      0.925     0.029     2.604     2.524
     9   1 H      0.926     0.058     2.225     2.333
    10   1 H      0.925     0.040     2.448     2.447
    11   7 N      2.677    -0.301    27.752     7.824
    12   6 C      3.736     0.016    20.390     6.444
    13   1 H      0.800     0.314     0.681     1.297
    14   6 C      3.801    -0.071    21.863     6.657
    15   1 H      0.924     0.036     2.503     2.474
    16   1 H      0.924     0.017     2.772     2.604
    17   1 H      0.924     0.051     2.311     2.377
    18   1 H      0.924     0.050     2.326     2.385
    19   8 O      1.654    -0.488    22.635     6.423
    20   8 O      1.607    -0.626    25.819     6.858
    21   1 H      0.803     0.331     0.635     1.252
    22   1 H      0.805     0.292     0.747     1.358
    23   8 O      1.605    -0.617    25.610     6.830
    24   1 H      0.802     0.325     0.651     1.268
    25   1 H      0.805     0.292     0.746     1.357
    26   1 H      0.924     0.015     2.808     2.621
    27   1 H      0.860     0.151     1.393     1.849
    28   6 C      3.800    -0.053    21.534     6.607
    29   1 H      0.924     0.031     2.566     2.505
    30   1 H      0.924     0.029     2.595     2.519
    31   1 H      0.925     0.042     2.422     2.434
    32   1 H      0.925     0.039     2.459     2.452
    33   6 C      3.750    -0.103    22.537     6.771
    34   1 H      0.924     0.036     2.504     2.474
    35   1 H      0.924     0.037     2.488     2.467
    36   1 H      0.924     0.036     2.506     2.476

 Mol. C6AA /au·bohr⁶  :      10808.712040
 Mol. C8AA /au·bohr⁸  :     237488.216579
 Mol. α(0) /au        :        158.744095


Wiberg/Mayer (AO) data.
largest (>0.10) Wiberg bond orders for each atom
          total WBO             WBO to atom ...
     1  C   3.986        C    6 1.417    C    2 1.416    C    7 0.973    C    4 0.110
     2  C   3.991        C    3 1.443    C    1 1.416    H    8 0.969    C    5 0.112
     3  C   3.991        C    2 1.443    C    4 1.439    H   32 0.971    C    6 0.112
     4  C   3.991        C    3 1.439    C    5 1.439    H   10 0.971    C    1 0.110
     5  C   3.991        C    6 1.443    C    4 1.439    H   31 0.971    C    2 0.112
     6  C   3.990        C    5 1.443    C    1 1.417    H    9 0.962    C    3 0.112
     7  C   3.953        O   19 1.009    C    1 0.973    N   11 0.967    H   26 0.951
     8  H   0.999        C    2 0.969
     9  H   0.997        C    6 0.962
    10  H   0.998        C    4 0.971
    11  N   3.132        C   12 0.992    C    7 0.967    H   27 0.953
    12  C   3.976        C   14 1.006    N   11 0.992    H   15 0.976    H   16 0.969
    13  H   0.901        O   23 0.823
    14  C   3.993        C   28 1.006    C   12 1.006    H   18 0.974    H   17 0.974
    15  H   0.999        C   12 0.976
    16  H   1.000        C   12 0.969
    17  H   0.997        C   14 0.974
    18  H   0.998        C   14 0.974
    19  O   1.953        C    7 1.009    H   21 0.822
    20  O   1.850        H   22 0.912    H   24 0.830
    21  H   0.890        O   19 0.822
    22  H   0.915        O   20 0.912
    23  O   1.868        H   25 0.912    H   13 0.823
    24  H   0.894        O   20 0.830
    25  H   0.915        O   23 0.912
    26  H   1.000        C    7 0.951
    27  H   0.977        N   11 0.953
    28  C   3.997        C   33 1.020    C   14 1.006    H   30 0.978    H   29 0.978
    29  H   0.999        C   28 0.978
    30  H   0.999        C   28 0.978
    31  H   0.998        C    5 0.971
    32  H   0.998        C    3 0.971
    33  C   3.996        C   28 1.020    H   36 0.988    H   35 0.988    H   34 0.987
    34  H   0.998        C   33 0.987
    35  H   0.999        C   33 0.988
    36  H   0.999        C   33 0.988

molecular dipole:
                 x           y           z       tot (Debye)
 q only:       -0.160       0.442       0.946
   full:       -0.247       0.869       1.084       3.586
molecular quadrupole (traceless):
                xx          xy          yy          xz          yz          zz
 q only:        6.832      -0.331      -0.365       0.700      -0.501      -6.467
  q+dip:        6.029       0.970       3.332      -0.532      -2.830      -9.361
   full:        5.650       0.739       1.886      -0.161      -1.464      -7.536

           -------------------------------------------------
          |                Property Printout                |
           -------------------------------------------------

    * Orbital Energies and Occupations

         #    Occupation            Energy/Eh            Energy/eV
      -------------------------------------------------------------
         1        2.0000           -0.6887153             -18.7409
       ...           ...                  ...                  ...
        32        2.0000           -0.4664829             -12.6936
        33        2.0000           -0.4505186             -12.2592
        34        2.0000           -0.4479355             -12.1889
        35        2.0000           -0.4464551             -12.1487
        36        2.0000           -0.4426433             -12.0449
        37        2.0000           -0.4373006             -11.8996
        38        2.0000           -0.4355372             -11.8516
        39        2.0000           -0.4263695             -11.6021
        40        2.0000           -0.4227283             -11.5030
        41        2.0000           -0.4093840             -11.1399
        42        2.0000           -0.4087064             -11.1215
        43        2.0000           -0.4062156             -11.0537
        44        2.0000           -0.3917836             -10.6610 (HOMO)
        45                         -0.2329346              -6.3385 (LUMO)
        46                         -0.2300196              -6.2592
        47                         -0.1060505              -2.8858
        48                         -0.0100685              -0.2740
        49                          0.0269151               0.7324
        50                          0.0621877               1.6922
        51                          0.0717832               1.9533
        52                          0.0764026               2.0790
        53                          0.1023909               2.7862
        54                          0.1065851               2.9003
        55                          0.1206779               3.2838
       ...                                ...                  ...
        81                          0.6419215              17.4676
      -------------------------------------------------------------
                  HL-Gap            0.1588490 Eh            4.3225 eV
             Fermi-level           -0.3123591 Eh           -8.4997 eV

     #   Z        covCN         q      C6AA      α(0)
     1   6 C      2.966    -0.019    28.486     8.754
     2   6 C      2.920    -0.040    28.988     8.829
     3   6 C      2.914    -0.030    28.751     8.793
     4   6 C      2.915    -0.031    28.768     8.795
     5   6 C      2.915    -0.030    28.758     8.794
     6   6 C      2.918    -0.038    28.942     8.822
     7   6 C      3.666     0.182    17.930     6.073
     8   1 H      0.925     0.029     2.604     2.524
     9   1 H      0.926     0.058     2.225     2.333
    10   1 H      0.925     0.040     2.448     2.447
    11   7 N      2.677    -0.301    27.752     7.824
    12   6 C      3.736     0.016    20.390     6.444
    13   1 H      0.800     0.314     0.681     1.297
    14   6 C      3.801    -0.071    21.863     6.657
    15   1 H      0.924     0.036     2.503     2.474
    16   1 H      0.924     0.017     2.772     2.604
    17   1 H      0.924     0.051     2.311     2.377
    18   1 H      0.924     0.050     2.326     2.385
    19   8 O      1.654    -0.488    22.635     6.423
    20   8 O      1.607    -0.626    25.819     6.858
    21   1 H      0.803     0.331     0.635     1.252
    22   1 H      0.805     0.292     0.747     1.358
    23   8 O      1.605    -0.617    25.610     6.830
    24   1 H      0.802     0.325     0.651     1.268
    25   1 H      0.805     0.292     0.746     1.357
    26   1 H      0.924     0.015     2.808     2.621
    27   1 H      0.860     0.151     1.393     1.849
    28   6 C      3.800    -0.053    21.534     6.607
    29   1 H      0.924     0.031     2.566     2.505
    30   1 H      0.924     0.029     2.595     2.519
    31   1 H      0.925     0.042     2.422     2.434
    32   1 H      0.925     0.039     2.459     2.452
    33   6 C      3.750    -0.103    22.537     6.771
    34   1 H      0.924     0.036     2.504     2.474
    35   1 H      0.924     0.037     2.488     2.467
    36   1 H      0.924     0.036     2.506     2.476

 Mol. C6AA /au·bohr⁶  :      10808.712040
 Mol. C8AA /au·bohr⁸  :     237488.216579
 Mol. α(0) /au        :        158.744095


Wiberg/Mayer (AO) data.
largest (>0.10) Wiberg bond orders for each atom
          total WBO             WBO to atom ...
     1  C   3.986        C    6 1.417    C    2 1.416    C    7 0.973    C    4 0.110
     2  C   3.991        C    3 1.443    C    1 1.416    H    8 0.969    C    5 0.112
     3  C   3.991        C    2 1.443    C    4 1.439    H   32 0.971    C    6 0.112
     4  C   3.991        C    3 1.439    C    5 1.439    H   10 0.971    C    1 0.110
     5  C   3.991        C    6 1.443    C    4 1.439    H   31 0.971    C    2 0.112
     6  C   3.990        C    5 1.443    C    1 1.417    H    9 0.962    C    3 0.112
     7  C   3.953        O   19 1.009    C    1 0.973    N   11 0.967    H   26 0.951
     8  H   0.999        C    2 0.969
     9  H   0.997        C    6 0.962
    10  H   0.998        C    4 0.971
    11  N   3.132        C   12 0.992    C    7 0.967    H   27 0.953
    12  C   3.976        C   14 1.006    N   11 0.992    H   15 0.976    H   16 0.969
    13  H   0.901        O   23 0.823
    14  C   3.993        C   28 1.006    C   12 1.006    H   18 0.974    H   17 0.974
    15  H   0.999        C   12 0.976
    16  H   1.000        C   12 0.969
    17  H   0.997        C   14 0.974
    18  H   0.998        C   14 0.974
    19  O   1.953        C    7 1.009    H   21 0.822
    20  O   1.850        H   22 0.912    H   24 0.830
    21  H   0.890        O   19 0.822
    22  H   0.915        O   20 0.912
    23  O   1.868        H   25 0.912    H   13 0.823
    24  H   0.894        O   20 0.830
    25  H   0.915        O   23 0.912
    26  H   1.000        C    7 0.951
    27  H   0.977        N   11 0.953
    28  C   3.997        C   33 1.020    C   14 1.006    H   30 0.978    H   29 0.978
    29  H   0.999        C   28 0.978
    30  H   0.999        C   28 0.978
    31  H   0.998        C    5 0.971
    32  H   0.998        C    3 0.971
    33  C   3.996        C   28 1.020    H   36 0.988    H   35 0.988    H   34 0.987
    34  H   0.998        C   33 0.987
    35  H   0.999        C   33 0.988
    36  H   0.999        C   33 0.988

molecular dipole:
                 x           y           z       tot (Debye)
 q only:       -0.160       0.442       0.946
   full:       -0.247       0.869       1.084       3.586
molecular quadrupole (traceless):
                xx          xy          yy          xz          yz          zz
 q only:        6.832      -0.331      -0.365       0.700      -0.501      -6.467
  q+dip:        6.029       0.970       3.332      -0.532      -2.830      -9.361
   full:        5.650       0.739       1.886      -0.161      -1.464      -7.536


           -------------------------------------------------
          | TOTAL ENERGY              -49.387488930823 Eh   |
          | GRADIENT NORM               0.026225366639 Eh/α |
          | HOMO-LUMO GAP               4.322502045833 eV   |
           -------------------------------------------------

------------------------------------------------------------------------
 * finished run on 2020/09/03 at 18:28:52.241     
------------------------------------------------------------------------
 total:
 * wall-time:     0 d,  0 h,  0 min,  0.071 sec
 *  cpu-time:     0 d,  0 h,  0 min,  0.539 sec
 * ratio c/w:     7.536 speedup
 SCF:
 * wall-time:     0 d,  0 h,  0 min,  0.032 sec
 *  cpu-time:     0 d,  0 h,  0 min,  0.255 sec
 * ratio c/w:     7.948 speedup


-------------------------   --------------------
FINAL SINGLE POINT ENERGY       -49.387488930820
-------------------------   --------------------


----------------------------------------------------------------------------
                           ORCA NUMERICAL FREQUENCIES
                              (8-process run)
----------------------------------------------------------------------------

Number of atoms                ... 36
Central differences            ... used
Number of displacements        ... 216
Numerical increment            ... 5.000e-03 bohr
IR-spectrum generation         ... on
Raman-spectrum generation      ... off
Surface Crossing Hessian       ... off
List of participating nodes    ...  /tmp/slurm-scratch/freq.188/freq.hostnames

The output will be reduced. Please look at the following files:
SCF program output             ... >/tmp/slurm-scratch/freq.188/freq.lastscf
Integral program output        ... >/tmp/slurm-scratch/freq.188/freq.lastint
Gradient program output        ... >/tmp/slurm-scratch/freq.188/freq.lastgrad
Dipole moment program output   ... >/tmp/slurm-scratch/freq.188/freq.lastmom
AutoCI program output          ... >/tmp/slurm-scratch/freq.188/freq.lastautoci


         <<< Energy and Gradient at the input geometry >>>

        <<< Energy and Gradient at displaced geometries >>>
             <<<Displacing   3/coordinate 2 (+)>>>
             <<<Displacing   1/coordinate 2 (+)>>>
             <<<Displacing   2/coordinate 1 (+)>>>
             <<<Displacing   2/coordinate 2 (+)>>>
             <<<Displacing   2/coordinate 3 (+)>>>
             <<<Displacing   3/coordinate 1 (+)>>>
             <<<Displacing   1/coordinate 1 (+)>>>
             <<<Displacing   1/coordinate 3 (+)>>>
             <<<Displacing   1/coordinate 2 (-)>>>
             <<<Displacing   3/coordinate 2 (-)>>>
             <<<Displacing   2/coordinate 1 (-)>>>
             <<<Displacing   2/coordinate 3 (-)>>>
             <<<Displacing   2/coordinate 2 (-)>>>
             <<<Displacing   3/coordinate 1 (-)>>>
             <<<Displacing   1/coordinate 3 (-)>>>
             <<<Displacing   1/coordinate 1 (-)>>>
             <<<Displacing   3/coordinate 3 (+)>>>
             <<<Displacing   4/coordinate 1 (+)>>>
             <<<Displacing   4/coordinate 2 (+)>>>
             <<<Displacing   5/coordinate 1 (+)>>>
             <<<Displacing   5/coordinate 2 (+)>>>
             <<<Displacing   4/coordinate 3 (+)>>>
             <<<Displacing   3/coordinate 3 (-)>>>
             <<<Displacing   6/coordinate 1 (+)>>>
             <<<Displacing   4/coordinate 1 (-)>>>
             <<<Displacing   5/coordinate 1 (-)>>>
             <<<Displacing   4/coordinate 3 (-)>>>
             <<<Displacing   5/coordinate 3 (+)>>>
             <<<Displacing   5/coordinate 2 (-)>>>
             <<<Displacing   4/coordinate 2 (-)>>>
             <<<Displacing   6/coordinate 1 (-)>>>
             <<<Displacing   5/coordinate 3 (-)>>>
             <<<Displacing   6/coordinate 2 (+)>>>
             <<<Displacing   6/coordinate 3 (+)>>>
             <<<Displacing   7/coordinate 1 (+)>>>
             <<<Displacing   7/coordinate 2 (+)>>>
             <<<Displacing   7/coordinate 1 (-)>>>
             <<<Displacing   6/coordinate 3 (-)>>>
             <<<Displacing   8/coordinate 1 (+)>>>
             <<<Displacing   7/coordinate 3 (+)>>>
             <<<Displacing   8/coordinate 2 (+)>>>
             <<<Displacing   7/coordinate 2 (-)>>>
             <<<Displacing   6/coordinate 2 (-)>>>
             <<<Displacing   8/coordinate 2 (-)>>>
             <<<Displacing   8/coordinate 1 (-)>>>
             <<<Displacing   7/coordinate 3 (-)>>>
             <<<Displacing   8/coordinate 3 (+)>>>
             <<<Displacing   8/coordinate 3 (-)>>>
             <<<Displacing   9/coordinate 1 (+)>>>
             <<<Displacing  10/coordinate 1 (+)>>>
             <<<Displacing   9/coordinate 3 (+)>>>
             <<<Displacing   9/coordinate 2 (+)>>>
             <<<Displacing   9/coordinate 1 (-)>>>
             <<<Displacing  10/coordinate 2 (+)>>>
             <<<Displacing  10/coordinate 1 (-)>>>
             <<<Displacing   9/coordinate 3 (-)>>>
             <<<Displacing   9/coordinate 2 (-)>>>
             <<<Displacing  11/coordinate 1 (+)>>>
             <<<Displacing  10/coordinate 2 (-)>>>
             <<<Displacing  10/coordinate 3 (+)>>>
             <<<Displacing  11/coordinate 1 (-)>>>
             <<<Displacing  10/coordinate 3 (-)>>>
             <<<Displacing  11/coordinate 2 (+)>>>
             <<<Displacing  11/coordinate 2 (-)>>>
             <<<Displacing  11/coordinate 3 (+)>>>
             <<<Displacing  12/coordinate 2 (+)>>>
             <<<Displacing  12/coordinate 1 (+)>>>
             <<<Displacing  12/coordinate 3 (+)>>>
             <<<Displacing  11/coordinate 3 (-)>>>
             <<<Displacing  13/coordinate 1 (+)>>>
             <<<Displacing  12/coordinate 1 (-)>>>
             <<<Displacing  12/coordinate 2 (-)>>>
             <<<Displacing  12/coordinate 3 (-)>>>
             <<<Displacing  13/coordinate 2 (+)>>>
             <<<Displacing  13/coordinate 1 (-)>>>
             <<<Displacing  13/coordinate 3 (+)>>>
             <<<Displacing  13/coordinate 2 (-)>>>
             <<<Displacing  13/coordinate 3 (-)>>>
             <<<Displacing  14/coordinate 1 (+)>>>
             <<<Displacing  14/coordinate 1 (-)>>>
             <<<Displacing  15/coordinate 1 (+)>>>
             <<<Displacing  15/coordinate 2 (+)>>>
             <<<Displacing  15/coordinate 3 (+)>>>
             <<<Displacing  14/coordinate 3 (+)>>>
             <<<Displacing  15/coordinate 1 (-)>>>
             <<<Displacing  14/coordinate 2 (+)>>>
             <<<Displacing  15/coordinate 2 (-)>>>
             <<<Displacing  16/coordinate 1 (+)>>>
             <<<Displacing  15/coordinate 3 (-)>>>
             <<<Displacing  14/coordinate 3 (-)>>>
             <<<Displacing  14/coordinate 2 (-)>>>
             <<<Displacing  16/coordinate 1 (-)>>>
             <<<Displacing  16/coordinate 2 (+)>>>
             <<<Displacing  16/coordinate 3 (+)>>>
             <<<Displacing  16/coordinate 2 (-)>>>
             <<<Displacing  16/coordinate 3 (-)>>>
             <<<Displacing  17/coordinate 1 (+)>>>
             <<<Displacing  17/coordinate 3 (+)>>>
             <<<Displacing  17/coordinate 2 (+)>>>
             <<<Displacing  18/coordinate 1 (+)>>>
             <<<Displacing  17/coordinate 1 (-)>>>
             <<<Displacing  18/coordinate 2 (+)>>>
             <<<Displacing  17/coordinate 3 (-)>>>
             <<<Displacing  17/coordinate 2 (-)>>>
             <<<Displacing  18/coordinate 3 (+)>>>
             <<<Displacing  18/coordinate 1 (-)>>>
             <<<Displacing  18/coordinate 2 (-)>>>
             <<<Displacing  18/coordinate 3 (-)>>>
             <<<Displacing  19/coordinate 1 (+)>>>
             <<<Displacing  19/coordinate 2 (+)>>>
             <<<Displacing  19/coordinate 1 (-)>>>
             <<<Displacing  19/coordinate 2 (-)>>>
             <<<Displacing  19/coordinate 3 (+)>>>
             <<<Displacing  20/coordinate 1 (+)>>>
             <<<Displacing  20/coordinate 2 (+)>>>
             <<<Displacing  20/coordinate 3 (+)>>>
             <<<Displacing  19/coordinate 3 (-)>>>
             <<<Displacing  20/coordinate 1 (-)>>>
             <<<Displacing  21/coordinate 1 (+)>>>
             <<<Displacing  21/coordinate 2 (+)>>>
             <<<Displacing  20/coordinate 2 (-)>>>
             <<<Displacing  20/coordinate 3 (-)>>>
             <<<Displacing  21/coordinate 2 (-)>>>
             <<<Displacing  21/coordinate 1 (-)>>>
             <<<Displacing  21/coordinate 3 (+)>>>
             <<<Displacing  22/coordinate 1 (+)>>>
             <<<Displacing  21/coordinate 3 (-)>>>
             <<<Displacing  22/coordinate 1 (-)>>>
             <<<Displacing  22/coordinate 2 (+)>>>
             <<<Displacing  22/coordinate 3 (+)>>>
             <<<Displacing  23/coordinate 2 (+)>>>
             <<<Displacing  23/coordinate 1 (+)>>>
             <<<Displacing  22/coordinate 2 (-)>>>
             <<<Displacing  22/coordinate 3 (-)>>>
             <<<Displacing  24/coordinate 1 (+)>>>
             <<<Displacing  23/coordinate 2 (-)>>>
             <<<Displacing  23/coordinate 1 (-)>>>
             <<<Displacing  24/coordinate 1 (-)>>>
             <<<Displacing  23/coordinate 3 (+)>>>
             <<<Displacing  24/coordinate 3 (+)>>>
             <<<Displacing  23/coordinate 3 (-)>>>
             <<<Displacing  24/coordinate 2 (+)>>>
             <<<Displacing  24/coordinate 2 (-)>>>
             <<<Displacing  24/coordinate 3 (-)>>>
             <<<Displacing  25/coordinate 1 (+)>>>
             <<<Displacing  25/coordinate 2 (+)>>>
             <<<Displacing  25/coordinate 3 (+)>>>
             <<<Displacing  26/coordinate 1 (+)>>>
             <<<Displacing  25/coordinate 2 (-)>>>
             <<<Displacing  25/coordinate 1 (-)>>>
             <<<Displacing  25/coordinate 3 (-)>>>
             <<<Displacing  26/coordinate 1 (-)>>>
             <<<Displacing  26/coordinate 2 (+)>>>
             <<<Displacing  26/coordinate 2 (-)>>>
             <<<Displacing  26/coordinate 3 (+)>>>
             <<<Displacing  27/coordinate 1 (+)>>>
             <<<Displacing  26/coordinate 3 (-)>>>
             <<<Displacing  27/coordinate 2 (+)>>>
             <<<Displacing  27/coordinate 1 (-)>>>
             <<<Displacing  27/coordinate 2 (-)>>>
             <<<Displacing  27/coordinate 3 (+)>>>
             <<<Displacing  28/coordinate 1 (+)>>>
             <<<Displacing  28/coordinate 2 (+)>>>
             <<<Displacing  28/coordinate 3 (+)>>>
             <<<Displacing  27/coordinate 3 (-)>>>
             <<<Displacing  29/coordinate 1 (+)>>>
             <<<Displacing  28/coordinate 2 (-)>>>
             <<<Displacing  28/coordinate 1 (-)>>>
             <<<Displacing  28/coordinate 3 (-)>>>
             <<<Displacing  29/coordinate 1 (-)>>>
             <<<Displacing  29/coordinate 2 (+)>>>
             <<<Displacing  29/coordinate 2 (-)>>>
             <<<Displacing  29/coordinate 3 (+)>>>
             <<<Displacing  30/coordinate 1 (+)>>>
             <<<Displacing  29/coordinate 3 (-)>>>
             <<<Displacing  30/coordinate 1 (-)>>>
             <<<Displacing  30/coordinate 2 (+)>>>
             <<<Displacing  30/coordinate 3 (+)>>>
             <<<Displacing  31/coordinate 1 (+)>>>
             <<<Displacing  31/coordinate 2 (+)>>>
             <<<Displacing  31/coordinate 3 (+)>>>
             <<<Displacing  30/coordinate 2 (-)>>>
             <<<Displacing  30/coordinate 3 (-)>>>
             <<<Displacing  31/coordinate 1 (-)>>>
             <<<Displacing  31/coordinate 2 (-)>>>
             <<<Displacing  31/coordinate 3 (-)>>>
             <<<Displacing  32/coordinate 1 (+)>>>
             <<<Displacing  32/coordinate 1 (-)>>>
             <<<Displacing  32/coordinate 2 (+)>>>
             <<<Displacing  32/coordinate 2 (-)>>>
             <<<Displacing  32/coordinate 3 (+)>>>
             <<<Displacing  32/coordinate 3 (-)>>>
             <<<Displacing  33/coordinate 1 (+)>>>
             <<<Displacing  33/coordinate 3 (+)>>>
             <<<Displacing  33/coordinate 1 (-)>>>
             <<<Displacing  34/coordinate 1 (+)>>>
             <<<Displacing  33/coordinate 2 (+)>>>
             <<<Displacing  33/coordinate 3 (-)>>>
             <<<Displacing  34/coordinate 2 (+)>>>
             <<<Displacing  34/coordinate 1 (-)>>>
             <<<Displacing  33/coordinate 2 (-)>>>
             <<<Displacing  34/coordinate 3 (+)>>>
             <<<Displacing  34/coordinate 2 (-)>>>
             <<<Displacing  35/coordinate 1 (+)>>>
             <<<Displacing  34/coordinate 3 (-)>>>
             <<<Displacing  35/coordinate 1 (-)>>>
             <<<Displacing  35/coordinate 2 (+)>>>
             <<<Displacing  35/coordinate 2 (-)>>>
             <<<Displacing  35/coordinate 3 (+)>>>
             <<<Displacing  36/coordinate 1 (+)>>>
             <<<Displacing  35/coordinate 3 (-)>>>
             <<<Displacing  36/coordinate 2 (+)>>>
             <<<Displacing  36/coordinate 1 (-)>>>
             <<<Displacing  36/coordinate 3 (+)>>>
             <<<Displacing  36/coordinate 2 (-)>>>
             <<<Displacing  36/coordinate 3 (-)>>>

-----------------------
VIBRATIONAL FREQUENCIES
-----------------------

Scaling factor for frequencies =  1.000000000 (already applied!)

   0:         0.00 cm**-1
   1:         0.00 cm**-1
   2:         0.00 cm**-1
   3:         0.00 cm**-1
   4:         0.00 cm**-1
   5:         0.00 cm**-1
   6:        34.17 cm**-1
   7:        47.04 cm**-1
   8:        64.30 cm**-1
   9:        70.61 cm**-1
  10:        75.57 cm**-1
  11:        82.81 cm**-1
  12:       101.55 cm**-1
  13:       112.29 cm**-1
  14:       120.35 cm**-1
  15:       170.77 cm**-1
  16:       172.55 cm**-1
  17:       217.64 cm**-1
  18:       240.16 cm**-1
  19:       247.35 cm**-1
  20:       263.66 cm**-1
  21:       269.57 cm**-1
  22:       312.78 cm**-1
  23:       344.64 cm**-1
  24:       350.97 cm**-1
  25:       368.11 cm**-1
  26:       382.31 cm**-1
  27:       404.43 cm**-1
  28:       433.48 cm**-1
  29:       482.51 cm**-1
  30:       487.48 cm**-1
  31:       525.73 cm**-1
  32:       551.92 cm**-1
  33:       589.28 cm**-1
  34:       621.28 cm**-1
  35:       628.91 cm**-1
  36:       679.80 cm**-1
  37:       701.91 cm**-1
  38:       763.11 cm**-1
  39:       770.85 cm**-1
  40:       811.47 cm**-1
  41:       818.41 cm**-1
  42:       840.69 cm**-1
  43:       861.07 cm**-1
  44:       885.26 cm**-1
  45:       909.81 cm**-1
  46:       931.11 cm**-1
  47:       933.62 cm**-1
  48:       937.99 cm**-1
  49:       950.27 cm**-1
  50:       967.44 cm**-1
  51:       982.20 cm**-1
  52:      1032.28 cm**-1
  53:      1065.43 cm**-1
  54:      1075.29 cm**-1
  55:      1099.05 cm**-1
  56:      1115.95 cm**-1
  57:      1119.27 cm**-1
  58:      1131.43 cm**-1
  59:      1154.55 cm**-1
  60:      1176.78 cm**-1
  61:      1190.65 cm**-1
  62:      1206.07 cm**-1
  63:      1219.61 cm**-1
  64:      1225.57 cm**-1
  65:      1258.82 cm**-1
  66:      1274.55 cm**-1
  67:      1278.73 cm**-1
  68:      1281.41 cm**-1
  69:      1289.76 cm**-1
  70:      1305.26 cm**-1
  71:      1330.92 cm**-1
  72:      1351.38 cm**-1
  73:      1361.93 cm**-1
  74:      1379.80 cm**-1
  75:      1424.03 cm**-1
  76:      1428.78 cm**-1
  77:      1462.62 cm**-1
  78:      1473.85 cm**-1
  79:      1502.50 cm**-1
  80:      1506.08 cm**-1
  81:      1507.12 cm**-1
  82:      1512.55 cm**-1
  83:      1526.01 cm**-1
  84:      1540.09 cm**-1
  85:      1568.52 cm**-1
  86:      1576.17 cm**-1
  87:      2877.36 cm**-1
  88:      2892.28 cm**-1
  89:      2901.79 cm**-1
  90:      2936.83 cm**-1
  91:      2961.44 cm**-1
  92:      2969.38 cm**-1
  93:      2974.76 cm**-1
  94:      2979.04 cm**-1
  95:      2984.14 cm**-1
  96:      2997.39 cm**-1
  97:      3005.28 cm**-1
  98:      3041.43 cm**-1
  99:      3052.75 cm**-1
 100:      3057.86 cm**-1
 101:      3069.50 cm**-1
 102:      3089.82 cm**-1
 103:      3128.08 cm**-1
 104:      3210.94 cm**-1
 105:      3384.09 cm**-1
 106:      3570.39 cm**-1
 107:      3578.77 cm**-1


------------
NORMAL MODES
------------

These modes are the cartesian displacements weighted by the diagonal matrix
M(i,i)=1/sqrt(m[i]) where m[i] is the mass of the displaced atom
Thus, these vectors are normalized but *not* orthogonal

                  0          1          2          3          4          5    
      0       0.000000   0.000000   0.000000   0.000000   0.000000   0.000000
      1       0.000000   0.000000   0.000000   0.000000   0.000000   0.000000
      2       0.000000   0.000000   0.000000   0.000000   0.000000   0.000000
      3       0.000000   0.000000   0.000000   0.000000   0.000000   0.000000
      4       0.000000   0.000000   0.000000   0.000000   0.000000   0.000000
      5       0.000000   0.000000   0.000000   0.000000   0.000000   0.000000
      6       0.000000   0.000000   0.000000   0.000000   0.000000   0.000000
      7       0.000000   0.000000   0.000000   0.000000   0.000000   0.000000
      8       0.000000   0.000000   0.000000   0.000000   0.000000   0.000000
      9       0.000000   0.000000   0.000000   0.000000   0.000000   0.000000
     10       0.000000   0.000000   0.000000   0.000000   0.000000   0.000000
     11       0.000000   0.000000   0.000000   0.000000   0.000000   0.000000
     12       0.000000   0.000000   0.000000   0.000000   0.000000   0.000000
     13       0.000000   0.000000   0.000000   0.000000   0.000000   0.000000
     14       0.000000   0.000000   0.000000   0.000000   0.000000   0.000000
     15       0.000000   0.000000   0.000000   0.000000   0.000000   0.000000
     16       0.000000   0.000000   0.000000   0.000000   0.000000   0.000000
     17       0.000000   0.000000   0.000000   0.000000   0.000000   0.000000
     18       0.000000   0.000000   0.000000   0.000000   0.000000   0.000000
     19       0.000000   0.000000   0.000000   0.000000   0.000000   0.000000
     20       0.000000   0.000000   0.000000   0.000000   0.000000   0.000000
     21       0.000000   0.000000   0.000000   0.000000   0.000000   0.000000
     22       0.000000   0.000000   0.000000   0.000000   0.000000   0.000000
     23       0.000000   0.000000   0.000000   0.000000   0.000000   0.000000
     24       0.000000   0.000000   0.000000   0.000000   0.000000   0.000000
     25       0.000000   0.000000   0.000000   0.000000   0.000000   0.000000
     26       0.000000   0.000000   0.000000   0.000000   0.000000   0.000000
     27       0.000000   0.000000   0.000000   0.000000   0.000000   0.000000
     28       0.000000   0.000000   0.000000   0.000000   0.000000   0.000000
     29       0.000000   0.000000   0.000000   0.000000   0.000000   0.000000
     30       0.000000   0.000000   0.000000   0.000000   0.000000   0.000000
     31       0.000000   0.000000   0.000000   0.000000   0.000000   0.000000
     32       0.000000   0.000000   0.000000   0.000000   0.000000   0.000000
     33       0.000000   0.000000   0.000000   0.000000   0.000000   0.000000
     34       0.000000   0.000000   0.000000   0.000000   0.000000   0.000000
     35       0.000000   0.000000   0.000000   0.000000   0.000000   0.000000
     36       0.000000   0.000000   0.000000   0.000000   0.000000   0.000000
     37       0.000000   0.000000   0.000000   0.000000   0.000000   0.000000
     38       0.000000   0.000000   0.000000   0.000000   0.000000   0.000000
     39       0.000000   0.000000   0.000000   0.000000   0.000000   0.000000
     40       0.000000   0.000000   0.000000   0.000000   0.000000   0.000000
     41       0.000000   0.000000   0.000000   0.000000   0.000000   0.000000
     42       0.000000   0.000000   0.000000   0.000000   0.000000   0.000000
     43       0.000000   0.000000   0.000000   0.000000   0.000000   0.000000
     44       0.000000   0.000000   0.000000   0.000000   0.000000   0.000000
     45       0.000000   0.000000   0.000000   0.000000   0.000000   0.000000
     46       0.000000   0.000000   0.000000   0.000000   0.000000   0.000000
     47       0.000000   0.000000   0.000000   0.000000   0.000000   0.000000
     48       0.000000   0.000000   0.000000   0.000000   0.000000   0.000000
     49       0.000000   0.000000   0.000000   0.000000   0.000000   0.000000
     50       0.000000   0.000000   0.000000   0.000000   0.000000   0.000000
     51       0.000000   0.000000   0.000000   0.000000   0.000000   0.000000
     52       0.000000   0.000000   0.000000   0.000000   0.000000   0.000000
     53       0.000000   0.000000   0.000000   0.000000   0.000000   0.000000
     54       0.000000   0.000000   0.000000   0.000000   0.000000   0.000000
     55       0.000000   0.000000   0.000000   0.000000   0.000000   0.000000
     56       0.000000   0.000000   0.000000   0.000000   0.000000   0.000000
     57       0.000000   0.000000   0.000000   0.000000   0.000000   0.000000
     58       0.000000   0.000000   0.000000   0.000000   0.000000   0.000000
     59       0.000000   0.000000   0.000000   0.000000   0.000000   0.000000
     60       0.000000   0.000000   0.000000   0.000000   0.000000   0.000000
     61       0.000000   0.000000   0.000000   0.000000   0.000000   0.000000
     62       0.000000   0.000000   0.000000   0.000000   0.000000   0.000000
     63       0.000000   0.000000   0.000000   0.000000   0.000000   0.000000
     64       0.000000   0.000000   0.000000   0.000000   0.000000   0.000000
     65       0.000000   0.000000   0.000000   0.000000   0.000000   0.000000
     66       0.000000   0.000000   0.000000   0.000000   0.000000   0.000000
     67       0.000000   0.000000   0.000000   0.000000   0.000000   0.000000
     68       0.000000   0.000000   0.000000   0.000000   0.000000   0.000000
     69       0.000000   0.000000   0.000000   0.000000   0.000000   0.000000
     70       0.000000   0.000000   0.000000   0.000000   0.000000   0.000000
     71       0.000000   0.000000   0.000000   0.000000   0.000000   0.000000
     72       0.000000   0.000000   0.000000   0.000000   0.000000   0.000000
     73       0.000000   0.000000   0.000000   0.000000   0.000000   0.000000
     74       0.000000   0.000000   0.000000   0.000000   0.000000   0.000000
     75       0.000000   0.000000   0.000000   0.000000   0.000000   0.000000
     76       0.000000   0.000000   0.000000   0.000000   0.000000   0.000000
     77       0.000000   0.000000   0.000000   0.000000   0.000000   0.000000
     78       0.000000   0.000000   0.000000   0.000000   0.000000   0.000000
     79       0.000000   0.000000   0.000000   0.000000   0.000000   0.000000
     80       0.000000   0.000000   0.000000   0.000000   0.000000   0.000000
     81       0.000000   0.000000   0.000000   0.000000   0.000000   0.000000
     82       0.000000   0.000000   0.000000   0.000000   0.000000   0.000000
     83       0.000000   0.000000   0.000000   0.000000   0.000000   0.000000
     84       0.000000   0.000000   0.000000   0.000000   0.000000   0.000000
     85       0.000000   0.000000   0.000000   0.000000   0.000000   0.000000
     86       0.000000   0.000000   0.000000   0.000000   0.000000   0.000000
     87       0.000000   0.000000   0.000000   0.000000   0.000000   0.000000
     88       0.000000   0.000000   0.000000   0.000000   0.000000   0.000000
     89       0.000000   0.000000   0.000000   0.000000   0.000000   0.000000
     90       0.000000   0.000000   0.000000   0.000000   0.000000   0.000000
     91       0.000000   0.000000   0.000000   0.000000   0.000000   0.000000
     92       0.000000   0.000000   0.000000   0.000000   0.000000   0.000000
     93       0.000000   0.000000   0.000000   0.000000   0.000000   0.000000
     94       0.000000   0.000000   0.000000   0.000000   0.000000   0.000000
     95       0.000000   0.000000   0.000000   0.000000   0.000000   0.000000
     96       0.000000   0.000000   0.000000   0.000000   0.000000   0.000000
     97       0.000000   0.000000   0.000000   0.000000   0.000000   0.000000
     98       0.000000   0.000000   0.000000   0.000000   0.000000   0.000000
     99       0.000000   0.000000   0.000000   0.000000   0.000000   0.000000
    100       0.000000   0.000000   0.000000   0.000000   0.000000   0.000000
    101       0.000000   0.000000   0.000000   0.000000   0.000000   0.000000
    102       0.000000   0.000000   0.000000   0.000000   0.000000   0.000000
    103       0.000000   0.000000   0.000000   0.000000   0.000000   0.000000
    104       0.000000   0.000000   0.000000   0.000000   0.000000   0.000000
    105       0.000000   0.000000   0.000000   0.000000   0.000000   0.000000
    106       0.000000   0.000000   0.000000   0.000000   0.000000   0.000000
    107       0.000000   0.000000   0.000000   0.000000   0.000000   0.000000
                  6          7          8          9         10         11    
      0       0.028655   0.006082   0.046840   0.012383   0.035319  -0.005594
      1      -0.006145  -0.028999  -0.023957   0.025202   0.014275   0.011448
      2      -0.002621  -0.005321   0.001985   0.029436   0.002021   0.038845
      3       0.059185   0.029031   0.048634  -0.057190  -0.023606  -0.006209
      4       0.011259  -0.008135  -0.007534  -0.031542  -0.045639   0.007767
      5      -0.048669   0.031043   0.154134  -0.031795  -0.162603   0.001160
      6       0.048995   0.036061   0.050543  -0.063665  -0.015734  -0.015695
      7       0.047395   0.022756  -0.039143  -0.114067  -0.074494   0.005613
      8      -0.088640   0.074401   0.152162  -0.086309  -0.127717  -0.048214
      9       0.008534   0.019315   0.050100  -0.002521   0.052508  -0.025928
     10       0.067499   0.033597  -0.086944  -0.141039  -0.041679   0.006109
     11      -0.084668   0.084599   0.001268  -0.082345   0.075297  -0.061764
     12      -0.022106  -0.003807   0.048425   0.066734   0.109945  -0.025308
     13       0.049650   0.014418  -0.101517  -0.085774   0.013602   0.010307
     14      -0.042880   0.051724  -0.147430  -0.021845   0.230226  -0.021830
     15      -0.012150  -0.010592   0.046245   0.072640   0.099592  -0.015309
     16       0.013377  -0.017047  -0.070848  -0.002942   0.041736   0.012928
     17      -0.001425   0.006575  -0.150410   0.034352   0.191050   0.028636
     18       0.042430   0.000250   0.044099   0.009761   0.031239  -0.003207
     19      -0.050821  -0.051093   0.015880   0.097981   0.043858   0.011212
     20       0.058345  -0.049877   0.003028   0.051504  -0.000002   0.054505
     21       0.090943   0.041635   0.048543  -0.107570  -0.076608   0.000992
     22      -0.003955  -0.016303   0.029993  -0.010200  -0.069291   0.006579
     23      -0.050081   0.023630   0.270070  -0.037944  -0.311507   0.007930
     24      -0.035516  -0.032976   0.040863   0.118971   0.140649  -0.015403
     25       0.000446  -0.034144  -0.083283   0.034444   0.080181   0.014732
     26       0.033831  -0.020406  -0.264802   0.078733   0.300338   0.055737
     27       0.000984   0.024311   0.051346  -0.007295   0.060301  -0.033754
     28       0.096994   0.057490  -0.110360  -0.205033  -0.061971   0.003019
     29      -0.114151   0.117701   0.000258  -0.126740   0.108928  -0.103074
     30      -0.003541   0.030329   0.030487   0.013230   0.016846   0.011286
     31      -0.075343   0.009757   0.065616   0.086171   0.016309   0.016399
     32       0.087194  -0.075324   0.003321   0.054164   0.013062   0.045823
     33      -0.022414   0.013113   0.040846   0.030721   0.023035   0.010212
     34      -0.021340   0.043513   0.038033   0.044871   0.004908   0.015780
     35       0.154442  -0.129860  -0.012064   0.042634   0.044815  -0.002800
     36       0.033557   0.045155  -0.191005   0.179401  -0.186009  -0.000068
     37      -0.097408  -0.023176   0.086230   0.074709  -0.030834  -0.033951
     38       0.057560  -0.123500   0.030815  -0.001468  -0.032621  -0.001126
     39       0.006524   0.055888   0.022530  -0.014725   0.014864   0.017906
     40       0.048204   0.051551   0.015297  -0.000702   0.006205  -0.009921
     41      -0.052639   0.058081   0.010911   0.030985  -0.003640   0.171222
     42      -0.024800  -0.020632   0.050497   0.058060   0.022963  -0.004254
     43      -0.182814   0.200741   0.060625   0.038689  -0.044634   0.170507
     44       0.246949  -0.212432  -0.026923   0.040443   0.073024  -0.088351
     45      -0.058836   0.003288   0.051456   0.048196   0.033682   0.017159
     46       0.126757  -0.084990   0.014412   0.041339   0.046031  -0.116952
     47       0.285287  -0.246470  -0.033359   0.040892   0.082483  -0.122404
     48      -0.030586   0.111552  -0.014291  -0.059304   0.006965  -0.069062
     49       0.163615  -0.079290  -0.030135  -0.000955   0.044974  -0.254036
     50      -0.110685   0.120927   0.043848   0.039959  -0.023926   0.325797
     51       0.082148   0.047064   0.038028  -0.027545   0.012605   0.119141
     52      -0.060535   0.153930   0.057326   0.008894  -0.025306   0.194601
     53      -0.145084   0.150765   0.050961   0.038353  -0.032302   0.366792
     54       0.034474  -0.007948   0.082386   0.047810   0.045312   0.000576
     55      -0.070472  -0.077495   0.020262   0.131538   0.065322   0.014748
     56       0.079759  -0.014054   0.031371   0.030987  -0.023409   0.051063
     57      -0.147094  -0.242358  -0.126700  -0.305554  -0.046362   0.052840
     58      -0.105889  -0.135317   0.033064   0.068490  -0.000586  -0.033608
     59       0.061432  -0.050428   0.076381  -0.010451  -0.096042  -0.033425
     60      -0.034536  -0.079288   0.043955  -0.055542   0.011667  -0.003733
     61      -0.075598  -0.079813   0.020037   0.095999   0.042001   0.005579
     62       0.070963  -0.019749   0.031048  -0.022420  -0.058877   0.037239
     63      -0.170490  -0.282157  -0.126768  -0.387326  -0.038519   0.061694
     64      -0.142699  -0.204531  -0.000749  -0.062641   0.000521  -0.016164
     65       0.031028  -0.085250   0.160586  -0.110685  -0.057273  -0.030175
     66       0.026085   0.022939  -0.290308   0.238345  -0.270546  -0.013887
     67      -0.099482  -0.028353   0.088797   0.067742  -0.052035  -0.050515
     68       0.055330  -0.127436   0.038784  -0.009467  -0.059233  -0.023923
     69      -0.095207  -0.155545  -0.195490  -0.125949  -0.104129   0.037558
     70      -0.106839  -0.101589   0.052113   0.074894  -0.031958  -0.043352
     71       0.058943  -0.069329   0.072479  -0.022080  -0.079099  -0.028192
     72       0.039277   0.041630  -0.330005   0.301391  -0.307606  -0.022933
     73      -0.072071   0.021082   0.138336   0.093979  -0.033501  -0.061023
     74       0.081333  -0.090121  -0.031343   0.107569  -0.126371  -0.040943
     75       0.101296  -0.013615   0.020098  -0.016046   0.025940  -0.006214
     76      -0.055572  -0.082472   0.007619   0.120160   0.061934   0.009909
     77       0.067622  -0.094311  -0.014370   0.074913   0.023529   0.051447
     78      -0.040036   0.024170   0.037770   0.029774   0.017705   0.019907
     79      -0.112711   0.002961   0.108498   0.099746   0.019188   0.016195
     80       0.094829  -0.074943  -0.041194   0.054841   0.011108   0.054269
     81      -0.018178   0.035055   0.029100   0.015717   0.017806   0.002421
     82       0.103967   0.099929  -0.000862  -0.072733   0.000509   0.018697
     83      -0.054357   0.037183  -0.072628  -0.008819   0.012587  -0.147611
     84      -0.000447  -0.012987   0.085155   0.066874   0.025318   0.107622
     85       0.029198   0.203052   0.014839  -0.072933  -0.036126   0.252449
     86      -0.016713  -0.010145  -0.091716  -0.018296   0.031225  -0.294918
     87      -0.077219   0.032649  -0.005190   0.037109   0.015190  -0.110391
     88       0.173589   0.021772  -0.015656  -0.083810   0.030513  -0.170535
     89       0.008927  -0.038607  -0.089414  -0.018057   0.041388  -0.338345
     90      -0.053135  -0.015958   0.049978   0.116529   0.161784  -0.032953
     91       0.064492   0.022563  -0.137404  -0.107704   0.035729   0.010801
     92      -0.040730   0.060106  -0.262165  -0.019460   0.379278  -0.031553
     93       0.072520   0.054031   0.051600  -0.116216  -0.061844  -0.015182
     94       0.060316   0.038094  -0.025832  -0.155904  -0.120560   0.002698
     95      -0.121741   0.099983   0.268046  -0.133684  -0.254666  -0.078272
     96       0.011924   0.079971   0.007015  -0.047862   0.013984  -0.002410
     97       0.163735   0.117478  -0.015230  -0.136667   0.006542  -0.011253
     98      -0.183155   0.175347  -0.114643  -0.025371  -0.034069  -0.033954
     99      -0.005079   0.064443   0.012409  -0.021827   0.014516  -0.008139
    100       0.200099   0.150487  -0.026193  -0.191756   0.005421   0.002561
    101      -0.191904   0.174881  -0.157998  -0.047485  -0.029043  -0.201730
    102       0.074506   0.072482   0.031614  -0.074789   0.021707   0.069449
    103       0.106597   0.182636  -0.011368  -0.131102  -0.018670   0.136028
    104      -0.237725   0.238877  -0.110319  -0.020504  -0.058554   0.111691
    105      -0.012392   0.135615  -0.038977  -0.094889   0.003261  -0.072056
    106       0.227846   0.031520  -0.018070  -0.134540   0.037723  -0.194021
    107      -0.213256   0.212626  -0.106869  -0.020021  -0.048879   0.070988
                 12         13         14         15         16         17    
      0       0.025870   0.029230  -0.016572  -0.004933  -0.023266   0.015161
      1      -0.014887  -0.033013  -0.004133  -0.077358   0.137169   0.027141
      2      -0.023867  -0.153002   0.009384   0.037597  -0.064259   0.049926
      3       0.040179   0.048159  -0.016281   0.031466  -0.096560   0.011882
      4      -0.002921  -0.014424  -0.004605  -0.052653   0.088316   0.024057
      5      -0.007056  -0.086918  -0.005149   0.018048  -0.021915   0.069342
      6       0.046080   0.077144  -0.019202   0.024536  -0.083689  -0.000208
      7       0.015354   0.021641  -0.000704   0.002318  -0.015871  -0.012576
      8       0.023656   0.067824  -0.018037  -0.007571   0.035331   0.003251
      9       0.040261   0.094929  -0.025236  -0.027284   0.012028   0.000513
     10       0.022120   0.041699   0.002560   0.026888  -0.059044  -0.035890
     11       0.037579   0.157692  -0.016662  -0.007365   0.041512  -0.069277
     12       0.025668   0.073213  -0.026162  -0.067265   0.087537   0.023656
     13       0.009745   0.016779   0.003641   0.000720  -0.010802  -0.012946
     14       0.014035   0.060051   0.001454   0.017426  -0.018935  -0.002459
     15       0.020918   0.043487  -0.022811  -0.057129   0.066812   0.032116
     16      -0.009090  -0.021187   0.000294  -0.053975   0.092527   0.022468
     17      -0.016288  -0.097211   0.014960   0.039337  -0.072497   0.062606
     18       0.027763   0.030001  -0.017193   0.001765  -0.018695   0.005500
     19      -0.009995  -0.030001  -0.008557  -0.073197   0.116415  -0.042199
     20       0.004092  -0.116218  -0.008654   0.040769  -0.046564  -0.052620
     21       0.048662   0.042856  -0.013743   0.068569  -0.171744   0.007742
     22      -0.009019  -0.027470  -0.007074  -0.070014   0.123134   0.036258
     23      -0.013544  -0.134835  -0.009339   0.017302  -0.020294   0.102489
     24       0.010102   0.035042  -0.025288  -0.095146   0.130752   0.047656
     25      -0.018423  -0.030824  -0.000604  -0.078566   0.132909   0.035790
     26      -0.028172  -0.151925   0.026649   0.055868  -0.105728   0.087243
     27       0.045022   0.120375  -0.027836  -0.033334   0.026233  -0.014915
     28       0.036996   0.075629   0.004241   0.066331  -0.130546  -0.067273
     29       0.066392   0.299615  -0.029622  -0.026735   0.091873  -0.158595
     30      -0.052507  -0.089190   0.011907  -0.026316  -0.036114   0.055311
     31       0.157278  -0.065972   0.008747  -0.023192   0.002499  -0.123107
     32       0.016421  -0.044147  -0.026150   0.056167  -0.024729  -0.058530
     33      -0.053771  -0.097424   0.023191   0.019556   0.023823  -0.000632
     34       0.151907  -0.034953  -0.017855  -0.121581  -0.123260   0.065941
     35       0.042941   0.104653  -0.061840   0.136700   0.092968   0.145527
     36       0.002640   0.007406   0.008510   0.023886  -0.014144   0.047501
     37       0.085028  -0.015420   0.031482   0.229470   0.045798   0.025818
     38      -0.183050   0.046408  -0.025736  -0.274703  -0.114791  -0.132983
     39      -0.109079  -0.079353   0.038179   0.006472   0.006500   0.077025
     40       0.105318  -0.028186  -0.046576  -0.114519  -0.136119   0.162532
     41       0.014468   0.188726   0.156850   0.002958   0.029299   0.081592
     42      -0.054387  -0.194500  -0.007310   0.027144   0.014160  -0.152156
     43       0.113806  -0.037974   0.148088  -0.268007  -0.242714  -0.070270
     44       0.064467   0.126132  -0.150141   0.218693   0.162933   0.253092
     45      -0.030800  -0.026344   0.057233   0.068688   0.118484  -0.005795
     46       0.176351  -0.028579  -0.162650  -0.005032  -0.032031   0.203612
     47       0.066235   0.114618  -0.189960   0.245573   0.181923   0.272680
     48      -0.132637  -0.133108   0.107772  -0.031265  -0.016113   0.034851
     49       0.159366  -0.157994  -0.153490  -0.056616  -0.125538   0.175895
     50      -0.011509   0.272347   0.203149  -0.021438   0.028409   0.078394
     51      -0.174982  -0.000160  -0.014195   0.078782   0.068248   0.117371
     52       0.071982   0.078260   0.044805  -0.163242  -0.145415   0.132440
     53      -0.021698   0.292230   0.234428  -0.036637   0.024508   0.059721
     54       0.093724   0.080823  -0.025200   0.033823  -0.073900  -0.196753
     55      -0.064019  -0.005465  -0.012929  -0.053050   0.077217  -0.085897
     56       0.141176  -0.108292  -0.007224   0.057377  -0.052985  -0.162405
     57       0.094105  -0.040140   0.001114  -0.009456   0.035977  -0.000136
     58      -0.222373   0.105437   0.004515   0.133618  -0.240156   0.002101
     59       0.001401  -0.012474   0.005418  -0.053478   0.134005   0.035846
     60       0.031543   0.036120  -0.013507  -0.019136  -0.029590  -0.097315
     61      -0.049282  -0.014471  -0.008526  -0.086140   0.112877  -0.067191
     62       0.157084  -0.116963  -0.000369   0.022148  -0.020090  -0.134694
     63       0.120711  -0.062525   0.001274   0.016354   0.021371   0.001271
     64      -0.173059   0.063013   0.004358   0.184409  -0.303045  -0.007578
     65       0.018846  -0.024493   0.006790  -0.046737   0.221047   0.068774
     66       0.028568   0.064995   0.010235   0.003304   0.013582  -0.015457
     67       0.059571   0.003169   0.035355   0.227975   0.083813   0.068442
     68      -0.209824   0.066136  -0.018354  -0.233506  -0.058107  -0.057021
     69       0.086022  -0.012668   0.005320  -0.015465   0.027796  -0.011097
     70      -0.128911   0.083704   0.018314   0.208293  -0.123173   0.044929
     71      -0.037783  -0.004334  -0.000440  -0.075043   0.079728   0.020013
     72       0.042617   0.084111   0.011263  -0.005450   0.022977  -0.047735
     73       0.038862  -0.019880   0.038545   0.257232   0.101065   0.129685
     74      -0.186064   0.099906  -0.016318  -0.249809  -0.040509  -0.112812
     75       0.036151   0.072646  -0.031560  -0.007135   0.047668   0.028486
     76      -0.081732  -0.004881  -0.016143  -0.070205   0.120358  -0.032772
     77      -0.087801  -0.071515  -0.022714   0.042501  -0.021273  -0.029374
     78      -0.097065  -0.159176   0.030799  -0.010483   0.006112  -0.044095
     79       0.192047  -0.101251   0.026909   0.048051   0.020546  -0.287882
     80      -0.076102  -0.076335  -0.029313  -0.013970  -0.002077   0.038228
     81      -0.058542  -0.101501   0.032725  -0.026920  -0.030111   0.113332
     82      -0.019809   0.009690  -0.028532  -0.030670  -0.042677   0.078121
     83       0.059325  -0.013118   0.175095  -0.038718  -0.026421   0.016198
     84       0.006952  -0.011825   0.109875  -0.065488  -0.064020   0.217140
     85      -0.129610   0.103956  -0.235886   0.035093   0.023585   0.074829
     86       0.106586  -0.081550   0.273001  -0.066738  -0.055554  -0.003129
     87       0.007056  -0.205001  -0.053141  -0.090734  -0.113455   0.161711
     88       0.048719  -0.063686   0.148507  -0.065699  -0.074060   0.048191
     89       0.130227  -0.091384   0.339266  -0.077233  -0.063192  -0.007649
     90       0.019026   0.080347  -0.029517  -0.105630   0.164860   0.032753
     91       0.015573   0.031418   0.005793   0.018632  -0.046165  -0.022473
     92       0.022887   0.118269   0.003550   0.018788  -0.020001  -0.020614
     93       0.055154   0.087402  -0.016824   0.060400  -0.148933  -0.014707
     94       0.023368   0.035797  -0.000469   0.025112  -0.056812  -0.024124
     95       0.040222   0.132410  -0.031262  -0.027752   0.079077  -0.009398
     96      -0.180770  -0.107117   0.036187   0.078116   0.091266  -0.058890
     97      -0.122634   0.011312   0.050140   0.068472   0.078136  -0.101939
     98      -0.058647  -0.039358  -0.173272   0.017841   0.010678  -0.016220
     99      -0.127629  -0.112641   0.026619   0.026496   0.030725   0.017807
    100      -0.235856   0.024302   0.070265   0.178831   0.207693  -0.264702
    101      -0.038954  -0.160833  -0.132564  -0.030969  -0.043438  -0.128274
    102      -0.249482  -0.026831   0.113948   0.174287   0.209701  -0.116109
    103      -0.188716   0.064744  -0.144010   0.122343   0.124413  -0.053917
    104      -0.124705   0.014657  -0.361512   0.072496   0.058377   0.029595
    105      -0.259433  -0.187793  -0.028336   0.118783   0.132341  -0.223540
    106      -0.023626  -0.056130   0.285717  -0.014443   0.001331  -0.136666
    107      -0.099624   0.006839  -0.287475   0.055663   0.045229   0.024276
                 18         19         20         21         22         23    
      0       0.070203   0.027915   0.004607   0.001108  -0.005922  -0.002386
      1       0.085403  -0.103577  -0.019747  -0.007951  -0.044599   0.006717
      2       0.070999   0.088990   0.014150   0.005589  -0.005532  -0.011370
      3       0.088220   0.100017   0.019772   0.006003   0.000524  -0.008370
      4       0.093678  -0.052326  -0.009321  -0.003956  -0.027936   0.007711
      5       0.129115   0.107520   0.012846   0.009877   0.077738   0.014758
      6       0.072022   0.081065   0.017537   0.004353  -0.011611  -0.010764
      7       0.005169   0.027261   0.009178   0.002417  -0.000172  -0.000201
      8       0.003137  -0.009127  -0.005144   0.000028   0.029746   0.008806
      9       0.101257  -0.007824   0.003463  -0.003257  -0.067618  -0.013108
     10      -0.059657   0.038163   0.013295   0.002833  -0.004175  -0.006640
     11      -0.154933  -0.109346  -0.013736  -0.010230  -0.068718  -0.014379
     12       0.148060  -0.054419  -0.007797  -0.005999  -0.056604  -0.000696
     13      -0.011246   0.016221   0.006580   0.001894   0.013611   0.004811
     14      -0.005167   0.028355   0.008219   0.001993   0.035345   0.007597
     15       0.157669  -0.020730  -0.002393  -0.002965  -0.036833   0.000349
     16       0.071050  -0.063813  -0.013416  -0.004368  -0.007773   0.012647
     17       0.123768   0.142345   0.022337   0.011287   0.085035   0.011990
     18       0.023942  -0.005272  -0.003297  -0.001620  -0.002984   0.002097
     19      -0.018792   0.010941   0.020592   0.004805   0.006855   0.000769
     20      -0.025334  -0.001598   0.015089  -0.005847  -0.137437  -0.016376
     21       0.090399   0.176805   0.035791   0.011676   0.014162  -0.014267
     22       0.115231  -0.073367  -0.015273  -0.005067  -0.020171   0.014877
     23       0.202150   0.152766   0.018117   0.014395   0.117207   0.027764
     24       0.213117  -0.057189  -0.006343  -0.005932  -0.060559  -0.001035
     25       0.116843  -0.083781  -0.016502  -0.006221  -0.021198   0.013569
     26       0.176187   0.216466   0.027319   0.015558   0.135219   0.026086
     27       0.069779  -0.037939  -0.000582  -0.005982  -0.088039  -0.016451
     28      -0.135590   0.069701   0.021366   0.004598  -0.007881  -0.016341
     29      -0.338052  -0.254362  -0.032066  -0.023735  -0.176900  -0.035079
     30      -0.025404  -0.002603   0.006261   0.000600  -0.048529  -0.005024
     31       0.022767  -0.056048  -0.060287   0.009640   0.186125  -0.014631
     32      -0.028752  -0.004794   0.019004  -0.009368  -0.134438  -0.011424
     33      -0.042562  -0.036499  -0.022731   0.000259   0.036410  -0.005502
     34      -0.032093  -0.022313  -0.011329   0.004760   0.044477  -0.009254
     35      -0.074863  -0.035963  -0.047036  -0.020243   0.108164  -0.004359
     36      -0.042182   0.010361   0.041583  -0.002920  -0.116520  -0.041965
     37      -0.005926   0.061569  -0.070759  -0.018687  -0.038369  -0.062229
     38       0.020270  -0.013524  -0.124185  -0.001632   0.127649  -0.080652
     39      -0.127485  -0.052411  -0.012725  -0.007843  -0.007670   0.007637
     40      -0.106470  -0.028763  -0.001832  -0.001085  -0.009682   0.002529
     41      -0.015527  -0.010374  -0.004007  -0.028036   0.040509   0.001528
     42       0.010911  -0.020634  -0.002549   0.009599  -0.053848  -0.013665
     43       0.034397   0.022021   0.069552   0.002500  -0.181612  -0.005031
     44      -0.122900  -0.064558  -0.097511  -0.020830   0.255964  -0.004974
     45      -0.013486  -0.061448  -0.073776  -0.001042   0.226027  -0.007317
     46      -0.099812  -0.059563  -0.076072   0.005250   0.219918  -0.010290
     47      -0.137089  -0.071552  -0.107637  -0.019948   0.277345  -0.005116
     48      -0.117213  -0.035998  -0.002669   0.028229  -0.076161   0.014151
     49      -0.134707  -0.041516  -0.048152   0.058066   0.018998   0.000540
     50      -0.000054  -0.005156   0.020770  -0.068514   0.037392   0.001369
     51      -0.151621  -0.058274  -0.000931  -0.052794   0.001045   0.011604
     52      -0.066793  -0.015273   0.032928  -0.048639  -0.022341   0.001639
     53       0.016654   0.000985   0.028936  -0.075923   0.028953   0.001220
     54      -0.119198   0.108562   0.051733   0.015137   0.053902   0.037901
     55      -0.126547   0.187602   0.097786   0.016298  -0.023923   0.007121
     56       0.028655  -0.186664  -0.064153  -0.010612  -0.049648   0.001534
     57      -0.012828   0.016741  -0.004347  -0.001536  -0.004061  -0.005696
[...]
     75      -0.000063   0.001541   0.002343  -0.001483  -0.000305   0.000138
     76      -0.000882   0.013554   0.022408   0.003474  -0.000248  -0.000011
     77       0.001037  -0.009678  -0.013528  -0.004613   0.000047  -0.000101
     78      -0.000459   0.004580   0.002314   0.555651  -0.001711   0.000985
     79       0.000225  -0.003211  -0.001510  -0.631289   0.002601  -0.001381
     80      -0.000096  -0.005504  -0.001469  -0.535927   0.001220  -0.000879
     81      -0.000013  -0.000039  -0.000013  -0.000024  -0.000019  -0.000004
     82      -0.000054  -0.000131  -0.000177   0.000052   0.000010  -0.000006
     83      -0.000001   0.000052   0.000023   0.000042   0.000001   0.000003
     84       0.000063   0.000385   0.000450  -0.000227   0.000031  -0.000074
     85       0.000234   0.000551   0.001110  -0.000182  -0.000080  -0.000071
     86       0.000419   0.000932   0.001592  -0.000333  -0.000195  -0.000035
     87       0.000018   0.000195   0.000153   0.000146   0.000289  -0.000086
     88       0.000399   0.001094   0.001335   0.000353   0.000292  -0.000112
     89      -0.000399  -0.001164  -0.001191  -0.000265  -0.000171   0.000047
     90      -0.064665  -0.002502  -0.000978  -0.000538  -0.000027   0.000199
     91      -0.143128  -0.005394  -0.000862  -0.000750  -0.000078   0.000442
     92       0.043754   0.001594   0.000441   0.000321   0.000096  -0.000147
     93      -0.013778  -0.003804  -0.003424  -0.000870  -0.000036  -0.000178
     94       0.020000   0.005411   0.004893   0.000923  -0.000005   0.000287
     95      -0.002222  -0.000619  -0.000502  -0.000072   0.000028  -0.000044
     96      -0.000007  -0.000094  -0.000023  -0.000017  -0.000019   0.000009
     97      -0.000014  -0.000068  -0.000135   0.000019  -0.000025   0.000036
     98      -0.000004   0.000140   0.000004   0.000020   0.000015   0.000007
     99       0.000069   0.001563   0.000348  -0.000018   0.000206  -0.000062
    100       0.000044   0.000722   0.000214   0.000034   0.000056  -0.000070
    101       0.000007  -0.000065   0.000040  -0.000007  -0.000045   0.000002
    102      -0.000004  -0.000087   0.000006   0.000052  -0.000053   0.000048
    103      -0.000024   0.000652   0.000760  -0.000222   0.000249  -0.000221
    104       0.000061  -0.001026  -0.000362   0.000232  -0.000280   0.000087
    105       0.000005  -0.000245  -0.000049   0.000068   0.000022   0.000011
    106       0.000024  -0.000471   0.000455  -0.000321   0.000051  -0.000209
    107       0.000009  -0.000448   0.000338  -0.000541   0.000137  -0.000175


-----------
IR SPECTRUM  
-----------

 Mode    freq (cm**-1)   T**2         TX         TY         TZ
-------------------------------------------------------------------
   6:        34.17    0.000000  (  0.000000   0.000000   0.000000)
   7:        47.04    0.000000  (  0.000000   0.000000   0.000000)
   8:        64.30    0.000000  (  0.000000   0.000000   0.000000)
   9:        70.61    0.000000  (  0.000000   0.000000   0.000000)
  10:        75.57    0.000000  (  0.000000   0.000000   0.000000)
  11:        82.81    0.000000  (  0.000000   0.000000   0.000000)
  12:       101.55    0.000000  (  0.000000   0.000000   0.000000)
  13:       112.29    0.000000  (  0.000000   0.000000   0.000000)
  14:       120.35    0.000000  (  0.000000   0.000000   0.000000)
  15:       170.77    0.000000  (  0.000000   0.000000   0.000000)
  16:       172.55    0.000000  (  0.000000   0.000000   0.000000)
  17:       217.64    0.000000  (  0.000000   0.000000   0.000000)
  18:       240.16    0.000000  (  0.000000   0.000000   0.000000)
  19:       247.35    0.000000  (  0.000000   0.000000   0.000000)
  20:       263.66    0.000000  (  0.000000   0.000000   0.000000)
  21:       269.57    0.000000  (  0.000000   0.000000   0.000000)
  22:       312.78    0.000000  (  0.000000   0.000000   0.000000)
  23:       344.64    0.000000  (  0.000000   0.000000   0.000000)
  24:       350.97    0.000000  (  0.000000   0.000000   0.000000)
  25:       368.11    0.000000  (  0.000000   0.000000   0.000000)
  26:       382.31    0.000000  (  0.000000   0.000000   0.000000)
  27:       404.43    0.000000  (  0.000000   0.000000   0.000000)
  28:       433.48    0.000000  (  0.000000   0.000000   0.000000)
  29:       482.51    0.000000  (  0.000000   0.000000   0.000000)
  30:       487.48    0.000000  (  0.000000   0.000000   0.000000)
  31:       525.73    0.000000  (  0.000000   0.000000   0.000000)
  32:       551.92    0.000000  (  0.000000   0.000000   0.000000)
  33:       589.28    0.000000  (  0.000000   0.000000   0.000000)
  34:       621.28    0.000000  (  0.000000   0.000000   0.000000)
  35:       628.91    0.000000  (  0.000000   0.000000   0.000000)
  36:       679.80    0.000000  (  0.000000   0.000000   0.000000)
  37:       701.91    0.000000  (  0.000000   0.000000   0.000000)
  38:       763.11    0.000000  (  0.000000   0.000000   0.000000)
  39:       770.85    0.000000  (  0.000000   0.000000   0.000000)
  40:       811.47    0.000000  (  0.000000   0.000000   0.000000)
  41:       818.41    0.000000  (  0.000000   0.000000   0.000000)
  42:       840.69    0.000000  (  0.000000   0.000000   0.000000)
  43:       861.07    0.000000  (  0.000000   0.000000   0.000000)
  44:       885.26    0.000000  (  0.000000   0.000000   0.000000)
  45:       909.81    0.000000  (  0.000000   0.000000   0.000000)
  46:       931.11    0.000000  (  0.000000   0.000000   0.000000)
  47:       933.62    0.000000  (  0.000000   0.000000   0.000000)
  48:       937.99    0.000000  (  0.000000   0.000000   0.000000)
  49:       950.27    0.000000  (  0.000000   0.000000   0.000000)
  50:       967.44    0.000000  (  0.000000   0.000000   0.000000)
  51:       982.20    0.000000  (  0.000000   0.000000   0.000000)
  52:      1032.28    0.000000  (  0.000000   0.000000   0.000000)
  53:      1065.43    0.000000  (  0.000000   0.000000   0.000000)
  54:      1075.29    0.000000  (  0.000000   0.000000   0.000000)
  55:      1099.05    0.000000  (  0.000000   0.000000   0.000000)
  56:      1115.95    0.000000  (  0.000000   0.000000   0.000000)
  57:      1119.27    0.000000  (  0.000000   0.000000   0.000000)
  58:      1131.43    0.000000  (  0.000000   0.000000   0.000000)
  59:      1154.55    0.000000  (  0.000000   0.000000   0.000000)
  60:      1176.78    0.000000  (  0.000000   0.000000   0.000000)
  61:      1190.65    0.000000  (  0.000000   0.000000   0.000000)
  62:      1206.07    0.000000  (  0.000000   0.000000   0.000000)
  63:      1219.61    0.000000  (  0.000000   0.000000   0.000000)
  64:      1225.57    0.000000  (  0.000000   0.000000   0.000000)
  65:      1258.82    0.000000  (  0.000000   0.000000   0.000000)
  66:      1274.55    0.000000  (  0.000000   0.000000   0.000000)
  67:      1278.73    0.000000  (  0.000000   0.000000   0.000000)
  68:      1281.41    0.000000  (  0.000000   0.000000   0.000000)
  69:      1289.76    0.000000  (  0.000000   0.000000   0.000000)
  70:      1305.26    0.000000  (  0.000000   0.000000   0.000000)
  71:      1330.92    0.000000  (  0.000000   0.000000   0.000000)
  72:      1351.38    0.000000  (  0.000000   0.000000   0.000000)
  73:      1361.93    0.000000  (  0.000000   0.000000   0.000000)
  74:      1379.80    0.000000  (  0.000000   0.000000   0.000000)
  75:      1424.03    0.000000  (  0.000000   0.000000   0.000000)
  76:      1428.78    0.000000  (  0.000000   0.000000   0.000000)
  77:      1462.62    0.000000  (  0.000000   0.000000   0.000000)
  78:      1473.85    0.000000  (  0.000000   0.000000   0.000000)
  79:      1502.50    0.000000  (  0.000000   0.000000   0.000000)
  80:      1506.08    0.000000  (  0.000000   0.000000   0.000000)
  81:      1507.12    0.000000  (  0.000000   0.000000   0.000000)
  82:      1512.55    0.000000  (  0.000000   0.000000   0.000000)
  83:      1526.01    0.000000  (  0.000000   0.000000   0.000000)
  84:      1540.09    0.000000  (  0.000000   0.000000   0.000000)
  85:      1568.52    0.000000  (  0.000000   0.000000   0.000000)
  86:      1576.17    0.000000  (  0.000000   0.000000   0.000000)
  87:      2877.36    0.000000  (  0.000000   0.000000   0.000000)
  88:      2892.28    0.000000  (  0.000000   0.000000   0.000000)
  89:      2901.79    0.000000  (  0.000000   0.000000   0.000000)
  90:      2936.83    0.000000  (  0.000000   0.000000   0.000000)
  91:      2961.44    0.000000  (  0.000000   0.000000   0.000000)
  92:      2969.38    0.000000  (  0.000000   0.000000   0.000000)
  93:      2974.76    0.000000  (  0.000000   0.000000   0.000000)
  94:      2979.04    0.000000  (  0.000000   0.000000   0.000000)
  95:      2984.14    0.000000  (  0.000000   0.000000   0.000000)
  96:      2997.39    0.000000  (  0.000000   0.000000   0.000000)
  97:      3005.28    0.000000  (  0.000000   0.000000   0.000000)
  98:      3041.43    0.000000  (  0.000000   0.000000   0.000000)
  99:      3052.75    0.000000  (  0.000000   0.000000   0.000000)
 100:      3057.86    0.000000  (  0.000000   0.000000   0.000000)
 101:      3069.50    0.000000  (  0.000000   0.000000   0.000000)
 102:      3089.82    0.000000  (  0.000000   0.000000   0.000000)
 103:      3128.08    0.000000  (  0.000000   0.000000   0.000000)
 104:      3210.94    0.000000  (  0.000000   0.000000   0.000000)
 105:      3384.09    0.000000  (  0.000000   0.000000   0.000000)
 106:      3570.39    0.000000  (  0.000000   0.000000   0.000000)
 107:      3578.77    0.000000  (  0.000000   0.000000   0.000000)

The first frequency considered to be a vibration is 6
The total number of vibrations considered is 102


--------------------------
THERMOCHEMISTRY AT 298.15K
--------------------------

Temperature         ... 298.15 K
Pressure            ... 1.00 atm
Total Mass          ... 215.29 AMU

Throughout the following assumptions are being made:
  (1) The electronic state is orbitally nondegenerate
  (2) There are no thermally accessible electronically excited states
  (3) Hindered rotations indicated by low frequency modes are not
      treated as such but are treated as vibrations and this may
      cause some error
  (4) All equations used are the standard statistical mechanics
      equations for an ideal gas
  (5) All vibrations are strictly harmonic

freq.      34.17  E(vib)   ...       0.54 
freq.      47.04  E(vib)   ...       0.53 
freq.      64.30  E(vib)   ...       0.51 
freq.      70.61  E(vib)   ...       0.50 
freq.      75.57  E(vib)   ...       0.49 
freq.      82.81  E(vib)   ...       0.48 
freq.     101.55  E(vib)   ...       0.46 
freq.     112.29  E(vib)   ...       0.45 
freq.     120.35  E(vib)   ...       0.44 
freq.     170.77  E(vib)   ...       0.38 
freq.     172.55  E(vib)   ...       0.38 
freq.     217.64  E(vib)   ...       0.33 
freq.     240.16  E(vib)   ...       0.31 
freq.     247.35  E(vib)   ...       0.31 
freq.     263.66  E(vib)   ...       0.29 
freq.     269.57  E(vib)   ...       0.29 
freq.     312.78  E(vib)   ...       0.25 
freq.     344.64  E(vib)   ...       0.23 
freq.     350.97  E(vib)   ...       0.23 
freq.     368.11  E(vib)   ...       0.21 
freq.     382.31  E(vib)   ...       0.21 
freq.     404.43  E(vib)   ...       0.19 
freq.     433.48  E(vib)   ...       0.17 
freq.     482.51  E(vib)   ...       0.15 
freq.     487.48  E(vib)   ...       0.15 
freq.     525.73  E(vib)   ...       0.13 
freq.     551.92  E(vib)   ...       0.12 
freq.     589.28  E(vib)   ...       0.10 
freq.     621.28  E(vib)   ...       0.09 
freq.     628.91  E(vib)   ...       0.09 
freq.     679.80  E(vib)   ...       0.08 
freq.     701.91  E(vib)   ...       0.07 
freq.     763.11  E(vib)   ...       0.06 
freq.     770.85  E(vib)   ...       0.05 
freq.     811.47  E(vib)   ...       0.05 
freq.     818.41  E(vib)   ...       0.05 
freq.     840.69  E(vib)   ...       0.04 
freq.     861.07  E(vib)   ...       0.04 
freq.     885.26  E(vib)   ...       0.04 
freq.     909.81  E(vib)   ...       0.03 
freq.     931.11  E(vib)   ...       0.03 
freq.     933.62  E(vib)   ...       0.03 
freq.     937.99  E(vib)   ...       0.03 
freq.     950.27  E(vib)   ...       0.03 
freq.     967.44  E(vib)   ...       0.03 
freq.     982.20  E(vib)   ...       0.02 
freq.    1032.28  E(vib)   ...       0.02 
freq.    1065.43  E(vib)   ...       0.02 
freq.    1075.29  E(vib)   ...       0.02 
freq.    1099.05  E(vib)   ...       0.02 
freq.    1115.95  E(vib)   ...       0.01 
freq.    1119.27  E(vib)   ...       0.01 
freq.    1131.43  E(vib)   ...       0.01 
freq.    1154.55  E(vib)   ...       0.01 
freq.    1176.78  E(vib)   ...       0.01 
freq.    1190.65  E(vib)   ...       0.01 
freq.    1206.07  E(vib)   ...       0.01 
freq.    1219.61  E(vib)   ...       0.01 
freq.    1225.57  E(vib)   ...       0.01 
freq.    1258.82  E(vib)   ...       0.01 
freq.    1274.55  E(vib)   ...       0.01 
freq.    1278.73  E(vib)   ...       0.01 
freq.    1281.41  E(vib)   ...       0.01 
freq.    1289.76  E(vib)   ...       0.01 
freq.    1305.26  E(vib)   ...       0.01 
freq.    1330.92  E(vib)   ...       0.01 
freq.    1351.38  E(vib)   ...       0.01 
freq.    1361.93  E(vib)   ...       0.01 
freq.    1379.80  E(vib)   ...       0.01 
freq.    1424.03  E(vib)   ...       0.00 
freq.    1428.78  E(vib)   ...       0.00 
freq.    1462.62  E(vib)   ...       0.00 
freq.    1473.85  E(vib)   ...       0.00 
freq.    1502.50  E(vib)   ...       0.00 
freq.    1506.08  E(vib)   ...       0.00 
freq.    1507.12  E(vib)   ...       0.00 
freq.    1512.55  E(vib)   ...       0.00 
freq.    1526.01  E(vib)   ...       0.00 
freq.    1540.09  E(vib)   ...       0.00 
freq.    1568.52  E(vib)   ...       0.00 
freq.    1576.17  E(vib)   ...       0.00 
freq.    2877.36  E(vib)   ...       0.00 
freq.    2892.28  E(vib)   ...       0.00 
freq.    2901.79  E(vib)   ...       0.00 
freq.    2936.83  E(vib)   ...       0.00 
freq.    2961.44  E(vib)   ...       0.00 
freq.    2969.38  E(vib)   ...       0.00 
freq.    2974.76  E(vib)   ...       0.00 
freq.    2979.04  E(vib)   ...       0.00 
freq.    2984.14  E(vib)   ...       0.00 
freq.    2997.39  E(vib)   ...       0.00 
freq.    3005.28  E(vib)   ...       0.00 
freq.    3041.43  E(vib)   ...       0.00 
freq.    3052.75  E(vib)   ...       0.00 
freq.    3057.86  E(vib)   ...       0.00 
freq.    3069.50  E(vib)   ...       0.00 
freq.    3089.82  E(vib)   ...       0.00 
freq.    3128.08  E(vib)   ...       0.00 
freq.    3210.94  E(vib)   ...       0.00 
freq.    3384.09  E(vib)   ...       0.00 
freq.    3570.39  E(vib)   ...       0.00 
freq.    3578.77  E(vib)   ...       0.00 

------------
INNER ENERGY
------------

The inner energy is: U= E(el) + E(ZPE) + E(vib) + E(rot) + E(trans)
    E(el)   - is the total energy from the electronic structure calculation
              = E(kin-el) + E(nuc-el) + E(el-el) + E(nuc-nuc)
    E(ZPE)  - the the zero temperature vibrational energy from the frequency calculation
    E(vib)  - the the finite temperature correction to E(ZPE) due to population
              of excited vibrational states
    E(rot)  - is the rotational thermal energy
    E(trans)- is the translational thermal energy

Summary of contributions to the inner energy U:
Electronic energy                ...    -49.38748893 Eh
Zero point energy                ...      0.30330459 Eh     190.33 kcal/mol
Thermal vibrational correction   ...      0.01588892 Eh       9.97 kcal/mol
Thermal rotational correction    ...      0.00141627 Eh       0.89 kcal/mol
Thermal translational correction ...      0.00141627 Eh       0.89 kcal/mol
-----------------------------------------------------------------------
Total thermal energy                    -49.06546287 Eh


Summary of corrections to the electronic energy:
(perhaps to be used in another calculation)
Total thermal correction                  0.01872147 Eh      11.75 kcal/mol
Non-thermal (ZPE) correction              0.30330459 Eh     190.33 kcal/mol
-----------------------------------------------------------------------
Total correction                          0.32202606 Eh     202.07 kcal/mol


--------
ENTHALPY
--------

The enthalpy is H = U + kB*T
                kB is Boltzmann's constant
Total free energy                 ...    -49.06546287 Eh 
Thermal Enthalpy correction       ...      0.00094421 Eh       0.59 kcal/mol
-----------------------------------------------------------------------
Total Enthalpy                    ...    -49.06451866 Eh


Note: Only C1 symmetry has been detected, increase convergence thresholds 
      if your molecule has a higher symmetry. Symmetry factor of 1.0 is   
      used for the rotational entropy correction. 
 

Note: Rotational entropy computed according to Herzberg 
Infrared and Raman Spectra, Chapter V,1, Van Nostrand Reinhold, 1945 
Point Group:  C1, Symmetry Number:   1  
Rotational constants in cm-1:     0.033528     0.009032     0.008086 

Vibrational entropy computed according to the QRRHO of S. Grimme
Chem.Eur.J. 2012 18 9955


-------
ENTROPY
-------

The entropy contributions are T*S = T*(S(el)+S(vib)+S(rot)+S(trans))
     S(el)   - electronic entropy
     S(vib)  - vibrational entropy
     S(rot)  - rotational entropy
     S(trans)- translational entropy
The entropies will be listed as mutliplied by the temperature to get
units of energy

Electronic entropy                ...      0.00000000 Eh      0.00 kcal/mol
Vibrational entropy               ...      0.02812984 Eh     17.65 kcal/mol
Rotational entropy                ...      0.01561023 Eh      9.80 kcal/mol
Translational entropy             ...      0.01995728 Eh     12.52 kcal/mol
-----------------------------------------------------------------------
Final entropy term                ...      0.06369735 Eh     39.97 kcal/mol

In case the symmetry of your molecule has not been determined correctly
or in case you have a reason to use a different symmetry number we print 
out the resulting rotational entropy values for sn=1,12 :
 --------------------------------------------------------
|  sn= 1 | S(rot)=       0.01561023 Eh      9.80 kcal/mol|
|  sn= 2 | S(rot)=       0.01495577 Eh      9.38 kcal/mol|
|  sn= 3 | S(rot)=       0.01457294 Eh      9.14 kcal/mol|
|  sn= 4 | S(rot)=       0.01430132 Eh      8.97 kcal/mol|
|  sn= 5 | S(rot)=       0.01409063 Eh      8.84 kcal/mol|
|  sn= 6 | S(rot)=       0.01391849 Eh      8.73 kcal/mol|
|  sn= 7 | S(rot)=       0.01377294 Eh      8.64 kcal/mol|
|  sn= 8 | S(rot)=       0.01364686 Eh      8.56 kcal/mol|
|  sn= 9 | S(rot)=       0.01353565 Eh      8.49 kcal/mol|
|  sn=10 | S(rot)=       0.01343617 Eh      8.43 kcal/mol|
|  sn=11 | S(rot)=       0.01334618 Eh      8.37 kcal/mol|
|  sn=12 | S(rot)=       0.01326403 Eh      8.32 kcal/mol|
 --------------------------------------------------------


-------------------
GIBBS FREE ENERGY
-------------------

The Gibbs free energy is G = H - T*S

Total enthalpy                    ...    -49.06451866 Eh 
Total entropy correction          ...     -0.06369735 Eh    -39.97 kcal/mol
-----------------------------------------------------------------------
Final Gibbs free energy         ...    -49.12821601 Eh

For completeness - the Gibbs free energy minus the electronic energy
G-E(el)                           ...      0.25927292 Eh    162.70 kcal/mol


Total Time for Numerical Frequencies  :        59.003 sec
Time for Reference State(s)           :         0.086 sec
Time for Displacements                :        51.510 sec

Timings for individual modules:

Sum of individual times         ...        0.163 sec (=   0.003 min)
XTB module                      ...        0.163 sec (=   0.003 min) 100.0 %
                             ****ORCA TERMINATED NORMALLY****
TOTAL RUN TIME: 0 days 0 hours 0 minutes 59 seconds 518 msec
(SLURM) EXECUTION TIME: 59.535766563 seconds.
