(SLURM) JOB ID:         388

                                 *****************
                                 * O   R   C   A *
                                 *****************

           --- An Ab Initio, DFT and Semiempirical electronic structure package ---

                  #######################################################
                  #                        -***-                        #
                  #          Department of theory and spectroscopy      #
                  #               Directorship: Frank Neese             #
                  #        Max Planck Institute fuer Kohlenforschung    #
                  #                Kaiser Wilhelm Platz 1               #
                  #                 D-45470 Muelheim/Ruhr               #
                  #                      Germany                        #
                  #                                                     #
                  #                  All rights reserved                #
                  #                        -***-                        #
                  #######################################################


                         Program Version 4.2.1 -  RELEASE  -


 With contributions from (in alphabetic order):
   Daniel Aravena         : Magnetic Suceptibility
   Michael Atanasov       : Ab Initio Ligand Field Theory (pilot matlab implementation)
   Alexander A. Auer      : GIAO ZORA, VPT2
   Ute Becker             : Parallelization
   Giovanni Bistoni       : ED, misc. LED, open-shell LED, HFLD
   Martin Brehm           : Molecular dynamics
   Dmytro Bykov           : SCF Hessian
   Vijay G. Chilkuri      : MRCI spin determinant printing, contributions to CSF-ICE
   Dipayan Datta          : RHF DLPNO-CCSD density
   Achintya Kumar Dutta   : EOM-CC, STEOM-CC
   Dmitry Ganyushin       : Spin-Orbit,Spin-Spin,Magnetic field MRCI
   Miquel Garcia          : C-PCM Hessian, Gaussian charge scheme
   Yang Guo               : DLPNO-NEVPT2, CIM, IAO-localization
   Andreas Hansen         : Spin unrestricted coupled pair/coupled cluster methods
   Benjamin Helmich-Paris : CASSCF linear response (MC-RPA)
   Lee Huntington         : MR-EOM, pCC
   Robert Izsak           : Overlap fitted RIJCOSX, COSX-SCS-MP3, EOM
   Christian Kollmar      : KDIIS, OOCD, Brueckner-CCSD(T), CCSD density
   Simone Kossmann        : Meta GGA functionals, TD-DFT gradient, OOMP2, MP2 Hessian
   Martin Krupicka        : AUTO-CI
   Lucas Lang             : DCDCAS
   Dagmar Lenk            : GEPOL surface, SMD
   Dimitrios Liakos       : Extrapolation schemes; Compound Job, initial MDCI parallelization
   Dimitrios Manganas     : Further ROCIS development; embedding schemes
   Dimitrios Pantazis     : SARC Basis sets
   Taras Petrenko         : DFT Hessian,TD-DFT gradient, ASA, ECA, R-Raman, ABS, FL, XAS/XES, NRVS
   Peter Pinski           : DLPNO-MP2, DLPNO-MP2 Gradient
   Christoph Reimann      : Effective Core Potentials
   Marius Retegan         : Local ZFS, SOC
   Christoph Riplinger    : Optimizer, TS searches, QM/MM, DLPNO-CCSD(T), (RO)-DLPNO pert. Triples
   Tobias Risthaus        : Range-separated hybrids, TD-DFT gradient, RPA, STAB
   Michael Roemelt        : Original ROCIS implementation
   Masaaki Saitow         : Open-shell DLPNO-CCSD energy and density
   Barbara Sandhoefer     : DKH picture change effects
   Avijit Sen             : IP-ROCIS
   Kantharuban Sivalingam : CASSCF convergence, NEVPT2, FIC-MRCI
   Bernardo de Souza      : ESD, SOC TD-DFT
   Georgi Stoychev        : AutoAux, RI-MP2 NMR
   Willem Van den Heuvel  : Paramagnetic NMR
   Boris Wezisla          : Elementary symmetry handling
   Frank Wennmohs         : Technical directorship


 We gratefully acknowledge several colleagues who have allowed us to
 interface, adapt or use parts of their codes:
   Stefan Grimme, W. Hujo, H. Kruse,             : VdW corrections, initial TS optimization,
                  C. Bannwarth                     DFT functionals, gCP, sTDA/sTD-DF
   Ed Valeev, F. Pavosevic, A. Kumar             : LibInt (2-el integral package), F12 methods
   Garnet Chan, S. Sharma, J. Yang, R. Olivares  : DMRG
   Ulf Ekstrom                                   : XCFun DFT Library
   Mihaly Kallay                                 : mrcc  (arbitrary order and MRCC methods)
   Andreas Klamt, Michael Diedenhofen            : otool_cosmo (COSMO solvation model)
   Jiri Pittner, Ondrej Demel                    : Mk-CCSD
   Frank Weinhold                                : gennbo (NPA and NBO analysis)
   Christopher J. Cramer and Donald G. Truhlar   : smd solvation model
   Lars Goerigk                                  : TD-DFT with DH, B97 family of functionals
   V. Asgeirsson, H. Jonsson                     : NEB implementation
   FAccTs GmbH                                   : IRC, NEB, NEB-TS, Multilevel, MM, QM/MM, CI optimization
   S Lehtola, MJT Oliveira, MAL Marques          : LibXC Library


 Your calculation uses the libint2 library for the computation of 2-el integrals
 For citations please refer to: http://libint.valeyev.net

 Your ORCA version has been built with support for libXC version: 4.2.3
 For citations please refer to: https://tddft.org/programs/libxc/

 This ORCA versions uses:
   CBLAS   interface :  Fast vector & matrix operations
   LAPACKE interface :  Fast linear algebra routines
   SCALAPACK package :  Parallel linear algebra routines




***************************************
The coordinates will be read from file: init.xyz
***************************************


Your calculation utilizes the SMD solvation module
Please cite in your paper:
A.V. Marenich, C.J. Cramer, D.G. Truhlar J. Phys. Chem. B, 113, (2009), 6378 

Your calculation utilizes the semiempirical GFN2-xTB method
Please cite in your paper:
C. Bannwarth, Ehlert S., S. Grimme,  J. Chem. Theory Comput., 15, (2019), 1652.
   

----- Orbital basis set information -----
Your calculation utilizes the basis: def2-SVP
   F. Weigend and R. Ahlrichs, Phys. Chem. Chem. Phys. 7, 3297 (2005).

================================================================================
                                        WARNINGS
                       Please study these warnings very carefully!
================================================================================

WARNING: Gradients needed for Numerical Frequencies
  ===> : Setting RunTyp to EnGrad

WARNING: The environment variable RSH_COMMAND is not set!
  ===> : All Displacements for the Numerical Hessian calculation
         will be started on localhost

WARNING: Found dipole moment calculation with XTB calculation
  ===> : Switching off dipole moment calculation


INFO   : the flag for use of LIBINT has been found!

================================================================================
                                       INPUT FILE
================================================================================
NAME = /tmp/slurm-scratch/freq.388/freq.inp
|  1> ! XTB2 NumFreq
|  2> %maxcore 1150
|  3> 
|  4> * xyzfile 0 1 init.xyz
|  5> 
|  6> %cpcm
|  7>  smd true
|  8>  smdsolvent "ch2cl2"
|  9> end
| 10> %pal nprocs 9 end
| 11> 
| 12>                          ****END OF INPUT****
================================================================================

                     *******************************
                     * Energy+Gradient Calculation *
                     *******************************

      -----------------------------------------------------------      
     |                   =====================                   |     
     |                           x T B                           |     
     |                   =====================                   |     
     |                         S. Grimme                         |     
     |          Mulliken Center for Theoretical Chemistry        |     
     |                    University of Bonn                     |     
      -----------------------------------------------------------      

   * xtb version 6.3.2 (30e43eb) compiled by 'schneider@apollo14' on 2020-08-08

   xtb is free software: you can redistribute it and/or modify it under
   the terms of the GNU Lesser General Public License as published by
   the Free Software Foundation, either version 3 of the License, or
   (at your option) any later version.
   
   xtb is distributed in the hope that it will be useful,
   but WITHOUT ANY WARRANTY; without even the implied warranty of
   MERCHANTABILITY or FITNESS FOR A PARTICULAR PURPOSE.  See the
   GNU Lesser General Public License for more details.
   
   Cite this work as:
   * S. Grimme, C. Bannwarth, P. Shushkov, J. Chem. Theory Comput., 2017,
     13, 1989-2009. DOI: 10.1021/acs.jctc.7b00118
   * C. Bannwarth, S. Ehlert and S. Grimme., J. Chem. Theory Comput., 2019,
     15, 1652-1671. DOI: 10.1021/acs.jctc.8b01176
   * P. Pracht, E. Caldeweyher, S. Ehlert, S. Grimme, ChemRxiv, 2019, preprint.
     DOI: 10.26434/chemrxiv.8326202.v1
   
   for GFN-FF:
   * S. Spicher and S. Grimme, Angew. Chem. Int. Ed., 2020,
     DOI: 10.1002/anie.202004239
   
   for DFT-D4:
   * E. Caldeweyher, C. Bannwarth and S. Grimme, J. Chem. Phys., 2017,
     147, 034112. DOI: 10.1063/1.4993215
   * E. Caldeweyher, S. Ehlert, A. Hansen, H. Neugebauer, S. Spicher,
     C. Bannwarth and S. Grimme, J. Chem. Phys., 2019, 150, 154122.
     DOI: 10.1063/1.5090222
   
   for sTDA-xTB:
   * S. Grimme and C. Bannwarth, J. Chem. Phys., 2016, 145, 054103.
     DOI: 10.1063/1.4959605
   
   in the mass-spec context:
   * V. Asgeirsson, C. Bauer and S. Grimme, Chem. Sci., 2017, 8, 4879.
     DOI: 10.1039/c7sc00601b
   * J. Koopman and S. Grimme, ACS Omega 2019, 4, 12, 15120-15133.
     DOI: 10.1021/acsomega.9b02011
   
   for metadynamics refer to:
   * S. Grimme, J. Chem. Theory Comput., 2019, 155, 2847-2862
     DOI: 10.1021/acs.jctc.9b00143
   
   with help from (in alphabetical order)
   C. Bannwarth, F. Bohle, G. Brandenburg, E. Caldeweyher, M. Checinski,
   S. Dohm, S. Ehlert, S. Ehrlich, F. März, H. Neugebauer, J. Pisarek,
   P. Pracht, P. Shushkov, and S. Spicher.
   
 * started run on 2020/08/20 at 02:20:37.830     

           -------------------------------------------------
          |                Calculation Setup                |
           -------------------------------------------------

          program call               : /opt/orca/otool_xtb /tmp/slurm-scratch/freq.388/freq_XTB.xyz --grad -c 0 -u 0 -P 9 --namespace /tmp/slurm-scratch/freq.388/freq --gbsa CH2Cl2
          hostname                   : apollo14
          calculation namespace      : /tmp/slurm-scratch/freq.388/freq
          coordinate file            : /tmp/slurm-scratch/freq.388/freq_XTB.xyz
          omp threads                :                     9
          number of atoms            :                    36
          number of electrons        :                    88
          charge                     :                     0
          spin                       :                   0.0
          first test random number   :      0.16876705687467

   ID    Z sym.   atoms
    1    6 C      1-7, 12, 14, 28, 33
    2    1 H      8-10, 13, 15-18, 20, 21, 23, 24, 26, 27, 29-32, 34-36
    3    7 N      11
    4    8 O      19, 22, 25

molecular fragmentation (1/2 indicates fragments):
111111111111111111212222222111111111
# atoms in fragment 1/2:    28     8
 fragment masses (1/2) :      162.25       53.04
CMA distance (Bohr)    :   5.237
constraining FC (au)   :  0.0500
########################################################################
[WARNING] Please study the warnings concerning your input carefully
-1- prog_main_parseArguments: Process number higher than OMP_NUM_THREADS, I hope you know what you are doing.
########################################################################

           -------------------------------------------------
          |                 G F N 2 - x T B                 |
           -------------------------------------------------

        Reference                      10.1021/acs.jctc.8b01176
      * Hamiltonian:
        H0-scaling (s, p, d)           1.850000    2.230000    2.230000
        zeta-weighting                 0.500000
      * Dispersion:
        s8                             2.700000
        a1                             0.520000
        a2                             5.000000
        s9                             5.000000
      * Repulsion:
        kExp                           1.500000    1.000000
        rExp                           1.000000
      * Coulomb:
        alpha                          2.000000
        third order                    shell-resolved
        anisotropic                    true
        a3                             3.000000
        a5                             4.000000
        cn-shift                       1.200000
        cn-exp                         4.000000
        max-rad                        5.000000

      * Solvation model:               GBSA
        Solvent                        CH2Cl2
        Parameter file                 internal GFN2-xTB/GBSA
        Dielectric constant                8.9300E+00
        Reference state                gsolv [1 M gas/solution]
        Free energy shift                  4.4408E-03 Eh       2.7867E+00 kcal/mol
        Temperature                        2.9815E+02 K
        Density                            1.3300E+00 kg/L
        Solvent mass                       8.4930E+01 g/mol
        Interaction kernel             Still
        Born radius scaling (c1)           1.4917E+00
        Born radii integrator          GBOBC
        Born offset                        0.0000E+00 a0       0.0000E+00 AA
        H-bond correction              false
        Ion screening                  false
        Surface tension                    1.0000E-05 Eh       1.5569E+01 dyn/cm
        Grid points                               230 per atom

          ...................................................
          :                      SETUP                      :
          :.................................................:
          :  # basis functions                  81          :
          :  # atomic orbitals                  81          :
          :  # shells                           51          :
          :  # electrons                        88          :
          :  max. iterations                   250          :
          :  Hamiltonian                  GFN2-xTB          :
          :  restarted?                      false          :
          :  GBSA solvation                   true          :
          :  PC potential                    false          :
          :  electronic temp.          300.0000000     K    :
          :  accuracy                    1.0000000          :
          :  -> integral cutoff          0.2500000E+02      :
          :  -> integral neglect         0.1000000E-07      :
          :  -> SCF convergence          0.1000000E-05 Eh   :
          :  -> wf. convergence          0.1000000E-03 e    :
          :  Broyden damping             0.4000000          :
          ...................................................

 iter      E             dE          RMSdq      gap      omega  full diag
   1    -49.8437627 -0.498438E+02  0.399E+00    3.38       0.0  T
   2    -49.9311757 -0.874129E-01  0.230E+00    2.85       1.0  T
   3    -49.9312304 -0.547841E-04  0.956E-01    1.96       1.0  T
   4    -49.9362611 -0.503069E-02  0.413E-01    2.16       1.0  T
   5    -49.9397384 -0.347725E-02  0.864E-02    2.13       1.0  T
   6    -49.9397913 -0.529510E-04  0.382E-02    2.17       1.0  T
   7    -49.9397988 -0.747516E-05  0.191E-02    2.18       1.0  T
   8    -49.9398029 -0.407428E-05  0.670E-03    2.18       2.5  T
   9    -49.9398031 -0.217737E-06  0.246E-03    2.18       6.8  T
  10    -49.9398032 -0.101501E-06  0.109E-03    2.18      15.4  T
  11    -49.9398032 -0.347149E-08  0.388E-04    2.18      43.0  T
  12    -49.9398032 -0.127525E-08  0.129E-04    2.18     129.4  T

   *** convergence criteria satisfied after 12 iterations ***

         #    Occupation            Energy/Eh            Energy/eV
      -------------------------------------------------------------
         1        2.0000           -0.6845385             -18.6272
       ...           ...                  ...                  ...
        38        2.0000           -0.4289656             -11.6727
        39        2.0000           -0.4251403             -11.5687
        40        2.0000           -0.4201653             -11.4333
        41        2.0000           -0.4182077             -11.3800
        42        2.0000           -0.4031871             -10.9713
        43        2.0000           -0.3901110             -10.6155
        44        2.0000           -0.3805965             -10.3566 (HOMO)
        45                         -0.3003927              -8.1741 (LUMO)
        46                         -0.2423016              -6.5934
        47                         -0.2123871              -5.7793
        48                         -0.1081703              -2.9435
        49                         -0.0352360              -0.9588
       ...                                ...                  ...
        81                          0.6155516              16.7500
      -------------------------------------------------------------
                  HL-Gap            0.0802038 Eh            2.1825 eV
             Fermi-level           -0.3404946 Eh           -9.2653 eV

 SCC (total)                   0 d,  0 h,  0 min,  0.151 sec
 SCC setup                      ...        0 min,  0.006 sec (  3.771%)
 Dispersion                     ...        0 min,  0.006 sec (  4.231%)
 classical contributions        ...        0 min,  0.006 sec (  4.050%)
 integral evaluation            ...        0 min,  0.016 sec ( 10.354%)
 iterations                     ...        0 min,  0.051 sec ( 34.067%)
 molecular gradient             ...        0 min,  0.065 sec ( 43.136%)
 printout                       ...        0 min,  0.001 sec (  0.372%)

         :::::::::::::::::::::::::::::::::::::::::::::::::::::
         ::                     SUMMARY                     ::
         :::::::::::::::::::::::::::::::::::::::::::::::::::::
         :: total energy             -49.338386668221 Eh    ::
         :: total w/o Gsasa/hb       -49.319747418351 Eh    ::
         :: gradient norm              0.049956945579 Eh/a0 ::
         :: HOMO-LUMO gap              2.182456686309 eV    ::
         ::.................................................::
         :: SCC energy               -49.939803206210 Eh    ::
         :: -> isotropic ES            0.179609956248 Eh    ::
         :: -> anisotropic ES         -0.023832572051 Eh    ::
         :: -> anisotropic XC          0.024426117322 Eh    ::
         :: -> dispersion             -0.028224823032 Eh    ::
         :: -> Gsolv                  -0.042581798715 Eh    ::
         ::    -> Gborn               -0.023942548845 Eh    ::
         ::    -> Gsasa               -0.023080079044 Eh    ::
         ::    -> Ghb                  0.000000000000 Eh    ::
         ::    -> Gshift               0.004440829173 Eh    ::
         :: repulsion energy           0.601212102606 Eh    ::
         :: add. restraining           0.000000000000 Eh    ::
         :: total charge              -0.000000000000 e     ::
         :::::::::::::::::::::::::::::::::::::::::::::::::::::

           -------------------------------------------------
          |                Property Printout                |
           -------------------------------------------------

    * Orbital Energies and Occupations

         #    Occupation            Energy/Eh            Energy/eV
      -------------------------------------------------------------
         1        2.0000           -0.6845385             -18.6272
       ...           ...                  ...                  ...
        32        2.0000           -0.4664716             -12.6933
        33        2.0000           -0.4515657             -12.2877
        34        2.0000           -0.4497056             -12.2371
        35        2.0000           -0.4431099             -12.0576
        36        2.0000           -0.4381118             -11.9216
        37        2.0000           -0.4373378             -11.9006
        38        2.0000           -0.4289656             -11.6727
        39        2.0000           -0.4251403             -11.5687
        40        2.0000           -0.4201653             -11.4333
        41        2.0000           -0.4182077             -11.3800
        42        2.0000           -0.4031871             -10.9713
        43        2.0000           -0.3901110             -10.6155
        44        2.0000           -0.3805965             -10.3566 (HOMO)
        45                         -0.3003927              -8.1741 (LUMO)
        46                         -0.2423016              -6.5934
        47                         -0.2123871              -5.7793
        48                         -0.1081703              -2.9435
        49                         -0.0352360              -0.9588
        50                          0.0139950               0.3808
        51                          0.0603333               1.6418
        52                          0.0770456               2.0965
        53                          0.0836731               2.2769
        54                          0.1026684               2.7937
        55                          0.1096527               2.9838
       ...                                ...                  ...
        81                          0.6155516              16.7500
      -------------------------------------------------------------
                  HL-Gap            0.0802038 Eh            2.1825 eV
             Fermi-level           -0.3404946 Eh           -9.2653 eV

     #   Z          covCN         q      C6AA      α(0)
     1   6 C        2.963     0.016    27.643     8.624
     2   6 C        2.910    -0.024    28.609     8.771
     3   6 C        2.908    -0.023    28.574     8.765
     4   6 C        2.909    -0.017    28.435     8.744
     5   6 C        2.907    -0.024    28.592     8.768
     6   6 C        2.916    -0.023    28.573     8.765
     7   6 C        2.837     0.092    25.941     8.347
     8   1 H        0.925     0.060     2.198     2.319
     9   1 H        0.925     0.058     2.225     2.333
    10   1 H        0.925     0.056     2.246     2.344
    11   7 N        2.679    -0.056    22.325     7.018
    12   6 C        3.739    -0.015    20.918     6.526
    13   1 H        0.858     0.248     0.890     1.478
    14   6 C        3.798    -0.068    21.804     6.649
    15   1 H        0.924     0.073     2.057     2.243
    16   1 H        0.923     0.077     2.007     2.216
    17   1 H        0.923     0.055     2.259     2.350
    18   1 H        0.923     0.055     2.259     2.350
    19   8 O        1.386    -0.704    28.167     7.145
    20   1 H        0.925     0.105     1.742     2.064
    21   1 H        0.804     0.240     0.933     1.517
    22   8 O        1.247    -0.795    31.029     7.485
    23   1 H        1.008     0.321     0.647     1.257
    24   1 H        0.804     0.218     1.030     1.594
    25   8 O        1.586    -0.658    26.639     6.965
    26   1 H        0.796     0.321     0.662     1.279
    27   1 H        0.804     0.267     0.829     1.430
    28   6 C        3.796    -0.054    21.551     6.610
    29   1 H        0.923     0.036     2.499     2.472
    30   1 H        0.923     0.040     2.455     2.450
    31   1 H        0.925     0.056     2.251     2.346
    32   1 H        0.925     0.054     2.272     2.357
    33   6 C        3.746    -0.103    22.548     6.773
    34   1 H        0.923     0.038     2.473     2.459
    35   1 H        0.923     0.039     2.458     2.452
    36   1 H        0.923     0.037     2.486     2.466

 Mol. C6AA /au·bohr⁶  :      10851.137112
 Mol. C8AA /au·bohr⁸  :     239950.403729
 Mol. α(0) /au        :        159.730403


Wiberg/Mayer (AO) data.
largest (>0.10) Wiberg bond orders for each atom

 ---------------------------------------------------------------------------
     #   Z sym  total        # sym  WBO       # sym  WBO       # sym  WBO
 ---------------------------------------------------------------------------
     1   6 C    3.984 --     6 C    1.358     2 C    1.357     7 C    1.110
     2   6 C    3.988 --     3 C    1.464     1 C    1.357     8 H    0.959
                             5 C    0.104
     3   6 C    3.990 --     2 C    1.464     4 C    1.423    32 H    0.969
                             6 C    0.103
     4   6 C    3.985 --     5 C    1.428     3 C    1.423    10 H    0.970
     5   6 C    3.989 --     6 C    1.461     4 C    1.428    31 H    0.969
                             2 C    0.104
     6   6 C    3.984 --     5 C    1.461     1 C    1.358     9 H    0.966
                             3 C    0.103
     7   6 C    3.927 --    11 N    1.573     1 C    1.110    20 H    0.948
                            19 O    0.177
     8   1 H    0.996 --     2 C    0.959
     9   1 H    0.997 --     6 C    0.966
    10   1 H    0.996 --     4 C    0.970
    11   7 N    3.631 --     7 C    1.573    12 C    0.982    13 H    0.845
    12   6 C    3.951 --    14 C    0.995    11 N    0.982    15 H    0.969
                            16 H    0.953
    13   1 H    0.938 --    11 N    0.845
    14   6 C    3.988 --    28 C    1.005    12 C    0.995    18 H    0.975
                            17 H    0.974
    15   1 H    0.995 --    12 C    0.969
    16   1 H    0.991 --    12 C    0.953
    17   1 H    0.997 --    14 C    0.974
    18   1 H    0.997 --    14 C    0.975
    19   8 O    1.851 --    21 H    0.938    23 H    0.488     7 C    0.177
                            22 O    0.111
    20   1 H    0.988 --     7 C    0.948
    21   1 H    0.942 --    19 O    0.938
    22   8 O    1.680 --    24 H    0.948    23 H    0.404    26 H    0.151
                            19 O    0.111
    23   1 H    0.897 --    19 O    0.488    22 O    0.404
    24   1 H    0.952 --    22 O    0.948
    25   8 O    1.825 --    27 H    0.922    26 H    0.742
    26   1 H    0.897 --    25 O    0.742    22 O    0.151
    27   1 H    0.928 --    25 O    0.922
    28   6 C    3.994 --    33 C    1.019    14 C    1.005    29 H    0.978
                            30 H    0.978
    29   1 H    0.999 --    28 C    0.978
    30   1 H    0.998 --    28 C    0.978
    31   1 H    0.996 --     5 C    0.969
    32   1 H    0.997 --     3 C    0.969
    33   6 C    3.995 --    28 C    1.019    36 H    0.988    35 H    0.987
                            34 H    0.987
    34   1 H    0.998 --    33 C    0.987
    35   1 H    0.998 --    33 C    0.987
    36   1 H    0.999 --    33 C    0.988
 ---------------------------------------------------------------------------

Topologies differ in total number of bonds
Writing topology from bond orders to xtbtopo.mol

molecular dipole:
                 x           y           z       tot (Debye)
 q only:        0.295      -2.884       1.391
   full:        0.482      -2.321       1.329       6.907
molecular quadrupole (traceless):
                xx          xy          yy          xz          yz          zz
 q only:       12.264      44.856     -21.085      -8.012      25.062       8.821
  q+dip:        6.719      33.478     -16.711      -9.582      24.355       9.992
   full:        5.608      35.267     -14.897      -9.605      22.459       9.289


           -------------------------------------------------
          | TOTAL ENERGY              -49.338386668221 Eh   |
          | GRADIENT NORM               0.049956945579 Eh/α |
          | HOMO-LUMO GAP               2.182456686309 eV   |
           -------------------------------------------------

------------------------------------------------------------------------
 * finished run on 2020/08/20 at 02:20:38.061     
------------------------------------------------------------------------
 total:
 * wall-time:     0 d,  0 h,  0 min,  0.232 sec
 *  cpu-time:     0 d,  0 h,  0 min,  2.675 sec
 * ratio c/w:    11.556 speedup
 SCF:
 * wall-time:     0 d,  0 h,  0 min,  0.160 sec
 *  cpu-time:     0 d,  0 h,  0 min,  1.861 sec
 * ratio c/w:    11.635 speedup


-------------------------   --------------------
FINAL SINGLE POINT ENERGY       -49.338386668220
-------------------------   --------------------


----------------------------------------------------------------------------
                           ORCA NUMERICAL FREQUENCIES
                              (9-process run)
----------------------------------------------------------------------------

Number of atoms                ... 36
Central differences            ... used
Number of displacements        ... 216
Numerical increment            ... 5.000e-03 bohr
IR-spectrum generation         ... on
Raman-spectrum generation      ... off
Surface Crossing Hessian       ... off
List of participating nodes    ...  /tmp/slurm-scratch/freq.388/freq.hostnames

The output will be reduced. Please look at the following files:
SCF program output             ... >/tmp/slurm-scratch/freq.388/freq.lastscf
Integral program output        ... >/tmp/slurm-scratch/freq.388/freq.lastint
Gradient program output        ... >/tmp/slurm-scratch/freq.388/freq.lastgrad
Dipole moment program output   ... >/tmp/slurm-scratch/freq.388/freq.lastmom
AutoCI program output          ... >/tmp/slurm-scratch/freq.388/freq.lastautoci


         <<< Energy and Gradient at the input geometry >>>

        <<< Energy and Gradient at displaced geometries >>>
             <<<Displacing   3/coordinate 2 (+)>>>
             <<<Displacing   1/coordinate 3 (+)>>>
             <<<Displacing   2/coordinate 2 (+)>>>
             <<<Displacing   1/coordinate 3 (-)>>>
             <<<Displacing   2/coordinate 2 (-)>>>
             <<<Displacing   1/coordinate 2 (+)>>>
             <<<Displacing   3/coordinate 2 (-)>>>
             <<<Displacing   2/coordinate 1 (+)>>>
             <<<Displacing   1/coordinate 1 (+)>>>
             <<<Displacing   1/coordinate 2 (-)>>>
             <<<Displacing   2/coordinate 1 (-)>>>
             <<<Displacing   3/coordinate 3 (+)>>>
             <<<Displacing   3/coordinate 1 (+)>>>
             <<<Displacing   1/coordinate 1 (-)>>>
             <<<Displacing   2/coordinate 3 (+)>>>
             <<<Displacing   3/coordinate 3 (-)>>>
             <<<Displacing   2/coordinate 3 (-)>>>
             <<<Displacing   3/coordinate 1 (-)>>>
             <<<Displacing   5/coordinate 2 (+)>>>
             <<<Displacing   5/coordinate 3 (+)>>>
             <<<Displacing   4/coordinate 2 (+)>>>
             <<<Displacing   5/coordinate 3 (-)>>>
             <<<Displacing   4/coordinate 2 (-)>>>
             <<<Displacing   5/coordinate 2 (-)>>>
             <<<Displacing   4/coordinate 1 (+)>>>
             <<<Displacing   4/coordinate 3 (+)>>>
             <<<Displacing   5/coordinate 1 (+)>>>
             <<<Displacing   6/coordinate 2 (+)>>>
             <<<Displacing   4/coordinate 1 (-)>>>
             <<<Displacing   4/coordinate 3 (-)>>>
             <<<Displacing   5/coordinate 1 (-)>>>
             <<<Displacing   6/coordinate 2 (-)>>>
             <<<Displacing   6/coordinate 1 (+)>>>
             <<<Displacing   6/coordinate 1 (-)>>>
             <<<Displacing   6/coordinate 3 (+)>>>
             <<<Displacing   6/coordinate 3 (-)>>>
             <<<Displacing   7/coordinate 2 (+)>>>
             <<<Displacing   7/coordinate 2 (-)>>>
             <<<Displacing   7/coordinate 1 (+)>>>
             <<<Displacing   9/coordinate 1 (+)>>>
             <<<Displacing   7/coordinate 1 (-)>>>
             <<<Displacing   9/coordinate 1 (-)>>>
             <<<Displacing   7/coordinate 3 (+)>>>
             <<<Displacing   8/coordinate 3 (+)>>>
             <<<Displacing   8/coordinate 1 (+)>>>
             <<<Displacing   7/coordinate 3 (-)>>>
             <<<Displacing   8/coordinate 3 (-)>>>
             <<<Displacing   8/coordinate 1 (-)>>>
             <<<Displacing   8/coordinate 2 (+)>>>
             <<<Displacing   9/coordinate 2 (+)>>>
             <<<Displacing   9/coordinate 2 (-)>>>
             <<<Displacing   8/coordinate 2 (-)>>>
             <<<Displacing   9/coordinate 3 (+)>>>
             <<<Displacing   9/coordinate 3 (-)>>>
             <<<Displacing  10/coordinate 1 (+)>>>
             <<<Displacing  10/coordinate 2 (+)>>>
             <<<Displacing  10/coordinate 1 (-)>>>
             <<<Displacing  10/coordinate 2 (-)>>>
             <<<Displacing  11/coordinate 1 (+)>>>
             <<<Displacing  11/coordinate 2 (+)>>>
             <<<Displacing  10/coordinate 3 (+)>>>
             <<<Displacing  11/coordinate 1 (-)>>>
             <<<Displacing  11/coordinate 3 (+)>>>
             <<<Displacing  10/coordinate 3 (-)>>>
             <<<Displacing  11/coordinate 2 (-)>>>
             <<<Displacing  11/coordinate 3 (-)>>>
             <<<Displacing  12/coordinate 2 (+)>>>
             <<<Displacing  12/coordinate 1 (+)>>>
             <<<Displacing  12/coordinate 2 (-)>>>
             <<<Displacing  12/coordinate 1 (-)>>>
             <<<Displacing  12/coordinate 3 (+)>>>
             <<<Displacing  12/coordinate 3 (-)>>>
             <<<Displacing  13/coordinate 2 (+)>>>
             <<<Displacing  13/coordinate 1 (+)>>>
             <<<Displacing  13/coordinate 1 (-)>>>
             <<<Displacing  13/coordinate 2 (-)>>>
             <<<Displacing  13/coordinate 3 (+)>>>
             <<<Displacing  14/coordinate 2 (+)>>>
             <<<Displacing  14/coordinate 1 (+)>>>
             <<<Displacing  13/coordinate 3 (-)>>>
             <<<Displacing  14/coordinate 2 (-)>>>
             <<<Displacing  14/coordinate 1 (-)>>>
             <<<Displacing  15/coordinate 1 (+)>>>
             <<<Displacing  15/coordinate 1 (-)>>>
             <<<Displacing  14/coordinate 3 (+)>>>
             <<<Displacing  14/coordinate 3 (-)>>>
             <<<Displacing  15/coordinate 2 (+)>>>
             <<<Displacing  15/coordinate 2 (-)>>>
             <<<Displacing  15/coordinate 3 (+)>>>
             <<<Displacing  15/coordinate 3 (-)>>>
             <<<Displacing  16/coordinate 3 (+)>>>
             <<<Displacing  16/coordinate 2 (+)>>>
             <<<Displacing  16/coordinate 2 (-)>>>
             <<<Displacing  16/coordinate 3 (-)>>>
             <<<Displacing  16/coordinate 1 (+)>>>
             <<<Displacing  17/coordinate 2 (+)>>>
             <<<Displacing  16/coordinate 1 (-)>>>
             <<<Displacing  17/coordinate 1 (+)>>>
             <<<Displacing  17/coordinate 2 (-)>>>
             <<<Displacing  17/coordinate 1 (-)>>>
             <<<Displacing  17/coordinate 3 (+)>>>
             <<<Displacing  17/coordinate 3 (-)>>>
             <<<Displacing  18/coordinate 1 (+)>>>
             <<<Displacing  18/coordinate 1 (-)>>>
             <<<Displacing  18/coordinate 2 (+)>>>
             <<<Displacing  18/coordinate 2 (-)>>>
             <<<Displacing  18/coordinate 3 (+)>>>
             <<<Displacing  18/coordinate 3 (-)>>>
             <<<Displacing  19/coordinate 1 (+)>>>
             <<<Displacing  20/coordinate 1 (+)>>>
             <<<Displacing  19/coordinate 3 (+)>>>
             <<<Displacing  19/coordinate 1 (-)>>>
             <<<Displacing  19/coordinate 2 (+)>>>
             <<<Displacing  20/coordinate 1 (-)>>>
             <<<Displacing  20/coordinate 2 (+)>>>
             <<<Displacing  19/coordinate 3 (-)>>>
             <<<Displacing  19/coordinate 2 (-)>>>
             <<<Displacing  20/coordinate 2 (-)>>>
             <<<Displacing  20/coordinate 3 (+)>>>
             <<<Displacing  20/coordinate 3 (-)>>>
             <<<Displacing  21/coordinate 1 (+)>>>
             <<<Displacing  21/coordinate 2 (+)>>>
             <<<Displacing  21/coordinate 1 (-)>>>
             <<<Displacing  21/coordinate 2 (-)>>>
             <<<Displacing  21/coordinate 3 (+)>>>
             <<<Displacing  21/coordinate 3 (-)>>>
             <<<Displacing  22/coordinate 2 (+)>>>
             <<<Displacing  22/coordinate 1 (+)>>>
             <<<Displacing  22/coordinate 2 (-)>>>
             <<<Displacing  22/coordinate 1 (-)>>>
             <<<Displacing  22/coordinate 3 (+)>>>
             <<<Displacing  23/coordinate 1 (+)>>>
             <<<Displacing  22/coordinate 3 (-)>>>
             <<<Displacing  23/coordinate 1 (-)>>>
             <<<Displacing  23/coordinate 2 (+)>>>
             <<<Displacing  24/coordinate 1 (+)>>>
             <<<Displacing  23/coordinate 2 (-)>>>
             <<<Displacing  24/coordinate 1 (-)>>>
             <<<Displacing  23/coordinate 3 (+)>>>
             <<<Displacing  24/coordinate 2 (+)>>>
             <<<Displacing  23/coordinate 3 (-)>>>
             <<<Displacing  24/coordinate 2 (-)>>>
             <<<Displacing  24/coordinate 3 (+)>>>
             <<<Displacing  24/coordinate 3 (-)>>>
             <<<Displacing  25/coordinate 2 (+)>>>
             <<<Displacing  25/coordinate 1 (+)>>>
             <<<Displacing  25/coordinate 1 (-)>>>
             <<<Displacing  25/coordinate 2 (-)>>>
             <<<Displacing  26/coordinate 1 (+)>>>
             <<<Displacing  25/coordinate 3 (+)>>>
             <<<Displacing  25/coordinate 3 (-)>>>
             <<<Displacing  26/coordinate 1 (-)>>>
             <<<Displacing  26/coordinate 2 (+)>>>
             <<<Displacing  26/coordinate 3 (+)>>>
             <<<Displacing  26/coordinate 2 (-)>>>
             <<<Displacing  26/coordinate 3 (-)>>>
             <<<Displacing  27/coordinate 1 (+)>>>
             <<<Displacing  27/coordinate 2 (+)>>>
             <<<Displacing  27/coordinate 1 (-)>>>
             <<<Displacing  27/coordinate 2 (-)>>>
             <<<Displacing  27/coordinate 3 (+)>>>
             <<<Displacing  27/coordinate 3 (-)>>>
             <<<Displacing  28/coordinate 1 (+)>>>
             <<<Displacing  28/coordinate 1 (-)>>>
             <<<Displacing  28/coordinate 2 (+)>>>
             <<<Displacing  28/coordinate 2 (-)>>>
             <<<Displacing  29/coordinate 1 (+)>>>
             <<<Displacing  28/coordinate 3 (+)>>>
             <<<Displacing  28/coordinate 3 (-)>>>
             <<<Displacing  29/coordinate 2 (+)>>>
             <<<Displacing  29/coordinate 1 (-)>>>
             <<<Displacing  29/coordinate 2 (-)>>>
             <<<Displacing  29/coordinate 3 (+)>>>
             <<<Displacing  29/coordinate 3 (-)>>>
             <<<Displacing  30/coordinate 1 (+)>>>
             <<<Displacing  30/coordinate 2 (+)>>>
             <<<Displacing  30/coordinate 2 (-)>>>
             <<<Displacing  30/coordinate 1 (-)>>>
             <<<Displacing  30/coordinate 3 (+)>>>
             <<<Displacing  30/coordinate 3 (-)>>>
             <<<Displacing  31/coordinate 3 (+)>>>
             <<<Displacing  31/coordinate 1 (+)>>>
             <<<Displacing  31/coordinate 1 (-)>>>
             <<<Displacing  31/coordinate 2 (+)>>>
             <<<Displacing  31/coordinate 3 (-)>>>
             <<<Displacing  31/coordinate 2 (-)>>>
             <<<Displacing  32/coordinate 1 (+)>>>
             <<<Displacing  32/coordinate 2 (+)>>>
             <<<Displacing  32/coordinate 1 (-)>>>
             <<<Displacing  32/coordinate 2 (-)>>>
             <<<Displacing  33/coordinate 1 (+)>>>
             <<<Displacing  32/coordinate 3 (+)>>>
             <<<Displacing  33/coordinate 2 (+)>>>
             <<<Displacing  33/coordinate 1 (-)>>>
             <<<Displacing  32/coordinate 3 (-)>>>
             <<<Displacing  33/coordinate 2 (-)>>>
             <<<Displacing  33/coordinate 3 (+)>>>
             <<<Displacing  33/coordinate 3 (-)>>>
             <<<Displacing  34/coordinate 1 (+)>>>
             <<<Displacing  34/coordinate 2 (+)>>>
             <<<Displacing  34/coordinate 1 (-)>>>
             <<<Displacing  34/coordinate 3 (+)>>>
             <<<Displacing  34/coordinate 2 (-)>>>
             <<<Displacing  34/coordinate 3 (-)>>>
             <<<Displacing  35/coordinate 2 (+)>>>
             <<<Displacing  35/coordinate 1 (+)>>>
             <<<Displacing  35/coordinate 1 (-)>>>
             <<<Displacing  35/coordinate 2 (-)>>>
             <<<Displacing  36/coordinate 1 (+)>>>
             <<<Displacing  35/coordinate 3 (+)>>>
             <<<Displacing  35/coordinate 3 (-)>>>
             <<<Displacing  36/coordinate 1 (-)>>>
             <<<Displacing  36/coordinate 2 (+)>>>
             <<<Displacing  36/coordinate 2 (-)>>>
             <<<Displacing  36/coordinate 3 (+)>>>
             <<<Displacing  36/coordinate 3 (-)>>>

-----------------------
VIBRATIONAL FREQUENCIES
-----------------------

Scaling factor for frequencies =  1.000000000 (already applied!)

   0:         0.00 cm**-1
   1:         0.00 cm**-1
   2:         0.00 cm**-1
   3:         0.00 cm**-1
   4:         0.00 cm**-1
   5:         0.00 cm**-1
   6:      -662.94 cm**-1 ***imaginary mode***
   7:        55.13 cm**-1
   8:        69.39 cm**-1
   9:        87.77 cm**-1
  10:        94.58 cm**-1
  11:        98.87 cm**-1
  12:       109.49 cm**-1
  13:       135.02 cm**-1
  14:       144.04 cm**-1
  15:       159.53 cm**-1
  16:       176.87 cm**-1
  17:       180.32 cm**-1
  18:       190.86 cm**-1
  19:       200.09 cm**-1
  20:       255.78 cm**-1
  21:       280.18 cm**-1
  22:       350.00 cm**-1
  23:       357.18 cm**-1
  24:       382.81 cm**-1
  25:       398.04 cm**-1
  26:       430.37 cm**-1
  27:       469.86 cm**-1
  28:       498.43 cm**-1
  29:       500.26 cm**-1
  30:       531.21 cm**-1
  31:       546.55 cm**-1
  32:       588.95 cm**-1
  33:       598.66 cm**-1
  34:       615.33 cm**-1
  35:       631.77 cm**-1
  36:       675.22 cm**-1
  37:       715.59 cm**-1
  38:       763.90 cm**-1
  39:       788.29 cm**-1
  40:       798.26 cm**-1
  41:       825.68 cm**-1
  42:       835.28 cm**-1
  43:       848.76 cm**-1
  44:       859.02 cm**-1
  45:       896.59 cm**-1
  46:       932.20 cm**-1
  47:       943.73 cm**-1
  48:       952.24 cm**-1
  49:       959.24 cm**-1
  50:       960.54 cm**-1
  51:       973.86 cm**-1
  52:       977.40 cm**-1
  53:      1017.31 cm**-1
  54:      1048.01 cm**-1
  55:      1059.96 cm**-1
  56:      1080.03 cm**-1
  57:      1109.02 cm**-1
  58:      1114.07 cm**-1
  59:      1123.62 cm**-1
  60:      1130.16 cm**-1
  61:      1178.68 cm**-1
  62:      1184.99 cm**-1
  63:      1205.95 cm**-1
  64:      1211.88 cm**-1
  65:      1252.50 cm**-1
  66:      1258.83 cm**-1
  67:      1260.66 cm**-1
  68:      1278.78 cm**-1
  69:      1283.49 cm**-1
  70:      1302.23 cm**-1
  71:      1306.57 cm**-1
  72:      1323.70 cm**-1
  73:      1344.37 cm**-1
  74:      1370.63 cm**-1
  75:      1405.11 cm**-1
  76:      1433.75 cm**-1
  77:      1437.63 cm**-1
  78:      1454.66 cm**-1
  79:      1484.37 cm**-1
  80:      1498.37 cm**-1
  81:      1505.94 cm**-1
  82:      1511.35 cm**-1
  83:      1515.35 cm**-1
  84:      1524.09 cm**-1
  85:      1528.93 cm**-1
  86:      1549.98 cm**-1
  87:      1559.51 cm**-1
  88:      2139.33 cm**-1
  89:      2877.71 cm**-1
  90:      2894.73 cm**-1
  91:      2900.50 cm**-1
  92:      2905.14 cm**-1
  93:      2910.17 cm**-1
  94:      2913.61 cm**-1
  95:      2915.70 cm**-1
  96:      2922.11 cm**-1
  97:      2933.50 cm**-1
  98:      2950.20 cm**-1
  99:      2990.49 cm**-1
 100:      2992.69 cm**-1
 101:      2999.40 cm**-1
 102:      3007.67 cm**-1
 103:      3019.59 cm**-1
 104:      3028.97 cm**-1
 105:      3443.90 cm**-1
 106:      3448.54 cm**-1
 107:      3468.03 cm**-1


------------
NORMAL MODES
------------

These modes are the cartesian displacements weighted by the diagonal matrix
M(i,i)=1/sqrt(m[i]) where m[i] is the mass of the displaced atom
Thus, these vectors are normalized but *not* orthogonal

                  0          1          2          3          4          5    
      0       0.000000   0.000000   0.000000   0.000000   0.000000   0.000000
      1       0.000000   0.000000   0.000000   0.000000   0.000000   0.000000
      2       0.000000   0.000000   0.000000   0.000000   0.000000   0.000000
      3       0.000000   0.000000   0.000000   0.000000   0.000000   0.000000
      4       0.000000   0.000000   0.000000   0.000000   0.000000   0.000000
      5       0.000000   0.000000   0.000000   0.000000   0.000000   0.000000
      6       0.000000   0.000000   0.000000   0.000000   0.000000   0.000000
      7       0.000000   0.000000   0.000000   0.000000   0.000000   0.000000
      8       0.000000   0.000000   0.000000   0.000000   0.000000   0.000000
      9       0.000000   0.000000   0.000000   0.000000   0.000000   0.000000
     10       0.000000   0.000000   0.000000   0.000000   0.000000   0.000000
     11       0.000000   0.000000   0.000000   0.000000   0.000000   0.000000
     12       0.000000   0.000000   0.000000   0.000000   0.000000   0.000000
     13       0.000000   0.000000   0.000000   0.000000   0.000000   0.000000
     14       0.000000   0.000000   0.000000   0.000000   0.000000   0.000000
     15       0.000000   0.000000   0.000000   0.000000   0.000000   0.000000
     16       0.000000   0.000000   0.000000   0.000000   0.000000   0.000000
     17       0.000000   0.000000   0.000000   0.000000   0.000000   0.000000
     18       0.000000   0.000000   0.000000   0.000000   0.000000   0.000000
     19       0.000000   0.000000   0.000000   0.000000   0.000000   0.000000
     20       0.000000   0.000000   0.000000   0.000000   0.000000   0.000000
     21       0.000000   0.000000   0.000000   0.000000   0.000000   0.000000
     22       0.000000   0.000000   0.000000   0.000000   0.000000   0.000000
     23       0.000000   0.000000   0.000000   0.000000   0.000000   0.000000
     24       0.000000   0.000000   0.000000   0.000000   0.000000   0.000000
     25       0.000000   0.000000   0.000000   0.000000   0.000000   0.000000
     26       0.000000   0.000000   0.000000   0.000000   0.000000   0.000000
     27       0.000000   0.000000   0.000000   0.000000   0.000000   0.000000
     28       0.000000   0.000000   0.000000   0.000000   0.000000   0.000000
     29       0.000000   0.000000   0.000000   0.000000   0.000000   0.000000
     30       0.000000   0.000000   0.000000   0.000000   0.000000   0.000000
     31       0.000000   0.000000   0.000000   0.000000   0.000000   0.000000
     32       0.000000   0.000000   0.000000   0.000000   0.000000   0.000000
     33       0.000000   0.000000   0.000000   0.000000   0.000000   0.000000
     34       0.000000   0.000000   0.000000   0.000000   0.000000   0.000000
     35       0.000000   0.000000   0.000000   0.000000   0.000000   0.000000
     36       0.000000   0.000000   0.000000   0.000000   0.000000   0.000000
     37       0.000000   0.000000   0.000000   0.000000   0.000000   0.000000
     38       0.000000   0.000000   0.000000   0.000000   0.000000   0.000000
     39       0.000000   0.000000   0.000000   0.000000   0.000000   0.000000
     40       0.000000   0.000000   0.000000   0.000000   0.000000   0.000000
     41       0.000000   0.000000   0.000000   0.000000   0.000000   0.000000
     42       0.000000   0.000000   0.000000   0.000000   0.000000   0.000000
     43       0.000000   0.000000   0.000000   0.000000   0.000000   0.000000
     44       0.000000   0.000000   0.000000   0.000000   0.000000   0.000000
     45       0.000000   0.000000   0.000000   0.000000   0.000000   0.000000
     46       0.000000   0.000000   0.000000   0.000000   0.000000   0.000000
     47       0.000000   0.000000   0.000000   0.000000   0.000000   0.000000
     48       0.000000   0.000000   0.000000   0.000000   0.000000   0.000000
     49       0.000000   0.000000   0.000000   0.000000   0.000000   0.000000
     50       0.000000   0.000000   0.000000   0.000000   0.000000   0.000000
     51       0.000000   0.000000   0.000000   0.000000   0.000000   0.000000
     52       0.000000   0.000000   0.000000   0.000000   0.000000   0.000000
     53       0.000000   0.000000   0.000000   0.000000   0.000000   0.000000
     54       0.000000   0.000000   0.000000   0.000000   0.000000   0.000000
     55       0.000000   0.000000   0.000000   0.000000   0.000000   0.000000
     56       0.000000   0.000000   0.000000   0.000000   0.000000   0.000000
     57       0.000000   0.000000   0.000000   0.000000   0.000000   0.000000
     58       0.000000   0.000000   0.000000   0.000000   0.000000   0.000000
     59       0.000000   0.000000   0.000000   0.000000   0.000000   0.000000
     60       0.000000   0.000000   0.000000   0.000000   0.000000   0.000000
     61       0.000000   0.000000   0.000000   0.000000   0.000000   0.000000
     62       0.000000   0.000000   0.000000   0.000000   0.000000   0.000000
     63       0.000000   0.000000   0.000000   0.000000   0.000000   0.000000
     64       0.000000   0.000000   0.000000   0.000000   0.000000   0.000000
     65       0.000000   0.000000   0.000000   0.000000   0.000000   0.000000
     66       0.000000   0.000000   0.000000   0.000000   0.000000   0.000000
     67       0.000000   0.000000   0.000000   0.000000   0.000000   0.000000
     68       0.000000   0.000000   0.000000   0.000000   0.000000   0.000000
     69       0.000000   0.000000   0.000000   0.000000   0.000000   0.000000
     70       0.000000   0.000000   0.000000   0.000000   0.000000   0.000000
     71       0.000000   0.000000   0.000000   0.000000   0.000000   0.000000
     72       0.000000   0.000000   0.000000   0.000000   0.000000   0.000000
     73       0.000000   0.000000   0.000000   0.000000   0.000000   0.000000
     74       0.000000   0.000000   0.000000   0.000000   0.000000   0.000000
     75       0.000000   0.000000   0.000000   0.000000   0.000000   0.000000
     76       0.000000   0.000000   0.000000   0.000000   0.000000   0.000000
     77       0.000000   0.000000   0.000000   0.000000   0.000000   0.000000
     78       0.000000   0.000000   0.000000   0.000000   0.000000   0.000000
     79       0.000000   0.000000   0.000000   0.000000   0.000000   0.000000
     80       0.000000   0.000000   0.000000   0.000000   0.000000   0.000000
     81       0.000000   0.000000   0.000000   0.000000   0.000000   0.000000
     82       0.000000   0.000000   0.000000   0.000000   0.000000   0.000000
     83       0.000000   0.000000   0.000000   0.000000   0.000000   0.000000
     84       0.000000   0.000000   0.000000   0.000000   0.000000   0.000000
     85       0.000000   0.000000   0.000000   0.000000   0.000000   0.000000
     86       0.000000   0.000000   0.000000   0.000000   0.000000   0.000000
     87       0.000000   0.000000   0.000000   0.000000   0.000000   0.000000
     88       0.000000   0.000000   0.000000   0.000000   0.000000   0.000000
     89       0.000000   0.000000   0.000000   0.000000   0.000000   0.000000
     90       0.000000   0.000000   0.000000   0.000000   0.000000   0.000000
     91       0.000000   0.000000   0.000000   0.000000   0.000000   0.000000
     92       0.000000   0.000000   0.000000   0.000000   0.000000   0.000000
     93       0.000000   0.000000   0.000000   0.000000   0.000000   0.000000
     94       0.000000   0.000000   0.000000   0.000000   0.000000   0.000000
     95       0.000000   0.000000   0.000000   0.000000   0.000000   0.000000
     96       0.000000   0.000000   0.000000   0.000000   0.000000   0.000000
     97       0.000000   0.000000   0.000000   0.000000   0.000000   0.000000
     98       0.000000   0.000000   0.000000   0.000000   0.000000   0.000000
     99       0.000000   0.000000   0.000000   0.000000   0.000000   0.000000
    100       0.000000   0.000000   0.000000   0.000000   0.000000   0.000000
    101       0.000000   0.000000   0.000000   0.000000   0.000000   0.000000
    102       0.000000   0.000000   0.000000   0.000000   0.000000   0.000000
    103       0.000000   0.000000   0.000000   0.000000   0.000000   0.000000
    104       0.000000   0.000000   0.000000   0.000000   0.000000   0.000000
    105       0.000000   0.000000   0.000000   0.000000   0.000000   0.000000
    106       0.000000   0.000000   0.000000   0.000000   0.000000   0.000000
    107       0.000000   0.000000   0.000000   0.000000   0.000000   0.000000
                  6          7          8          9         10         11    
      0      -0.008140  -0.062561   0.032207  -0.021899   0.019436   0.000292
      1      -0.010384  -0.002338  -0.000222  -0.018074  -0.031445  -0.009275
      2       0.005490  -0.030898   0.013522   0.064139   0.043689   0.024635
      3      -0.004220  -0.054755   0.039731   0.045877   0.080019  -0.069802
      4       0.001072  -0.024237  -0.052052   0.021356   0.032302  -0.189657
      5       0.004680  -0.014601   0.048038   0.074895   0.032704   0.098062
      6      -0.001453  -0.049473   0.034602   0.105970   0.135296  -0.084050
      7       0.002743  -0.053600  -0.149656   0.036477   0.073990  -0.177969
      8       0.000271  -0.011808   0.074821   0.028647  -0.014892   0.105637
      9      -0.000252  -0.052365   0.021274   0.101405   0.130634  -0.026706
     10      -0.000622  -0.063602  -0.197608   0.016495   0.056079   0.015697
     11      -0.001891  -0.024954   0.067174  -0.028283  -0.054894   0.041574
     12       0.000138  -0.061737   0.011465   0.036964   0.072888   0.044760
     13      -0.000105  -0.048136  -0.153137  -0.017922  -0.003397   0.196950
     14      -0.003603  -0.039064   0.035710  -0.040567  -0.048307  -0.031064
     15       0.000159  -0.067153   0.016009  -0.023712   0.017494   0.057541
     16      -0.001571  -0.019269  -0.057664  -0.035622  -0.045251   0.183074
     17      -0.003075  -0.041837   0.009304   0.006085   0.000288  -0.036770
     18      -0.042346  -0.069235   0.026015  -0.080520  -0.024598   0.015682
     19      -0.078705   0.030271   0.077510  -0.029438  -0.051592  -0.035048
     20       0.060551  -0.033995  -0.002751   0.107826   0.070003   0.020420
     21      -0.002831  -0.052151   0.049152   0.049084   0.083970  -0.114367
     22       0.007697  -0.017171  -0.016628   0.034199   0.049143  -0.333705
     23      -0.002152  -0.004133   0.052355   0.116696   0.055459   0.153566
     24      -0.001584  -0.074322   0.007627  -0.072053  -0.024240   0.107148
     25      -0.006150  -0.007393  -0.025871  -0.060748  -0.088196   0.309157
     26       0.000235  -0.052437  -0.013551  -0.002916   0.004897  -0.086737
     27      -0.002134  -0.047157   0.018669   0.145436   0.169288  -0.038544
     28      -0.002138  -0.083033  -0.264677   0.026357   0.086832   0.022371
     29      -0.000590  -0.023883   0.085111  -0.061505  -0.089370   0.048253
     30       0.004298  -0.067611   0.026686  -0.078447  -0.034542   0.012120
     31       0.013659   0.060635   0.087507   0.022740  -0.109577  -0.073240
     32       0.000170  -0.033428   0.010112   0.125570   0.094482   0.019953
     33       0.005228  -0.080111   0.011656  -0.069330  -0.002581   0.023685
     34      -0.001852   0.027889   0.084877   0.084228  -0.113605  -0.084081
     35       0.003864  -0.016820   0.023173   0.099585   0.068426   0.015289
     36      -0.017589  -0.041581   0.022708  -0.046957  -0.047222   0.013255
     37       0.061435   0.087470   0.088190   0.039774  -0.043015  -0.051616
     38      -0.014678  -0.037432   0.007172   0.132072   0.034301   0.004042
     39       0.000571  -0.003757   0.055351  -0.042775  -0.046673  -0.014754
     40       0.000386  -0.078121   0.035744   0.004083  -0.076320  -0.031879
     41       0.002132   0.004514   0.058920  -0.012454  -0.001874   0.007290
     42       0.000392  -0.061649   0.010192  -0.042233   0.011876   0.020117
     43      -0.000226   0.085740   0.116174   0.166294  -0.138567  -0.122770
     44      -0.003132  -0.044082  -0.002624   0.061931   0.102111   0.042139
     45       0.003235  -0.165617  -0.036450  -0.093043   0.042783   0.065790
     46       0.009262   0.010617   0.080752   0.113904  -0.110533  -0.086083
     47       0.027069   0.004947   0.046714   0.171654   0.045170  -0.015965
     48       0.000410  -0.050031   0.044615  -0.125960  -0.053274   0.013860
     49       0.002708  -0.123630   0.022489  -0.061181  -0.074074  -0.015941
     50       0.000399  -0.001519   0.059405  -0.036444  -0.009676   0.020389
     51      -0.002819   0.079143   0.103909  -0.024133  -0.102442  -0.056021
     52      -0.001843  -0.041505   0.058731   0.003308  -0.105157  -0.056372
     53       0.000545   0.017836   0.070012  -0.026747  -0.019436  -0.011679
     54       0.011480  -0.008164  -0.030853  -0.070502  -0.188489  -0.056289
     55       0.069685   0.036837   0.126713  -0.094991  -0.050924  -0.025431
     56      -0.037705   0.011552   0.017012  -0.063445   0.231093  -0.044236
     57      -0.013521  -0.083827   0.015712  -0.118783  -0.033193   0.037510
     58      -0.003378   0.019766   0.100098  -0.052497  -0.080130  -0.016614
     59       0.013329  -0.035820  -0.026544   0.100612   0.083035   0.020958
     60       0.008617   0.027959  -0.067963  -0.075408  -0.152686  -0.049524
     61       0.101225  -0.023276   0.187694  -0.066824  -0.076663  -0.016632
     62      -0.040559  -0.017478   0.047317  -0.073456   0.181075  -0.063432
     63      -0.059677   0.192273  -0.172440  -0.084120   0.014241   0.006577
     64      -0.005223   0.221650   0.097498  -0.066452   0.255538   0.089592
     65       0.046735   0.094531  -0.250012  -0.162809   0.085875  -0.145356
     66       0.654438   0.085704  -0.104002  -0.084625  -0.040775  -0.039702
     67      -0.547407   0.119165   0.121794  -0.074818   0.045227   0.039532
     68      -0.286031   0.050285  -0.115149  -0.115676   0.129761  -0.095759
     69      -0.176751   0.177083  -0.149450  -0.106920   0.013596  -0.022057
     70       0.011701   0.227912   0.036640  -0.113355   0.219098   0.032688
     71       0.116670   0.105180  -0.292470  -0.174691   0.067418  -0.159644
     72       0.034028   0.162343  -0.108247   0.045994  -0.031176   0.170468
     73       0.005243   0.205152   0.067442   0.128170  -0.016822   0.009592
     74      -0.033578   0.038220  -0.185076   0.170393  -0.290862  -0.000297
     75       0.213636   0.188903  -0.143559  -0.011779   0.039808   0.109789
     76       0.067081   0.202198   0.072872   0.070151   0.055013   0.027744
     77      -0.201406   0.058692  -0.210027   0.074097  -0.217413  -0.044200
     78       0.079267   0.162539  -0.098415   0.103833  -0.072290   0.188274
     79       0.035129   0.190878   0.083353   0.189677  -0.074275   0.025753
     80      -0.051746   0.045696  -0.192823   0.140828  -0.262934  -0.007951
     81       0.000938   0.022276   0.049002   0.077051  -0.008291  -0.039280
     82       0.000949  -0.172472  -0.023942   0.007414   0.003996   0.033910
     83       0.000251   0.012205   0.080801  -0.093911  -0.051216   0.004986
     84       0.000685  -0.030688   0.011850   0.074033   0.045462  -0.005552
     85       0.001433  -0.206443  -0.045546   0.008497   0.034843   0.058365
     86       0.001627  -0.019124   0.063223  -0.089902  -0.026877   0.030248
     87      -0.000056   0.057182   0.056124   0.159042   0.001867  -0.065702
     88       0.000001  -0.157418  -0.020338   0.059372   0.009595   0.026568
     89       0.000783   0.032205   0.084418  -0.059516  -0.046526  -0.013024
     90      -0.000270  -0.064293   0.000690   0.033851   0.070033   0.084818
     91       0.001644  -0.057390  -0.189988  -0.030695  -0.014684   0.331407
     92      -0.002324  -0.047398   0.031176  -0.084661  -0.080887  -0.077223
     93       0.000423  -0.042888   0.041964   0.154395   0.178700  -0.136800
     94       0.004764  -0.067469  -0.185599   0.062065   0.119968  -0.310675
     95      -0.000490  -0.000152   0.100091   0.037649  -0.020577   0.158709
     96       0.000731   0.070380   0.082127   0.090496  -0.054333  -0.071805
     97       0.000613  -0.235211  -0.056719  -0.058837   0.037165   0.075539
     98       0.000831   0.032222   0.120914  -0.223498  -0.141963  -0.009070
     99       0.001087   0.074378   0.069486   0.159347  -0.018664  -0.074986
    100       0.001795  -0.271119  -0.084790  -0.041622   0.082749   0.102675
    101       0.000607   0.038470   0.135486  -0.270046  -0.175048  -0.013689
    102       0.000013   0.119787   0.118090   0.096714  -0.107044  -0.105402
    103       0.000513  -0.216705  -0.042346  -0.066731   0.014108   0.061485
    104       0.000766   0.039593   0.128166  -0.243696  -0.156552  -0.017140
    105       0.000163   0.049577   0.081717   0.024600  -0.069650  -0.057575
    106       0.000935  -0.260595  -0.065254  -0.114070   0.037711   0.090726
    107       0.000184   0.031205   0.126895  -0.245626  -0.157040  -0.006729
                 12         13         14         15         16         17    
      0       0.030839  -0.044643   0.007399   0.015199   0.001453   0.014887
      1       0.011132  -0.089807  -0.006940  -0.015621  -0.219458  -0.005505
      2      -0.023869   0.003928  -0.023248  -0.001478   0.039999  -0.003565
      3       0.026604  -0.033827  -0.018522   0.008751  -0.041406   0.010287
      4       0.122144  -0.064881  -0.012795  -0.003190  -0.172103  -0.021582
      5      -0.090594  -0.007449  -0.037590  -0.009276  -0.005320   0.003044
      6      -0.017828   0.002574  -0.041556  -0.002271  -0.041319   0.012208
      7       0.110501   0.033892  -0.001268   0.011102   0.029333  -0.026876
      8      -0.056869  -0.057117  -0.023359  -0.005939  -0.057429   0.003589
      9      -0.058051   0.022474  -0.038108  -0.003357   0.000298   0.017231
     10      -0.021199   0.101418   0.016475   0.008058   0.170180  -0.011367
     11       0.048707  -0.095915  -0.001728   0.012248  -0.055794  -0.005227
     12      -0.054608   0.002251  -0.014726   0.004195   0.020280   0.022465
     13      -0.132073   0.047433   0.016476  -0.005521   0.045222   0.006818
     14       0.117112  -0.074210   0.011022   0.023981   0.028282  -0.013819
     15      -0.007155  -0.032983   0.005630   0.015956   0.019326   0.020424
     16      -0.110122  -0.051239   0.002694  -0.014937  -0.158571   0.007968
     17       0.077674  -0.024262  -0.001403   0.017269   0.076096  -0.012398
     18       0.059751  -0.035637   0.020476   0.014661   0.025504   0.016343
     19      -0.003040  -0.054280   0.027556  -0.034616  -0.191066  -0.009510
     20      -0.039294  -0.006715  -0.059334   0.009030   0.032944  -0.003071
     21       0.057665  -0.046400  -0.021545   0.009920  -0.065689   0.006539
     22       0.216961  -0.106344  -0.027022  -0.000910  -0.249284  -0.030915
     23      -0.171664   0.015744  -0.052687  -0.018092  -0.015503   0.004231
     24       0.002632  -0.047908   0.024304   0.024654   0.039606   0.022476
     25      -0.188056  -0.076115   0.001679  -0.023096  -0.227535   0.019319
     26       0.128427  -0.016627   0.008317   0.026299   0.127047  -0.018019
     27      -0.089585   0.051792  -0.053384  -0.010101   0.011697   0.016860
     28      -0.033931   0.184935   0.027361   0.015814   0.348761  -0.013010
     29       0.073877  -0.136483   0.006404   0.015056  -0.106765  -0.004565
     30       0.052100  -0.027903   0.023169   0.009162   0.042929   0.017952
     31      -0.089501  -0.002985   0.068972  -0.071894  -0.060444  -0.006026
     32      -0.030993  -0.047114  -0.046373   0.034794  -0.016285  -0.038772
     33       0.070122  -0.041629   0.012168  -0.026565   0.045734   0.066391
     34      -0.123218   0.014023   0.141909  -0.044823   0.077220  -0.088003
     35      -0.033152  -0.048308  -0.056691   0.048953  -0.048189  -0.048744
     36       0.041193  -0.020499   0.046874   0.010181   0.069531   0.003669
     37      -0.115257  -0.016183   0.133223  -0.102286  -0.093282   0.013798
     38      -0.017303  -0.027924  -0.070290   0.062313   0.017193  -0.074236
     39       0.036713  -0.034283  -0.013359  -0.180961   0.075475  -0.060624
     40      -0.071868   0.000511   0.204877   0.182555   0.042197   0.111592
     41      -0.025619  -0.035780  -0.016863   0.067836  -0.054667  -0.013389
     42       0.072289  -0.049363  -0.024426  -0.096114   0.035502   0.055541
     43      -0.170174   0.023873   0.107729  -0.209758   0.149536  -0.275733
     44       0.005857  -0.064148  -0.067108   0.108574  -0.113329   0.087948
     45       0.108695  -0.056450   0.056030   0.144144   0.033295   0.221276
     46      -0.136273   0.019167   0.162941  -0.032875   0.126353  -0.125605
     47      -0.083956  -0.028454  -0.042225  -0.037458   0.055563  -0.218460
     48       0.074558  -0.029395  -0.019192  -0.193297   0.105372  -0.100548
     49      -0.053572  -0.003412   0.282466   0.368361  -0.005371   0.329334
     50      -0.005795  -0.028323  -0.080620  -0.085366   0.008216  -0.212504
     51       0.000702  -0.017722  -0.032333  -0.341206   0.117477  -0.203576
     52      -0.094485   0.006402   0.250234   0.218489   0.022779   0.191715
     53      -0.044828  -0.035458   0.085213   0.246844  -0.118512   0.237956
     54      -0.138879   0.264585  -0.183842   0.065260  -0.072550  -0.033716
     55       0.106857   0.115265  -0.226153   0.109695   0.034270  -0.007135
     56      -0.020996   0.385973   0.140467  -0.075341  -0.078544   0.031438
     57       0.095899  -0.026252  -0.011694   0.030305   0.021803   0.022001
     58       0.035730  -0.017985  -0.079731   0.031939  -0.138234  -0.033760
     59      -0.045217  -0.028533  -0.002655  -0.029126  -0.006899   0.017543
     60      -0.140800   0.154561  -0.152934   0.056635  -0.053560  -0.033242
     61       0.132052   0.178487  -0.215893   0.095886   0.036562   0.004193
     62      -0.034376   0.555145   0.078451  -0.051973  -0.119635   0.023851
     63      -0.138633  -0.093405  -0.071106   0.044022   0.005598  -0.042776
     64       0.147036  -0.032313  -0.027889   0.051682   0.096544  -0.010128
     65      -0.094108  -0.160091   0.022775  -0.022355   0.004829   0.034855
     66      -0.141528   0.105751   0.014930  -0.032400  -0.113124   0.002664
     67       0.125463   0.053138  -0.263480   0.162838   0.119295  -0.048391
     68      -0.061701   0.111074   0.000299  -0.001722   0.003740   0.013602
     69      -0.213224  -0.061920  -0.175599   0.085302   0.054768  -0.058878
     70       0.063673  -0.164242  -0.098029   0.071991   0.131941  -0.009483
     71      -0.097876  -0.242671   0.041309  -0.033544  -0.002977   0.043538
     72       0.225210   0.085791   0.164058   0.021520  -0.113977  -0.068703
     73      -0.054630   0.001641  -0.090281  -0.101957   0.093067   0.120500
     74       0.176088   0.072346  -0.039615  -0.017719   0.042271   0.058146
     75       0.092731   0.014270   0.191282  -0.032023  -0.137009  -0.037900
     76       0.011235  -0.002530  -0.029961  -0.071754   0.068759   0.081387
     77       0.082848  -0.007493  -0.117022   0.026282   0.087769   0.037296
     78       0.214434   0.122588   0.204648  -0.028955  -0.146250  -0.034730
     79      -0.011568   0.039280  -0.106209  -0.112347   0.109709   0.137661
     80       0.151744   0.054057  -0.030190  -0.014051   0.031853   0.050258
     81      -0.007267  -0.058372   0.012723  -0.062686  -0.002159   0.068629
     82      -0.009685  -0.022091   0.065106   0.060210   0.079657  -0.118471
     83      -0.014104  -0.015890   0.009755   0.019322  -0.004842  -0.037499
     84       0.042831  -0.079103  -0.102180  -0.167381  -0.089018   0.179713
     85       0.013774  -0.031113   0.007767   0.011457   0.085713  -0.203573
     86      -0.001645  -0.019724  -0.025635  -0.005625   0.065209  -0.275255
     87      -0.053157  -0.068352   0.062160   0.061585  -0.040916   0.114963
     88      -0.043904  -0.023921   0.104930   0.150145   0.139490  -0.315007
     89      -0.029382  -0.023288   0.023651   0.061742  -0.082763   0.148580
     90      -0.082378   0.014048  -0.012190   0.003431   0.041164   0.025828
     91      -0.223240   0.086520   0.026082  -0.007851   0.117564   0.018309
     92       0.194188  -0.096289   0.029312   0.036530   0.050237  -0.020016
     93      -0.022768   0.016908  -0.062858  -0.009471  -0.064172   0.009929
     94       0.194188   0.063099  -0.004802   0.022316   0.089207  -0.040426
     95      -0.109518  -0.067412  -0.031866  -0.016351  -0.105147   0.010585
     96      -0.057737  -0.043639   0.128314   0.052528   0.078224  -0.022459
     97       0.068006  -0.033111  -0.072764  -0.140439   0.003615   0.032383
     98      -0.000229   0.019773   0.083667  -0.070001   0.097419   0.015748
     99      -0.074004  -0.058214   0.107238   0.116567   0.012234  -0.002285
    100       0.092140  -0.047656  -0.149787  -0.174754  -0.028287  -0.030025
    101       0.003937   0.032301   0.115274  -0.101099   0.145948   0.018486
    102      -0.109426  -0.025389   0.256224   0.171675   0.174134  -0.123710
    103       0.055196  -0.025769  -0.032756  -0.121778   0.019974   0.062608
    104       0.005550   0.023452   0.086540  -0.105872   0.071200   0.141866
    105      -0.025388  -0.036397   0.105129  -0.046118   0.106709  -0.006906
    106       0.110630  -0.033179  -0.133830  -0.269012  -0.036668   0.173081
    107      -0.000969   0.026766   0.107233  -0.068866   0.155032  -0.074753
                 18         19         20         21         22         23    
      0       0.054546   0.079807  -0.099021   0.030967  -0.011647  -0.004957
      1       0.032687  -0.047777  -0.001775  -0.040197  -0.060429   0.002870
      2      -0.044036  -0.100457   0.016839   0.025231   0.020904   0.002257
      3       0.021809  -0.014478  -0.093646   0.029051   0.046845  -0.002767
      4       0.029535  -0.046573  -0.030059  -0.119586   0.103878   0.000725
      5      -0.060430  -0.151120   0.031543   0.074804  -0.044935   0.005226
      6      -0.022831  -0.108118  -0.029897   0.042958   0.023333   0.003032
      7      -0.016382  -0.019775  -0.006370  -0.012738   0.031892  -0.001914
      8      -0.018410  -0.099748  -0.024023   0.048648  -0.008752   0.002343
      9      -0.032002  -0.102951  -0.018200   0.085274  -0.022035   0.003073
     10      -0.044993   0.006661   0.023354   0.137783  -0.120107  -0.003002
     11       0.029808  -0.012561  -0.118861   0.027495   0.073347  -0.003352
     12       0.013597  -0.004505  -0.068835   0.037960   0.032079  -0.001269
     13       0.001605   0.023840  -0.037352  -0.003618   0.070465  -0.002839
     14       0.024384   0.025905  -0.107145   0.089774  -0.014294  -0.005374
     15       0.056871   0.085713  -0.124458   0.018929   0.036572  -0.005941
     16       0.040699  -0.007841  -0.058796  -0.098721   0.083283   0.001196
     17      -0.015983  -0.032076  -0.051034   0.113724  -0.022566  -0.002192
     18       0.049332   0.057157  -0.044334   0.055536  -0.054759   0.004665
     19       0.001058  -0.039088   0.036315   0.116721  -0.242589   0.000287
     20      -0.034938  -0.077382   0.010357  -0.085179   0.096277  -0.002932
     21       0.028058  -0.015613  -0.101775   0.005001   0.067187  -0.002608
     22       0.051527  -0.056191  -0.060686  -0.192436   0.167655   0.001758
     23      -0.101377  -0.221757   0.072491   0.114490  -0.075326   0.009099
     24       0.084729   0.147406  -0.188789   0.039135   0.062651  -0.009795
     25       0.061526  -0.001422  -0.080577  -0.159399   0.144040   0.002287
     26      -0.014313  -0.004812  -0.068985   0.158087  -0.045997  -0.004719
     27      -0.069211  -0.164935   0.034891   0.117702  -0.073276   0.006234
     28      -0.090231   0.019926   0.073151   0.291771  -0.281228  -0.004081
     29       0.066753   0.027754  -0.167470  -0.032831   0.147744  -0.005293
     30       0.042243   0.048643  -0.021104   0.056907   0.003434   0.004741
     31      -0.032058  -0.020084   0.080620   0.199511   0.126131  -0.009660
     32      -0.022095   0.068535  -0.018925  -0.165061  -0.128966  -0.005714
     33       0.042539  -0.092645   0.096714  -0.051289  -0.001789   0.002665
     34      -0.119242   0.069973  -0.141017  -0.001306   0.029754  -0.003237
     35      -0.002018   0.148135   0.022219  -0.061191  -0.089766  -0.004913
     36       0.046757   0.122256  -0.055694   0.059602   0.033705   0.003507
     37      -0.002474  -0.025712   0.123121   0.233473   0.228982  -0.015502
     38      -0.054546   0.125284  -0.078682  -0.184664  -0.192473  -0.002176
     39      -0.005221  -0.023477   0.075562  -0.029536   0.038927   0.010312
     40      -0.046505  -0.018462  -0.011863  -0.037483   0.012653  -0.011151
     41       0.018629   0.168109   0.156652   0.085550   0.059637   0.001204
     42       0.038880  -0.158751   0.124746  -0.082810  -0.015303   0.000754
     43      -0.199951   0.165849  -0.327946  -0.053984   0.005643   0.005735
     44       0.058236   0.005556   0.196504  -0.051300  -0.082746  -0.013745
     45       0.084296  -0.194731   0.154091  -0.144682  -0.050101  -0.005625
     46      -0.149653   0.107457  -0.255985  -0.078611  -0.009118  -0.000539
     47      -0.088189   0.282505  -0.235807  -0.147579  -0.128081   0.005428
     48       0.085436  -0.096954   0.128115   0.003721   0.081262   0.032615
     49      -0.060092  -0.059395   0.067869  -0.027311   0.030237  -0.042038
     50       0.108046   0.132508   0.140698   0.105023   0.081918   0.043551
     51      -0.049656   0.024556   0.003289   0.018424   0.096138   0.026244
     52      -0.117890   0.006727  -0.025388  -0.017845   0.038291  -0.031758
     53      -0.088278   0.181154   0.176436   0.087050   0.068564  -0.048535
     54      -0.008425   0.001204  -0.000046  -0.027824   0.002396  -0.001712
     55      -0.048963  -0.000312   0.000059   0.002471  -0.050505   0.001644
     56       0.067878   0.042287  -0.004207  -0.037109   0.024837   0.000802
     57       0.041385  -0.010810  -0.046355   0.058071  -0.081249   0.012343
     58      -0.040883  -0.025868  -0.001980   0.054971  -0.415101   0.005647
     59      -0.010048  -0.129976   0.038983  -0.040204   0.205464  -0.001801
     60      -0.013940  -0.005022   0.001501  -0.015003   0.014677  -0.001584
     61      -0.031565   0.003704  -0.004216   0.018807  -0.023597   0.002202
     62       0.069583   0.052876  -0.005454  -0.071525  -0.019633   0.000237
     63      -0.035839  -0.019043   0.004286  -0.031590   0.028813  -0.001525
     64      -0.045140  -0.003138   0.003997  -0.027134   0.108510  -0.000333
     65       0.015719   0.011909  -0.004330   0.031288  -0.056752   0.003602
     66       0.074130   0.031005  -0.030522  -0.009815  -0.009540   0.000236
     67      -0.134574  -0.037896   0.031284  -0.037692   0.041547  -0.001109
     68      -0.005797   0.008848   0.012386  -0.016187   0.004693   0.001153
     69      -0.070615  -0.030648   0.015383  -0.071568   0.118157  -0.003874
     70      -0.059141  -0.010726   0.001194  -0.025555   0.120462  -0.000697
     71       0.026749   0.014149  -0.011435   0.052838  -0.096626   0.004611
     72      -0.064029  -0.009648   0.009487   0.024662  -0.071009   0.000154
     73       0.190477   0.032294  -0.032911   0.000434  -0.079485   0.001953
     74       0.028125  -0.009257   0.006331  -0.022159   0.073449   0.002221
     75       0.005756   0.009957  -0.013119   0.039922  -0.156734   0.001844
     76       0.119457   0.019693  -0.008174   0.022166   0.006790  -0.000311
     77      -0.019290  -0.026818   0.016770  -0.032304   0.114323   0.001578
     78      -0.021774  -0.031933   0.022214   0.094014  -0.084172  -0.002814
     79       0.241488   0.073214  -0.071596  -0.061946  -0.169105   0.006946
     80       0.001661  -0.033348   0.028688   0.015638   0.122987  -0.000768
     81      -0.112867   0.120425   0.127535  -0.070389   0.001245  -0.018746
     82       0.144612  -0.042003   0.101643  -0.053015  -0.012720   0.032699
     83       0.034512   0.081564   0.117726   0.089027   0.089750   0.009498
     84      -0.269951   0.262908   0.154472  -0.036649   0.020555  -0.039424
     85       0.214210  -0.039184   0.150502  -0.030127  -0.001158   0.038066
     86       0.272923  -0.008291   0.193736   0.107269   0.096516   0.034524
     87      -0.122492   0.190324   0.164460  -0.038815   0.018707  -0.015588
     88       0.378332  -0.117196   0.175001  -0.021256   0.005234   0.060536
     89      -0.147320   0.198380   0.095005   0.090931   0.089764  -0.009498
     90       0.012438   0.004045  -0.071246   0.036622   0.049788  -0.001778
     91      -0.000367   0.056935  -0.045956  -0.009832   0.128962  -0.004655
     92       0.055203   0.102959  -0.137238   0.089208  -0.044554  -0.009530
     93      -0.050638  -0.175479   0.024280   0.013920   0.023394   0.007372
     94      -0.033388  -0.023359  -0.004480  -0.010391   0.055265  -0.002725
     95      -0.022217  -0.131864   0.001907   0.033070  -0.022607   0.005036
     96       0.027607  -0.001193   0.126793  -0.137826  -0.037278   0.004651
     97      -0.089570   0.075278   0.075721  -0.063410  -0.016565  -0.005571
     98      -0.046737  -0.101485  -0.034573  -0.146184  -0.056884  -0.002793
     99       0.021090   0.113157   0.171281   0.000705   0.058899   0.326127
    100      -0.028659   0.123172   0.154513   0.047346   0.047394  -0.490227
    101      -0.057501  -0.183720  -0.081231  -0.258900  -0.132035  -0.083668
    102       0.182845  -0.153804   0.109555  -0.232134  -0.099758   0.003645
    103      -0.118375   0.050705   0.036252  -0.118744  -0.048818   0.237303
    104      -0.203748  -0.056592  -0.105162  -0.202139  -0.084830   0.501741
    105      -0.018394  -0.055786   0.091658  -0.233178  -0.104566  -0.291836
    106      -0.291111   0.136223   0.009947  -0.119176  -0.048488   0.195666
    107       0.060153  -0.199778  -0.018886  -0.196545  -0.098177  -0.440710
                 24         25         26         27         28         29    
      0       0.101464  -0.004347   0.042613  -0.026521  -0.032697  -0.002471
      1      -0.039070   0.008386   0.022294  -0.162842  -0.067143   0.035322
      2      -0.061794   0.002358   0.029797   0.025252   0.094170   0.015780
      3       0.058262   0.047846  -0.058549   0.051571  -0.067675  -0.025691
      4      -0.053985   0.178736  -0.002947  -0.011227   0.020081   0.025842
      5      -0.091487  -0.072712  -0.017952  -0.030985   0.032979   0.013015
      6      -0.041737  -0.056061  -0.072178   0.029169  -0.007752  -0.016596
      7      -0.030380  -0.187686  -0.001604   0.060482   0.050247  -0.000954
      8      -0.040490   0.088954  -0.032771  -0.031705  -0.021871   0.009128
      9      -0.030547   0.003696  -0.069682  -0.017644  -0.038476  -0.013537
     10       0.029995   0.010969  -0.006303  -0.077502  -0.079211   0.000324
     11       0.017145  -0.008594  -0.103278   0.081459  -0.035267  -0.033280
     12       0.034974   0.049677  -0.007478   0.020772   0.020588  -0.011007
     13       0.018936   0.175629  -0.037766   0.082614   0.019087  -0.013957
     14       0.050713  -0.084260  -0.057802   0.002344  -0.061013  -0.021621
     15       0.108037  -0.063920   0.019045   0.029256  -0.022673  -0.021778
     16      -0.051524  -0.187244  -0.034808   0.002586   0.000757  -0.001273
     17       0.001242   0.082580  -0.057548   0.001882  -0.007300  -0.005783
     18      -0.103648   0.009788   0.035602  -0.102677   0.112107   0.061601
     19       0.043869   0.011964   0.049652  -0.008650  -0.050015  -0.056989
     20       0.051753  -0.006731   0.100755   0.023267   0.020682   0.014052
     21       0.049054   0.120586  -0.064642   0.075792  -0.052311  -0.035328
     22      -0.095364   0.412403  -0.035735   0.065364   0.070439  -0.016934
[...]
     73      -0.000018  -0.000110   0.000014  -0.000758   0.028794  -0.001537
     74      -0.000095  -0.000493  -0.000222  -0.001405   0.053806  -0.002716
     75      -0.001296  -0.003819  -0.003449   0.000757  -0.008957  -0.005162
     76      -0.000652  -0.003154  -0.002371  -0.000258   0.004491   0.000704
     77       0.001141   0.004083   0.003572  -0.001332   0.026258  -0.005365
     78       0.000119   0.002159  -0.000546  -0.002022   0.072186  -0.004829
     79       0.000780   0.001675   0.002746   0.012341  -0.463674   0.024564
     80       0.001123   0.005842   0.001668   0.023430  -0.878348   0.046435
     81       0.000014  -0.000024   0.000069   0.000007  -0.000007  -0.000001
     82       0.000018   0.000025  -0.000061   0.000025  -0.000040   0.000020
     83      -0.000034   0.000042  -0.000133  -0.000020   0.000008  -0.000020
     84       0.000091  -0.000003   0.000173   0.000138  -0.000183   0.000146
     85      -0.000364   0.000053  -0.000438  -0.000335   0.000423  -0.000242
     86       0.000161   0.000042   0.000108   0.000192  -0.000282   0.000207
     87      -0.000235   0.000429  -0.001181  -0.000193   0.000111  -0.000028
     88       0.000172  -0.000385   0.001178   0.000155   0.000007   0.000019
     89       0.000221  -0.000515   0.001560   0.000197   0.000026   0.000073
     90      -0.690961   0.038301  -0.006396  -0.000129  -0.000045  -0.000262
     91       0.202581  -0.011377   0.001979   0.000024  -0.000039   0.000072
     92      -0.009669   0.000255   0.000181  -0.000092  -0.000065  -0.000023
     93       0.106485  -0.097712  -0.008352   0.000031   0.000231  -0.000144
     94      -0.125908   0.115700   0.009362  -0.000054  -0.000314   0.000126
     95      -0.208957   0.192302   0.015413  -0.000107  -0.000467   0.000131
     96      -0.000007  -0.000003  -0.000008   0.000002  -0.000012  -0.000002
     97      -0.000002   0.000020  -0.000059   0.000018  -0.000015   0.000004
     98      -0.000010  -0.000001  -0.000049  -0.000001   0.000010  -0.000000
     99       0.000158  -0.000028   0.000388  -0.000091   0.000131   0.000034
    100       0.000057  -0.000010   0.000148  -0.000041   0.000086   0.000007
    101       0.000281  -0.000069   0.000676  -0.000032   0.000065   0.000051
    102      -0.000034   0.000087  -0.000128  -0.000034   0.000023  -0.000010
    103       0.000000  -0.000285   0.000470  -0.000103   0.000147  -0.000106
    104      -0.000034   0.000118  -0.000269   0.000051  -0.000039   0.000049
    105      -0.000002  -0.000004  -0.000151  -0.000058  -0.000013   0.000007
    106      -0.000036   0.000046   0.000046   0.000002   0.000050  -0.000003
    107      -0.000049   0.000011   0.000062   0.000027   0.000053  -0.000015


-----------
IR SPECTRUM  
-----------

 Mode    freq (cm**-1)   T**2         TX         TY         TZ
-------------------------------------------------------------------
   7:        55.13    0.000000  (  0.000000   0.000000   0.000000)
   8:        69.39    0.000000  (  0.000000   0.000000   0.000000)
   9:        87.77    0.000000  (  0.000000   0.000000   0.000000)
  10:        94.58    0.000000  (  0.000000   0.000000   0.000000)
  11:        98.87    0.000000  (  0.000000   0.000000   0.000000)
  12:       109.49    0.000000  (  0.000000   0.000000   0.000000)
  13:       135.02    0.000000  (  0.000000   0.000000   0.000000)
  14:       144.04    0.000000  (  0.000000   0.000000   0.000000)
  15:       159.53    0.000000  (  0.000000   0.000000   0.000000)
  16:       176.87    0.000000  (  0.000000   0.000000   0.000000)
  17:       180.32    0.000000  (  0.000000   0.000000   0.000000)
  18:       190.86    0.000000  (  0.000000   0.000000   0.000000)
  19:       200.09    0.000000  (  0.000000   0.000000   0.000000)
  20:       255.78    0.000000  (  0.000000   0.000000   0.000000)
  21:       280.18    0.000000  (  0.000000   0.000000   0.000000)
  22:       350.00    0.000000  (  0.000000   0.000000   0.000000)
  23:       357.18    0.000000  (  0.000000   0.000000   0.000000)
  24:       382.81    0.000000  (  0.000000   0.000000   0.000000)
  25:       398.04    0.000000  (  0.000000   0.000000   0.000000)
  26:       430.37    0.000000  (  0.000000   0.000000   0.000000)
  27:       469.86    0.000000  (  0.000000   0.000000   0.000000)
  28:       498.43    0.000000  (  0.000000   0.000000   0.000000)
  29:       500.26    0.000000  (  0.000000   0.000000   0.000000)
  30:       531.21    0.000000  (  0.000000   0.000000   0.000000)
  31:       546.55    0.000000  (  0.000000   0.000000   0.000000)
  32:       588.95    0.000000  (  0.000000   0.000000   0.000000)
  33:       598.66    0.000000  (  0.000000   0.000000   0.000000)
  34:       615.33    0.000000  (  0.000000   0.000000   0.000000)
  35:       631.77    0.000000  (  0.000000   0.000000   0.000000)
  36:       675.22    0.000000  (  0.000000   0.000000   0.000000)
  37:       715.59    0.000000  (  0.000000   0.000000   0.000000)
  38:       763.90    0.000000  (  0.000000   0.000000   0.000000)
  39:       788.29    0.000000  (  0.000000   0.000000   0.000000)
  40:       798.26    0.000000  (  0.000000   0.000000   0.000000)
  41:       825.68    0.000000  (  0.000000   0.000000   0.000000)
  42:       835.28    0.000000  (  0.000000   0.000000   0.000000)
  43:       848.76    0.000000  (  0.000000   0.000000   0.000000)
  44:       859.02    0.000000  (  0.000000   0.000000   0.000000)
  45:       896.59    0.000000  (  0.000000   0.000000   0.000000)
  46:       932.20    0.000000  (  0.000000   0.000000   0.000000)
  47:       943.73    0.000000  (  0.000000   0.000000   0.000000)
  48:       952.24    0.000000  (  0.000000   0.000000   0.000000)
  49:       959.24    0.000000  (  0.000000   0.000000   0.000000)
  50:       960.54    0.000000  (  0.000000   0.000000   0.000000)
  51:       973.86    0.000000  (  0.000000   0.000000   0.000000)
  52:       977.40    0.000000  (  0.000000   0.000000   0.000000)
  53:      1017.31    0.000000  (  0.000000   0.000000   0.000000)
  54:      1048.01    0.000000  (  0.000000   0.000000   0.000000)
  55:      1059.96    0.000000  (  0.000000   0.000000   0.000000)
  56:      1080.03    0.000000  (  0.000000   0.000000   0.000000)
  57:      1109.02    0.000000  (  0.000000   0.000000   0.000000)
  58:      1114.07    0.000000  (  0.000000   0.000000   0.000000)
  59:      1123.62    0.000000  (  0.000000   0.000000   0.000000)
  60:      1130.16    0.000000  (  0.000000   0.000000   0.000000)
  61:      1178.68    0.000000  (  0.000000   0.000000   0.000000)
  62:      1184.99    0.000000  (  0.000000   0.000000   0.000000)
  63:      1205.95    0.000000  (  0.000000   0.000000   0.000000)
  64:      1211.88    0.000000  (  0.000000   0.000000   0.000000)
  65:      1252.50    0.000000  (  0.000000   0.000000   0.000000)
  66:      1258.83    0.000000  (  0.000000   0.000000   0.000000)
  67:      1260.66    0.000000  (  0.000000   0.000000   0.000000)
  68:      1278.78    0.000000  (  0.000000   0.000000   0.000000)
  69:      1283.49    0.000000  (  0.000000   0.000000   0.000000)
  70:      1302.23    0.000000  (  0.000000   0.000000   0.000000)
  71:      1306.57    0.000000  (  0.000000   0.000000   0.000000)
  72:      1323.70    0.000000  (  0.000000   0.000000   0.000000)
  73:      1344.37    0.000000  (  0.000000   0.000000   0.000000)
  74:      1370.63    0.000000  (  0.000000   0.000000   0.000000)
  75:      1405.11    0.000000  (  0.000000   0.000000   0.000000)
  76:      1433.75    0.000000  (  0.000000   0.000000   0.000000)
  77:      1437.63    0.000000  (  0.000000   0.000000   0.000000)
  78:      1454.66    0.000000  (  0.000000   0.000000   0.000000)
  79:      1484.37    0.000000  (  0.000000   0.000000   0.000000)
  80:      1498.37    0.000000  (  0.000000   0.000000   0.000000)
  81:      1505.94    0.000000  (  0.000000   0.000000   0.000000)
  82:      1511.35    0.000000  (  0.000000   0.000000   0.000000)
  83:      1515.35    0.000000  (  0.000000   0.000000   0.000000)
  84:      1524.09    0.000000  (  0.000000   0.000000   0.000000)
  85:      1528.93    0.000000  (  0.000000   0.000000   0.000000)
  86:      1549.98    0.000000  (  0.000000   0.000000   0.000000)
  87:      1559.51    0.000000  (  0.000000   0.000000   0.000000)
  88:      2139.33    0.000000  (  0.000000   0.000000   0.000000)
  89:      2877.71    0.000000  (  0.000000   0.000000   0.000000)
  90:      2894.73    0.000000  (  0.000000   0.000000   0.000000)
  91:      2900.50    0.000000  (  0.000000   0.000000   0.000000)
  92:      2905.14    0.000000  (  0.000000   0.000000   0.000000)
  93:      2910.17    0.000000  (  0.000000   0.000000   0.000000)
  94:      2913.61    0.000000  (  0.000000   0.000000   0.000000)
  95:      2915.70    0.000000  (  0.000000   0.000000   0.000000)
  96:      2922.11    0.000000  (  0.000000   0.000000   0.000000)
  97:      2933.50    0.000000  (  0.000000   0.000000   0.000000)
  98:      2950.20    0.000000  (  0.000000   0.000000   0.000000)
  99:      2990.49    0.000000  (  0.000000   0.000000   0.000000)
 100:      2992.69    0.000000  (  0.000000   0.000000   0.000000)
 101:      2999.40    0.000000  (  0.000000   0.000000   0.000000)
 102:      3007.67    0.000000  (  0.000000   0.000000   0.000000)
 103:      3019.59    0.000000  (  0.000000   0.000000   0.000000)
 104:      3028.97    0.000000  (  0.000000   0.000000   0.000000)
 105:      3443.90    0.000000  (  0.000000   0.000000   0.000000)
 106:      3448.54    0.000000  (  0.000000   0.000000   0.000000)
 107:      3468.03    0.000000  (  0.000000   0.000000   0.000000)

The first frequency considered to be a vibration is 7
The total number of vibrations considered is 101


--------------------------
THERMOCHEMISTRY AT 298.15K
--------------------------

Temperature         ... 298.15 K
Pressure            ... 1.00 atm
Total Mass          ... 215.29 AMU

Throughout the following assumptions are being made:
  (1) The electronic state is orbitally nondegenerate
  (2) There are no thermally accessible electronically excited states
  (3) Hindered rotations indicated by low frequency modes are not
      treated as such but are treated as vibrations and this may
      cause some error
  (4) All equations used are the standard statistical mechanics
      equations for an ideal gas
  (5) All vibrations are strictly harmonic

freq.      55.13  E(vib)   ...       0.52 
freq.      69.39  E(vib)   ...       0.50 
freq.      87.77  E(vib)   ...       0.48 
freq.      94.58  E(vib)   ...       0.47 
freq.      98.87  E(vib)   ...       0.46 
freq.     109.49  E(vib)   ...       0.45 
freq.     135.02  E(vib)   ...       0.42 
freq.     144.04  E(vib)   ...       0.41 
freq.     159.53  E(vib)   ...       0.39 
freq.     176.87  E(vib)   ...       0.38 
freq.     180.32  E(vib)   ...       0.37 
freq.     190.86  E(vib)   ...       0.36 
freq.     200.09  E(vib)   ...       0.35 
freq.     255.78  E(vib)   ...       0.30 
freq.     280.18  E(vib)   ...       0.28 
freq.     350.00  E(vib)   ...       0.23 
freq.     357.18  E(vib)   ...       0.22 
freq.     382.81  E(vib)   ...       0.20 
freq.     398.04  E(vib)   ...       0.20 
freq.     430.37  E(vib)   ...       0.18 
freq.     469.86  E(vib)   ...       0.16 
freq.     498.43  E(vib)   ...       0.14 
freq.     500.26  E(vib)   ...       0.14 
freq.     531.21  E(vib)   ...       0.13 
freq.     546.55  E(vib)   ...       0.12 
freq.     588.95  E(vib)   ...       0.10 
freq.     598.66  E(vib)   ...       0.10 
freq.     615.33  E(vib)   ...       0.10 
freq.     631.77  E(vib)   ...       0.09 
freq.     675.22  E(vib)   ...       0.08 
freq.     715.59  E(vib)   ...       0.07 
freq.     763.90  E(vib)   ...       0.06 
freq.     788.29  E(vib)   ...       0.05 
freq.     798.26  E(vib)   ...       0.05 
freq.     825.68  E(vib)   ...       0.04 
freq.     835.28  E(vib)   ...       0.04 
freq.     848.76  E(vib)   ...       0.04 
freq.     859.02  E(vib)   ...       0.04 
freq.     896.59  E(vib)   ...       0.03 
freq.     932.20  E(vib)   ...       0.03 
freq.     943.73  E(vib)   ...       0.03 
freq.     952.24  E(vib)   ...       0.03 
freq.     959.24  E(vib)   ...       0.03 
freq.     960.54  E(vib)   ...       0.03 
freq.     973.86  E(vib)   ...       0.03 
freq.     977.40  E(vib)   ...       0.03 
freq.    1017.31  E(vib)   ...       0.02 
freq.    1048.01  E(vib)   ...       0.02 
freq.    1059.96  E(vib)   ...       0.02 
freq.    1080.03  E(vib)   ...       0.02 
freq.    1109.02  E(vib)   ...       0.02 
freq.    1114.07  E(vib)   ...       0.01 
freq.    1123.62  E(vib)   ...       0.01 
freq.    1130.16  E(vib)   ...       0.01 
freq.    1178.68  E(vib)   ...       0.01 
freq.    1184.99  E(vib)   ...       0.01 
freq.    1205.95  E(vib)   ...       0.01 
freq.    1211.88  E(vib)   ...       0.01 
freq.    1252.50  E(vib)   ...       0.01 
freq.    1258.83  E(vib)   ...       0.01 
freq.    1260.66  E(vib)   ...       0.01 
freq.    1278.78  E(vib)   ...       0.01 
freq.    1283.49  E(vib)   ...       0.01 
freq.    1302.23  E(vib)   ...       0.01 
freq.    1306.57  E(vib)   ...       0.01 
freq.    1323.70  E(vib)   ...       0.01 
freq.    1344.37  E(vib)   ...       0.01 
freq.    1370.63  E(vib)   ...       0.01 
freq.    1405.11  E(vib)   ...       0.00 
freq.    1433.75  E(vib)   ...       0.00 
freq.    1437.63  E(vib)   ...       0.00 
freq.    1454.66  E(vib)   ...       0.00 
freq.    1484.37  E(vib)   ...       0.00 
freq.    1498.37  E(vib)   ...       0.00 
freq.    1505.94  E(vib)   ...       0.00 
freq.    1511.35  E(vib)   ...       0.00 
freq.    1515.35  E(vib)   ...       0.00 
freq.    1524.09  E(vib)   ...       0.00 
freq.    1528.93  E(vib)   ...       0.00 
freq.    1549.98  E(vib)   ...       0.00 
freq.    1559.51  E(vib)   ...       0.00 
freq.    2139.33  E(vib)   ...       0.00 
freq.    2877.71  E(vib)   ...       0.00 
freq.    2894.73  E(vib)   ...       0.00 
freq.    2900.50  E(vib)   ...       0.00 
freq.    2905.14  E(vib)   ...       0.00 
freq.    2910.17  E(vib)   ...       0.00 
freq.    2913.61  E(vib)   ...       0.00 
freq.    2915.70  E(vib)   ...       0.00 
freq.    2922.11  E(vib)   ...       0.00 
freq.    2933.50  E(vib)   ...       0.00 
freq.    2950.20  E(vib)   ...       0.00 
freq.    2990.49  E(vib)   ...       0.00 
freq.    2992.69  E(vib)   ...       0.00 
freq.    2999.40  E(vib)   ...       0.00 
freq.    3007.67  E(vib)   ...       0.00 
freq.    3019.59  E(vib)   ...       0.00 
freq.    3028.97  E(vib)   ...       0.00 
freq.    3443.90  E(vib)   ...       0.00 
freq.    3448.54  E(vib)   ...       0.00 
freq.    3468.03  E(vib)   ...       0.00 

------------
INNER ENERGY
------------

The inner energy is: U= E(el) + E(ZPE) + E(vib) + E(rot) + E(trans)
    E(el)   - is the total energy from the electronic structure calculation
              = E(kin-el) + E(nuc-el) + E(el-el) + E(nuc-nuc)
    E(ZPE)  - the the zero temperature vibrational energy from the frequency calculation
    E(vib)  - the the finite temperature correction to E(ZPE) due to population
              of excited vibrational states
    E(rot)  - is the rotational thermal energy
    E(trans)- is the translational thermal energy

Summary of contributions to the inner energy U:
Electronic energy                ...    -49.33838667 Eh
Zero point energy                ...      0.29470285 Eh     184.93 kcal/mol
Thermal vibrational correction   ...      0.01469375 Eh       9.22 kcal/mol
Thermal rotational correction    ...      0.00141627 Eh       0.89 kcal/mol
Thermal translational correction ...      0.00141627 Eh       0.89 kcal/mol
-----------------------------------------------------------------------
Total thermal energy                    -49.02615753 Eh


Summary of corrections to the electronic energy:
(perhaps to be used in another calculation)
Total thermal correction                  0.01752629 Eh      11.00 kcal/mol
Non-thermal (ZPE) correction              0.29470285 Eh     184.93 kcal/mol
-----------------------------------------------------------------------
Total correction                          0.31222914 Eh     195.93 kcal/mol


--------
ENTHALPY
--------

The enthalpy is H = U + kB*T
                kB is Boltzmann's constant
Total free energy                 ...    -49.02615753 Eh 
Thermal Enthalpy correction       ...      0.00094421 Eh       0.59 kcal/mol
-----------------------------------------------------------------------
Total Enthalpy                    ...    -49.02521332 Eh


Note: Only C1 symmetry has been detected, increase convergence thresholds 
      if your molecule has a higher symmetry. Symmetry factor of 1.0 is   
      used for the rotational entropy correction. 
 

Note: Rotational entropy computed according to Herzberg 
Infrared and Raman Spectra, Chapter V,1, Van Nostrand Reinhold, 1945 
Point Group:  C1, Symmetry Number:   1  
Rotational constants in cm-1:     0.027094     0.008310     0.007831 

Vibrational entropy computed according to the QRRHO of S. Grimme
Chem.Eur.J. 2012 18 9955


-------
ENTROPY
-------

The entropy contributions are T*S = T*(S(el)+S(vib)+S(rot)+S(trans))
     S(el)   - electronic entropy
     S(vib)  - vibrational entropy
     S(rot)  - rotational entropy
     S(trans)- translational entropy
The entropies will be listed as mutliplied by the temperature to get
units of energy

Electronic entropy                ...      0.00000000 Eh      0.00 kcal/mol
Vibrational entropy               ...      0.02570445 Eh     16.13 kcal/mol
Rotational entropy                ...      0.01576525 Eh      9.89 kcal/mol
Translational entropy             ...      0.01995728 Eh     12.52 kcal/mol
-----------------------------------------------------------------------
Final entropy term                ...      0.06142698 Eh     38.55 kcal/mol

In case the symmetry of your molecule has not been determined correctly
or in case you have a reason to use a different symmetry number we print 
out the resulting rotational entropy values for sn=1,12 :
 --------------------------------------------------------
|  sn= 1 | S(rot)=       0.01576525 Eh      9.89 kcal/mol|
|  sn= 2 | S(rot)=       0.01511080 Eh      9.48 kcal/mol|
|  sn= 3 | S(rot)=       0.01472796 Eh      9.24 kcal/mol|
|  sn= 4 | S(rot)=       0.01445634 Eh      9.07 kcal/mol|
|  sn= 5 | S(rot)=       0.01424565 Eh      8.94 kcal/mol|
|  sn= 6 | S(rot)=       0.01407351 Eh      8.83 kcal/mol|
|  sn= 7 | S(rot)=       0.01392796 Eh      8.74 kcal/mol|
|  sn= 8 | S(rot)=       0.01380188 Eh      8.66 kcal/mol|
|  sn= 9 | S(rot)=       0.01369067 Eh      8.59 kcal/mol|
|  sn=10 | S(rot)=       0.01359120 Eh      8.53 kcal/mol|
|  sn=11 | S(rot)=       0.01350121 Eh      8.47 kcal/mol|
|  sn=12 | S(rot)=       0.01341905 Eh      8.42 kcal/mol|
 --------------------------------------------------------


-------------------
GIBBS FREE ENERGY
-------------------

The Gibbs free energy is G = H - T*S

Total enthalpy                    ...    -49.02521332 Eh 
Total entropy correction          ...     -0.06142698 Eh    -38.55 kcal/mol
-----------------------------------------------------------------------
Final Gibbs free energy         ...    -49.08664030 Eh

For completeness - the Gibbs free energy minus the electronic energy
G-E(el)                           ...      0.25174637 Eh    157.97 kcal/mol


Total Time for Numerical Frequencies  :       112.324 sec
Time for Reference State(s)           :         0.195 sec
Time for Displacements                :       102.176 sec

Timings for individual modules:

Sum of individual times         ...        0.434 sec (=   0.007 min)
XTB module                      ...        0.434 sec (=   0.007 min) 100.0 %
                             ****ORCA TERMINATED NORMALLY****
TOTAL RUN TIME: 0 days 0 hours 1 minutes 53 seconds 542 msec
(SLURM) EXECUTION TIME: 113.561091519 seconds.
