(SLURM) JOB ID:         269

                                 *****************
                                 * O   R   C   A *
                                 *****************

           --- An Ab Initio, DFT and Semiempirical electronic structure package ---

                  #######################################################
                  #                        -***-                        #
                  #          Department of theory and spectroscopy      #
                  #               Directorship: Frank Neese             #
                  #        Max Planck Institute fuer Kohlenforschung    #
                  #                Kaiser Wilhelm Platz 1               #
                  #                 D-45470 Muelheim/Ruhr               #
                  #                      Germany                        #
                  #                                                     #
                  #                  All rights reserved                #
                  #                        -***-                        #
                  #######################################################


                         Program Version 4.2.1 -  RELEASE  -


 With contributions from (in alphabetic order):
   Daniel Aravena         : Magnetic Suceptibility
   Michael Atanasov       : Ab Initio Ligand Field Theory (pilot matlab implementation)
   Alexander A. Auer      : GIAO ZORA, VPT2
   Ute Becker             : Parallelization
   Giovanni Bistoni       : ED, misc. LED, open-shell LED, HFLD
   Martin Brehm           : Molecular dynamics
   Dmytro Bykov           : SCF Hessian
   Vijay G. Chilkuri      : MRCI spin determinant printing, contributions to CSF-ICE
   Dipayan Datta          : RHF DLPNO-CCSD density
   Achintya Kumar Dutta   : EOM-CC, STEOM-CC
   Dmitry Ganyushin       : Spin-Orbit,Spin-Spin,Magnetic field MRCI
   Miquel Garcia          : C-PCM Hessian, Gaussian charge scheme
   Yang Guo               : DLPNO-NEVPT2, CIM, IAO-localization
   Andreas Hansen         : Spin unrestricted coupled pair/coupled cluster methods
   Benjamin Helmich-Paris : CASSCF linear response (MC-RPA)
   Lee Huntington         : MR-EOM, pCC
   Robert Izsak           : Overlap fitted RIJCOSX, COSX-SCS-MP3, EOM
   Christian Kollmar      : KDIIS, OOCD, Brueckner-CCSD(T), CCSD density
   Simone Kossmann        : Meta GGA functionals, TD-DFT gradient, OOMP2, MP2 Hessian
   Martin Krupicka        : AUTO-CI
   Lucas Lang             : DCDCAS
   Dagmar Lenk            : GEPOL surface, SMD
   Dimitrios Liakos       : Extrapolation schemes; Compound Job, initial MDCI parallelization
   Dimitrios Manganas     : Further ROCIS development; embedding schemes
   Dimitrios Pantazis     : SARC Basis sets
   Taras Petrenko         : DFT Hessian,TD-DFT gradient, ASA, ECA, R-Raman, ABS, FL, XAS/XES, NRVS
   Peter Pinski           : DLPNO-MP2, DLPNO-MP2 Gradient
   Christoph Reimann      : Effective Core Potentials
   Marius Retegan         : Local ZFS, SOC
   Christoph Riplinger    : Optimizer, TS searches, QM/MM, DLPNO-CCSD(T), (RO)-DLPNO pert. Triples
   Tobias Risthaus        : Range-separated hybrids, TD-DFT gradient, RPA, STAB
   Michael Roemelt        : Original ROCIS implementation
   Masaaki Saitow         : Open-shell DLPNO-CCSD energy and density
   Barbara Sandhoefer     : DKH picture change effects
   Avijit Sen             : IP-ROCIS
   Kantharuban Sivalingam : CASSCF convergence, NEVPT2, FIC-MRCI
   Bernardo de Souza      : ESD, SOC TD-DFT
   Georgi Stoychev        : AutoAux, RI-MP2 NMR
   Willem Van den Heuvel  : Paramagnetic NMR
   Boris Wezisla          : Elementary symmetry handling
   Frank Wennmohs         : Technical directorship


 We gratefully acknowledge several colleagues who have allowed us to
 interface, adapt or use parts of their codes:
   Stefan Grimme, W. Hujo, H. Kruse,             : VdW corrections, initial TS optimization,
                  C. Bannwarth                     DFT functionals, gCP, sTDA/sTD-DF
   Ed Valeev, F. Pavosevic, A. Kumar             : LibInt (2-el integral package), F12 methods
   Garnet Chan, S. Sharma, J. Yang, R. Olivares  : DMRG
   Ulf Ekstrom                                   : XCFun DFT Library
   Mihaly Kallay                                 : mrcc  (arbitrary order and MRCC methods)
   Andreas Klamt, Michael Diedenhofen            : otool_cosmo (COSMO solvation model)
   Jiri Pittner, Ondrej Demel                    : Mk-CCSD
   Frank Weinhold                                : gennbo (NPA and NBO analysis)
   Christopher J. Cramer and Donald G. Truhlar   : smd solvation model
   Lars Goerigk                                  : TD-DFT with DH, B97 family of functionals
   V. Asgeirsson, H. Jonsson                     : NEB implementation
   FAccTs GmbH                                   : IRC, NEB, NEB-TS, Multilevel, MM, QM/MM, CI optimization
   S Lehtola, MJT Oliveira, MAL Marques          : LibXC Library


 Your calculation uses the libint2 library for the computation of 2-el integrals
 For citations please refer to: http://libint.valeyev.net

 Your ORCA version has been built with support for libXC version: 4.2.3
 For citations please refer to: https://tddft.org/programs/libxc/

 This ORCA versions uses:
   CBLAS   interface :  Fast vector & matrix operations
   LAPACKE interface :  Fast linear algebra routines
   SCALAPACK package :  Parallel linear algebra routines




***************************************
The coordinates will be read from file: init.xyz
***************************************


Your calculation utilizes the SMD solvation module
Please cite in your paper:
A.V. Marenich, C.J. Cramer, D.G. Truhlar J. Phys. Chem. B, 113, (2009), 6378 

Your calculation utilizes the semiempirical GFN2-xTB method
Please cite in your paper:
C. Bannwarth, Ehlert S., S. Grimme,  J. Chem. Theory Comput., 15, (2019), 1652.
   

----- Orbital basis set information -----
Your calculation utilizes the basis: def2-SVP
   F. Weigend and R. Ahlrichs, Phys. Chem. Chem. Phys. 7, 3297 (2005).

================================================================================
                                        WARNINGS
                       Please study these warnings very carefully!
================================================================================

WARNING: Gradients needed for Numerical Frequencies
  ===> : Setting RunTyp to EnGrad

WARNING: The environment variable RSH_COMMAND is not set!
  ===> : All Displacements for the Numerical Hessian calculation
         will be started on localhost

WARNING: Found dipole moment calculation with XTB calculation
  ===> : Switching off dipole moment calculation


INFO   : the flag for use of LIBINT has been found!

================================================================================
                                       INPUT FILE
================================================================================
NAME = /tmp/slurm-scratch/freq.269/freq.inp
|  1> ! XTB2 NumFreq
|  2> %maxcore 1450
|  3> 
|  4> * xyzfile 0 1 init.xyz
|  5> 
|  6> %cpcm
|  7>  smd true
|  8>  smdsolvent "ch2cl2"
|  9> end
| 10> %pal nprocs 8 end
| 11> 
| 12>                          ****END OF INPUT****
================================================================================

                     *******************************
                     * Energy+Gradient Calculation *
                     *******************************

      -----------------------------------------------------------      
     |                   =====================                   |     
     |                           x T B                           |     
     |                   =====================                   |     
     |                         S. Grimme                         |     
     |          Mulliken Center for Theoretical Chemistry        |     
     |                    University of Bonn                     |     
      -----------------------------------------------------------      

   * xtb version 6.3.0 (preview) compiled by 'ehlert@majestix' on 2020-01-15

   This program is distributed in the hope that it will be useful,
   but WITHOUT ANY WARRANTY; without even the implied warranty of
   MERCHANTABILITY or FITNESS FOR A PARTICULAR PURPOSE.
   
   FOR NON-COMMERCIAL, ACADEMIA USE ONLY.
   
   Cite this work as:
   * S. Grimme, C. Bannwarth, P. Shushkov, J. Chem. Theory Comput., 2017,
     13, 1989-2009. DOI: 10.1021/acs.jctc.7b00118
   * C. Bannwarth, S. Ehlert and S. Grimme., J. Chem. Theory Comput., 2019,
     15, 1652-1671. DOI: 10.1021/acs.jctc.8b01176
   * P. Pracht, E. Caldeweyher, S. Ehlert, S. Grimme, ChemRxiv, 2019, preprint.
     DOI: 10.26434/chemrxiv.8326202.v1
   * S. Grimme, S. Spicher unpublished
   
   for DFT-D4:
   * E. Caldeweyher, C. Bannwarth and S. Grimme, J. Chem. Phys., 2017,
     147, 034112. DOI: 10.1063/1.4993215
   * E. Caldeweyher, S. Ehlert, A. Hansen, H. Neugebauer, S. Spicher,
     C. Bannwarth and S. Grimme, J. Chem. Phys., 2019, 150, 154122.
     DOI: 10.1063/1.5090222
   
   for sTDA-xTB:
   * S. Grimme and C. Bannwarth, J. Chem. Phys., 2016, 145, 054103.
     DOI: 10.1063/1.4959605
   
   in the mass-spec context:
   * V. Asgeirsson, C. Bauer and S. Grimme, Chem. Sci., 2017, 8, 4879.
     DOI: 10.1039/c7sc00601b
   
   for metadynamics refer to:
   * S. Grimme, J. Chem. Theory Comput., 2019, 155, 2847-2862
     DOI: 10.1021/acs.jctc.9b00143
   
   with help from (in alphabetical order)
   C. Bannwarth, F. Bohle, G. Brandenburg, E. Caldeweyher, M. Checinski,
   S. Dohm, S. Ehlert, S. Ehrlich, F. März, H. Neugebauer, J. Pisarek,
   P. Pracht, P. Shushkov, and S. Spicher.
   
 * started run on 2020/10/28 at 19:19:13.868     

           -------------------------------------------------
          |                Calculation Setup                |
           -------------------------------------------------

          program call               : /opt/orca/otool_xtb /tmp/slurm-scratch/freq.269/freq_XTB.xyz --grad -c 0 -u 0 -P 8 --namespace /tmp/slurm-scratch/freq.269/freq --gbsa CH2Cl2
          hostname                   : headnode-pbs
          calculation namespace      : /tmp/slurm-scratch/freq.269/freq
          coordinate file            : /tmp/slurm-scratch/freq.269/freq_XTB.xyz
          omp threads                :                     8
          number of atoms            :                    49
          number of electrons        :                   112
          charge                     :                     0
          spin                       :                   0.0
          first test random number   :      0.59672539528536


molecular fragmentation (1/2 indicates fragments):
1111111111111111111112221111122222222222222221111
# atoms in fragment 1/2:    30    19
 fragment masses (1/2) :      179.26       91.15
CMA distance (Bohr)    :   9.268
constraining FC (au)   :  0.0500

########################################################################
# WARNING! Please study the warnings concerning your input carefully
#  - Process number higher than OMP_NUM_THREADS, I hope you know what you are doing.
########################################################################

           ------------------------------------------------- 
          |                 G F N 2 - x T B                 |
          | Geometry, Frequencies, Noncovalent interactions |
          |            JCTC 2019 parametrisation            |
           ------------------------------------------------- 
             k(s)              :                1.8500
             k(p)              :                2.2300
             k(d)              :                2.2300
             k(f)              :                2.0000
             kEN (H0ij)        :               -2.0000
             D4 a1             :                0.5200
             D4 a2             :                5.0000
             D4 s6             :                1.0000
             D4 s8             :                2.7000
             D4 s9             :                5.0000
             alphaj            :                2.0000

  Z AO/shell   Hii/eV     exponent
  1     Wed Apr 25 08:07:45 CEST 2018   EN: 2.200 GM2: 0.406  GM3: 0.0800  RAES: 1.40
     1s    -10.707211    1.230000
  6     Wed Apr 25 08:07:45 CEST 2018   EN: 2.550 GM2: 0.538  GM3: 0.1500  RAES: 3.00
     2s    -13.970922    2.096432
     2p    -10.063292    1.800000
  7     Wed Apr 25 08:07:45 CEST 2018   EN: 3.040 GM2: 0.461  GM3:-0.0640  RAES: 1.90
     2s    -16.686243    2.339881
     2p    -12.523956    2.014332
  8     Wed Apr 25 08:07:45 CEST 2018   EN: 3.440 GM2: 0.452  GM3:-0.0517  RAES: 1.80
     2s    -20.229985    2.439742
     2p    -15.503117    2.137023

 Solvent             : CH2Cl2
 Using internal parameter file: .param_gbsa2_CH2Cl2
 Gsolv ref. state (COSMO-RS): gsolv [1 M gas/solution]
 temperature (mdtemp)       :    298.150000000000     
 dielectric constant        :    8.93000000000000     
 rho                        :    1.33000000000000     
 mass                       :    84.9300000000000     
 surface tension            :    15.5689454083859     
 probe radius               :   0.719875900000000     
 Gshift (Eh)                :   4.440829173451759E-003
 c1                         :    1.49173776000000     
 soset                      :   0.000000000000000E+000
 HB correction              :  F
           ------------------------------------------------- 
          |        Self-Consistent Charge Iterations        |
           ------------------------------------------------- 

          ...................................................
          :                      SETUP                      :
          :.................................................:
          :  # basis functions                 106          :
          :  # atomic orbitals                 106          :
          :  # shells                           68          :
          :  # electrons                       112          :
          :  max. iterations                   250          :
          :  Hamiltonian                  GFN2-xTB          :
          :  GBSA solvation                   true          :
          :  PC potential                    false          :
          :  electronic temp.          300.0000000     K    :
          :  accuracy                    1.0000000          :
          :  -> integral cutoff          0.2500000E+02      :
          :  -> integral neglect         0.1000000E-07      :
          :  -> SCF convergence          0.1000000E-05 Eh   :
          :  -> wf. convergence          0.1000000E-03 e    :
          :  Broyden damping             0.4000000          :
          ...................................................
  Checking positiv definite overlap ...  done.
 

 iter      E             dE          RMSdq      gap      omega  full diag
   1    -62.1436415 -0.621436E+02  0.324E+00    3.79       0.0  T
   2    -62.2075536 -0.639121E-01  0.182E+00    3.82       1.0  T
   3    -62.2082785 -0.724893E-03  0.635E-01    3.66       1.0  T
   4    -62.2095640 -0.128553E-02  0.220E-01    3.65       1.0  T
   5    -62.2116689 -0.210485E-02  0.660E-02    3.64       1.0  T
   6    -62.2117044 -0.355098E-04  0.266E-02    3.65       1.0  T
   7    -62.2117058 -0.141568E-05  0.990E-03    3.65       1.4  T
   8    -62.2117074 -0.165389E-05  0.320E-03    3.65       4.5  T
   9    -62.2117076 -0.189194E-06  0.147E-03    3.65       9.7  T
  10    -62.2117076 -0.437447E-08  0.538E-04    3.65      26.5  T
  11    -62.2117076 -0.521882E-08  0.193E-04    3.65      73.9  T

   *** convergence criteria satisfied after 11 iterations ***

         #    Occupation            Energy/Eh            Energy/eV
      -------------------------------------------------------------
         1        2.0000           -0.7012665             -19.0824
       ...           ...                  ...                  ...
        50        2.0000           -0.4242696             -11.5450
        51        2.0000           -0.4204522             -11.4411
        52        2.0000           -0.4166897             -11.3387
        53        2.0000           -0.4063243             -11.0566
        54        2.0000           -0.4033253             -10.9750
        55        2.0000           -0.3784547             -10.2983
        56        2.0000           -0.3642610              -9.9120 (HOMO)
        57                         -0.2301342              -6.2623 (LUMO)
        58                         -0.2273507              -6.1865
        59                         -0.1030673              -2.8046
        60                         -0.0097956              -0.2666
        61                          0.0167279               0.4552
       ...                                ...                  ...
       106                          0.6447018              17.5432
      -------------------------------------------------------------
                  HL-Gap            0.1341268 Eh            3.6498 eV
             Fermi-level           -0.2971976 Eh           -8.0872 eV

 SCC (total)                   0 d,  0 h,  0 min,  0.405 sec
 SCC setup                      ...        0 min,  0.006 sec (  1.448%)
 Dispersion                     ...        0 min,  0.006 sec (  1.471%)
 integral evaluation            ...        0 min,  0.049 sec ( 11.991%)
 zeroth order Hamiltonian       ...        0 min,  0.000 sec (  0.004%)
 iterations                     ...        0 min,  0.269 sec ( 66.259%)
 molecular gradient             ...        0 min,  0.075 sec ( 18.513%)
 printout                       ...        0 min,  0.001 sec (  0.277%)

         :::::::::::::::::::::::::::::::::::::::::::::::::::::
         ::                     SUMMARY                     ::
         :::::::::::::::::::::::::::::::::::::::::::::::::::::
         :: total energy             -61.400319062542 Eh    ::
         :: total w/o Gsasa/hb       -61.375443214479 Eh    ::
         :: gradient norm              0.027222086035 Eh/a0 ::
         :: HOMO-LUMO gap              3.649775089127 eV    ::
         ::.................................................::
         :: SCC energy               -62.236583487674 Eh    ::
         :: -> isotropic ES            0.090382583859 Eh    ::
         :: -> anisotropic ES          0.003568538407 Eh    ::
         :: -> anisotropic XC          0.034914794787 Eh    ::
         :: -> dispersion             -0.039022663707 Eh    ::
         :: -> Gsolv                  -0.032221827294 Eh    ::
         ::    -> Gborn               -0.007345979231 Eh    ::
         ::    -> Gsasa               -0.029316677236 Eh    ::
         ::    -> Ghb                  0.000000000000 Eh    ::
         ::    -> Gshift               0.004440829173 Eh    ::
         :: repulsion energy           0.835667563928 Eh    ::
         :: add. restraining           0.000000000000 Eh    ::
         :::::::::::::::::::::::::::::::::::::::::::::::::::::

           -------------------------------------------------
          |                Property Printout                |
           -------------------------------------------------

    * Orbital Energies and Occupations

         #    Occupation            Energy/Eh            Energy/eV
      -------------------------------------------------------------
         1        2.0000           -0.7012665             -19.0824
       ...           ...                  ...                  ...
        44        2.0000           -0.4415764             -12.0159
        45        2.0000           -0.4385280             -11.9330
        46        2.0000           -0.4376301             -11.9085
        47        2.0000           -0.4359437             -11.8626
        48        2.0000           -0.4344542             -11.8221
        49        2.0000           -0.4249604             -11.5638
        50        2.0000           -0.4242696             -11.5450
        51        2.0000           -0.4204522             -11.4411
        52        2.0000           -0.4166897             -11.3387
        53        2.0000           -0.4063243             -11.0566
        54        2.0000           -0.4033253             -10.9750
        55        2.0000           -0.3784547             -10.2983
        56        2.0000           -0.3642610              -9.9120 (HOMO)
        57                         -0.2301342              -6.2623 (LUMO)
        58                         -0.2273507              -6.1865
        59                         -0.1030673              -2.8046
        60                         -0.0097956              -0.2666
        61                          0.0167279               0.4552
        62                          0.0287338               0.7819
        63                          0.0607136               1.6521
        64                          0.0849537               2.3117
        65                          0.0916514               2.4940
        66                          0.1026141               2.7923
        67                          0.1042705               2.8373
       ...                                ...                  ...
       106                          0.6447018              17.5432
      -------------------------------------------------------------
                  HL-Gap            0.1341268 Eh            3.6498 eV
             Fermi-level           -0.2971976 Eh           -8.0872 eV

     #   Z        covCN         q      C6AA      α(0)
     1   6 C      2.968    -0.014    28.367     8.736
     2   6 C      2.918    -0.036    28.891     8.814
     3   6 C      2.915    -0.032    28.792     8.799
     4   6 C      2.915    -0.031    28.775     8.796
     5   6 C      2.914    -0.029    28.727     8.789
     6   6 C      2.920    -0.037    28.909     8.817
     7   6 C      3.666     0.176    18.011     6.086
     8   1 H      0.926     0.045     2.378     2.412
     9   1 H      0.925     0.039     2.469     2.457
    10   1 H      0.925     0.041     2.437     2.441
    11   7 N      2.683    -0.291    27.487     7.787
    12   6 C      3.741     0.018    20.346     6.436
    13   1 H      0.859     0.187     1.176     1.699
    14   6 C      3.803    -0.071    21.850     6.655
    15   1 H      0.924     0.031     2.573     2.509
    16   1 H      0.924     0.012     2.855     2.643
    17   1 H      0.924     0.040     2.447     2.446
    18   1 H      0.924     0.043     2.403     2.424
    19   8 O      1.648    -0.502    22.947     6.466
    20   1 H      0.924     0.022     2.710     2.574
    21   1 H      0.805     0.301     0.717     1.330
    22   8 O      1.608    -0.622    25.722     6.845
    23   1 H      0.803     0.317     0.673     1.288
    24   1 H      0.805     0.286     0.764     1.373
    25   1 H      0.925     0.043     2.414     2.430
    26   1 H      0.925     0.039     2.464     2.455
    27   6 C      3.800    -0.053    21.519     6.605
    28   1 H      0.924     0.030     2.593     2.518
    29   1 H      0.924     0.032     2.559     2.502
    30   7 N      2.627    -0.379    29.803     8.108
    31   1 H      0.860     0.169     1.282     1.773
    32   1 H      0.860     0.139     1.482     1.907
    33   6 C      3.731     0.017    20.389     6.445
    34   1 H      0.924     0.032     2.562     2.503
    35   1 H      0.924     0.030     2.585     2.515
    36   6 C      3.800    -0.067    21.786     6.646
    37   1 H      0.924     0.030     2.580     2.512
    38   1 H      0.924     0.028     2.616     2.529
    39   6 C      3.799    -0.054    21.544     6.609
    40   1 H      0.924     0.031     2.574     2.509
    41   1 H      0.924     0.031     2.569     2.506
    42   6 C      3.749    -0.101    22.503     6.765
    43   1 H      0.924     0.034     2.528     2.486
    44   1 H      0.924     0.036     2.497     2.471
    45   1 H      0.924     0.034     2.527     2.486
    46   6 C      3.750    -0.103    22.540     6.771
    47   1 H      0.924     0.036     2.507     2.476
    48   1 H      0.924     0.037     2.489     2.467
    49   1 H      0.924     0.037     2.493     2.469

 Mol. C6AA /au·bohr⁶  :      19045.591696
 Mol. C8AA /au·bohr⁸  :     412722.830251
 Mol. α(0) /au        :        210.086012


Wiberg/Mayer (AO) data.
largest (>0.10) Wiberg bond orders for each atom
          total WBO             WBO to atom ...
     1  C   3.985        C    2 1.423    C    6 1.410    C    7 0.978    C    4 0.110
     2  C   3.991        C    3 1.436    C    1 1.423    H    8 0.966    C    5 0.111
     3  C   3.991        C    4 1.445    C    2 1.436    H   26 0.971    C    6 0.113
     4  C   3.991        C    3 1.445    C    5 1.433    H   10 0.971    C    1 0.110
     5  C   3.991        C    6 1.449    C    4 1.433    H   25 0.970    C    2 0.111
     6  C   3.990        C    5 1.449    C    1 1.410    H    9 0.969    C    3 0.113
     7  C   3.945        N   11 1.051    C    1 0.978    H   20 0.955    O   19 0.907
     8  H   0.998        C    2 0.966
     9  H   0.999        C    6 0.969
    10  H   0.998        C    4 0.971
    11  N   3.105        C    7 1.051    C   12 1.000    H   13 0.912
    12  C   3.982        C   14 1.003    N   11 1.000    H   15 0.974    H   16 0.969
    13  H   0.965        N   11 0.912
    14  C   3.994        C   27 1.007    C   12 1.003    H   18 0.976    H   17 0.974
    15  H   0.999        C   12 0.974
    16  H   1.000        C   12 0.969
    17  H   0.998        C   14 0.974
    18  H   0.998        C   14 0.976
    19  O   1.954        C    7 0.907    H   21 0.893
    20  H   0.999        C    7 0.955
    21  H   0.909        O   19 0.893
    22  O   1.823        H   24 0.917    H   23 0.853
    23  H   0.900        O   22 0.853
    24  H   0.918        O   22 0.917
    25  H   0.998        C    5 0.970
    26  H   0.998        C    3 0.971
    27  C   3.997        C   46 1.019    C   14 1.007    H   29 0.978    H   28 0.978
    28  H   0.999        C   27 0.978
    29  H   0.999        C   27 0.978
    30  N   3.028        C   33 1.020    H   32 0.967    H   31 0.942
    31  H   0.972        N   30 0.942
    32  H   0.981        N   30 0.967
    33  C   3.984        N   30 1.020    C   36 0.997    H   35 0.975    H   34 0.974
    34  H   0.999        C   33 0.974
    35  H   0.999        C   33 0.975
    36  C   3.996        C   39 1.007    C   33 0.997    H   38 0.977    H   37 0.977
    37  H   0.999        C   36 0.977
    38  H   0.999        C   36 0.977
    39  C   3.997        C   42 1.019    C   36 1.007    H   40 0.978    H   41 0.978
    40  H   0.999        C   39 0.978
    41  H   0.999        C   39 0.978
    42  C   3.996        C   39 1.019    H   45 0.988    H   43 0.988    H   44 0.987
    43  H   0.999        C   42 0.988
    44  H   0.998        C   42 0.987
    45  H   0.999        C   42 0.988
    46  C   3.996        C   27 1.019    H   47 0.988    H   49 0.988    H   48 0.987
    47  H   0.999        C   46 0.988
    48  H   0.998        C   46 0.987
    49  H   0.999        C   46 0.988

molecular dipole:
                 x           y           z       tot (Debye)
 q only:        0.201      -0.467      -0.164
   full:        0.115      -0.042      -0.235       0.673
molecular quadrupole (traceless):
                xx          xy          yy          xz          yz          zz
 q only:        6.868       4.250      -7.697       2.144      -0.564       0.830
  q+dip:        5.869      -0.581     -10.979       0.930      -1.646       5.109
   full:        7.433       1.677     -11.263       0.302      -2.623       3.830

           -------------------------------------------------
          |                Property Printout                |
           -------------------------------------------------

    * Orbital Energies and Occupations

         #    Occupation            Energy/Eh            Energy/eV
      -------------------------------------------------------------
         1        2.0000           -0.7012665             -19.0824
       ...           ...                  ...                  ...
        44        2.0000           -0.4415764             -12.0159
        45        2.0000           -0.4385280             -11.9330
        46        2.0000           -0.4376301             -11.9085
        47        2.0000           -0.4359437             -11.8626
        48        2.0000           -0.4344542             -11.8221
        49        2.0000           -0.4249604             -11.5638
        50        2.0000           -0.4242696             -11.5450
        51        2.0000           -0.4204522             -11.4411
        52        2.0000           -0.4166897             -11.3387
        53        2.0000           -0.4063243             -11.0566
        54        2.0000           -0.4033253             -10.9750
        55        2.0000           -0.3784547             -10.2983
        56        2.0000           -0.3642610              -9.9120 (HOMO)
        57                         -0.2301342              -6.2623 (LUMO)
        58                         -0.2273507              -6.1865
        59                         -0.1030673              -2.8046
        60                         -0.0097956              -0.2666
        61                          0.0167279               0.4552
        62                          0.0287338               0.7819
        63                          0.0607136               1.6521
        64                          0.0849537               2.3117
        65                          0.0916514               2.4940
        66                          0.1026141               2.7923
        67                          0.1042705               2.8373
       ...                                ...                  ...
       106                          0.6447018              17.5432
      -------------------------------------------------------------
                  HL-Gap            0.1341268 Eh            3.6498 eV
             Fermi-level           -0.2971976 Eh           -8.0872 eV

     #   Z        covCN         q      C6AA      α(0)
     1   6 C      2.968    -0.014    28.367     8.736
     2   6 C      2.918    -0.036    28.891     8.814
     3   6 C      2.915    -0.032    28.792     8.799
     4   6 C      2.915    -0.031    28.775     8.796
     5   6 C      2.914    -0.029    28.727     8.789
     6   6 C      2.920    -0.037    28.909     8.817
     7   6 C      3.666     0.176    18.011     6.086
     8   1 H      0.926     0.045     2.378     2.412
     9   1 H      0.925     0.039     2.469     2.457
    10   1 H      0.925     0.041     2.437     2.441
    11   7 N      2.683    -0.291    27.487     7.787
    12   6 C      3.741     0.018    20.346     6.436
    13   1 H      0.859     0.187     1.176     1.699
    14   6 C      3.803    -0.071    21.850     6.655
    15   1 H      0.924     0.031     2.573     2.509
    16   1 H      0.924     0.012     2.855     2.643
    17   1 H      0.924     0.040     2.447     2.446
    18   1 H      0.924     0.043     2.403     2.424
    19   8 O      1.648    -0.502    22.947     6.466
    20   1 H      0.924     0.022     2.710     2.574
    21   1 H      0.805     0.301     0.717     1.330
    22   8 O      1.608    -0.622    25.722     6.845
    23   1 H      0.803     0.317     0.673     1.288
    24   1 H      0.805     0.286     0.764     1.373
    25   1 H      0.925     0.043     2.414     2.430
    26   1 H      0.925     0.039     2.464     2.455
    27   6 C      3.800    -0.053    21.519     6.605
    28   1 H      0.924     0.030     2.593     2.518
    29   1 H      0.924     0.032     2.559     2.502
    30   7 N      2.627    -0.379    29.803     8.108
    31   1 H      0.860     0.169     1.282     1.773
    32   1 H      0.860     0.139     1.482     1.907
    33   6 C      3.731     0.017    20.389     6.445
    34   1 H      0.924     0.032     2.562     2.503
    35   1 H      0.924     0.030     2.585     2.515
    36   6 C      3.800    -0.067    21.786     6.646
    37   1 H      0.924     0.030     2.580     2.512
    38   1 H      0.924     0.028     2.616     2.529
    39   6 C      3.799    -0.054    21.544     6.609
    40   1 H      0.924     0.031     2.574     2.509
    41   1 H      0.924     0.031     2.569     2.506
    42   6 C      3.749    -0.101    22.503     6.765
    43   1 H      0.924     0.034     2.528     2.486
    44   1 H      0.924     0.036     2.497     2.471
    45   1 H      0.924     0.034     2.527     2.486
    46   6 C      3.750    -0.103    22.540     6.771
    47   1 H      0.924     0.036     2.507     2.476
    48   1 H      0.924     0.037     2.489     2.467
    49   1 H      0.924     0.037     2.493     2.469

 Mol. C6AA /au·bohr⁶  :      19045.591696
 Mol. C8AA /au·bohr⁸  :     412722.830251
 Mol. α(0) /au        :        210.086012


Wiberg/Mayer (AO) data.
largest (>0.10) Wiberg bond orders for each atom
          total WBO             WBO to atom ...
     1  C   3.985        C    2 1.423    C    6 1.410    C    7 0.978    C    4 0.110
     2  C   3.991        C    3 1.436    C    1 1.423    H    8 0.966    C    5 0.111
     3  C   3.991        C    4 1.445    C    2 1.436    H   26 0.971    C    6 0.113
     4  C   3.991        C    3 1.445    C    5 1.433    H   10 0.971    C    1 0.110
     5  C   3.991        C    6 1.449    C    4 1.433    H   25 0.970    C    2 0.111
     6  C   3.990        C    5 1.449    C    1 1.410    H    9 0.969    C    3 0.113
     7  C   3.945        N   11 1.051    C    1 0.978    H   20 0.955    O   19 0.907
     8  H   0.998        C    2 0.966
     9  H   0.999        C    6 0.969
    10  H   0.998        C    4 0.971
    11  N   3.105        C    7 1.051    C   12 1.000    H   13 0.912
    12  C   3.982        C   14 1.003    N   11 1.000    H   15 0.974    H   16 0.969
    13  H   0.965        N   11 0.912
    14  C   3.994        C   27 1.007    C   12 1.003    H   18 0.976    H   17 0.974
    15  H   0.999        C   12 0.974
    16  H   1.000        C   12 0.969
    17  H   0.998        C   14 0.974
    18  H   0.998        C   14 0.976
    19  O   1.954        C    7 0.907    H   21 0.893
    20  H   0.999        C    7 0.955
    21  H   0.909        O   19 0.893
    22  O   1.823        H   24 0.917    H   23 0.853
    23  H   0.900        O   22 0.853
    24  H   0.918        O   22 0.917
    25  H   0.998        C    5 0.970
    26  H   0.998        C    3 0.971
    27  C   3.997        C   46 1.019    C   14 1.007    H   29 0.978    H   28 0.978
    28  H   0.999        C   27 0.978
    29  H   0.999        C   27 0.978
    30  N   3.028        C   33 1.020    H   32 0.967    H   31 0.942
    31  H   0.972        N   30 0.942
    32  H   0.981        N   30 0.967
    33  C   3.984        N   30 1.020    C   36 0.997    H   35 0.975    H   34 0.974
    34  H   0.999        C   33 0.974
    35  H   0.999        C   33 0.975
    36  C   3.996        C   39 1.007    C   33 0.997    H   38 0.977    H   37 0.977
    37  H   0.999        C   36 0.977
    38  H   0.999        C   36 0.977
    39  C   3.997        C   42 1.019    C   36 1.007    H   40 0.978    H   41 0.978
    40  H   0.999        C   39 0.978
    41  H   0.999        C   39 0.978
    42  C   3.996        C   39 1.019    H   45 0.988    H   43 0.988    H   44 0.987
    43  H   0.999        C   42 0.988
    44  H   0.998        C   42 0.987
    45  H   0.999        C   42 0.988
    46  C   3.996        C   27 1.019    H   47 0.988    H   49 0.988    H   48 0.987
    47  H   0.999        C   46 0.988
    48  H   0.998        C   46 0.987
    49  H   0.999        C   46 0.988

molecular dipole:
                 x           y           z       tot (Debye)
 q only:        0.201      -0.467      -0.164
   full:        0.115      -0.042      -0.235       0.673
molecular quadrupole (traceless):
                xx          xy          yy          xz          yz          zz
 q only:        6.868       4.250      -7.697       2.144      -0.564       0.830
  q+dip:        5.869      -0.581     -10.979       0.930      -1.646       5.109
   full:        7.433       1.677     -11.263       0.302      -2.623       3.830


           -------------------------------------------------
          | TOTAL ENERGY              -61.400319062542 Eh   |
          | GRADIENT NORM               0.027222086035 Eh/α |
          | HOMO-LUMO GAP               3.649775089127 eV   |
           -------------------------------------------------

------------------------------------------------------------------------
 * finished run on 2020/10/28 at 19:19:14.476     
------------------------------------------------------------------------
 total:
 * wall-time:     0 d,  0 h,  0 min,  0.609 sec
 *  cpu-time:     0 d,  0 h,  0 min,  2.150 sec
 * ratio c/w:     3.531 speedup
 SCF:
 * wall-time:     0 d,  0 h,  0 min,  0.407 sec
 *  cpu-time:     0 d,  0 h,  0 min,  1.474 sec
 * ratio c/w:     3.620 speedup


-------------------------   --------------------
FINAL SINGLE POINT ENERGY       -61.400319062540
-------------------------   --------------------


----------------------------------------------------------------------------
                           ORCA NUMERICAL FREQUENCIES
                              (8-process run)
----------------------------------------------------------------------------

Number of atoms                ... 49
Central differences            ... used
Number of displacements        ... 294
Numerical increment            ... 5.000e-03 bohr
IR-spectrum generation         ... on
Raman-spectrum generation      ... off
Surface Crossing Hessian       ... off
List of participating nodes    ...  /tmp/slurm-scratch/freq.269/freq.hostnames

The output will be reduced. Please look at the following files:
SCF program output             ... >/tmp/slurm-scratch/freq.269/freq.lastscf
Integral program output        ... >/tmp/slurm-scratch/freq.269/freq.lastint
Gradient program output        ... >/tmp/slurm-scratch/freq.269/freq.lastgrad
Dipole moment program output   ... >/tmp/slurm-scratch/freq.269/freq.lastmom
AutoCI program output          ... >/tmp/slurm-scratch/freq.269/freq.lastautoci


         <<< Energy and Gradient at the input geometry >>>

        <<< Energy and Gradient at displaced geometries >>>
             <<<Displacing   1/coordinate 1 (+)>>>
             <<<Displacing   1/coordinate 1 (-)>>>
             <<<Displacing   3/coordinate 1 (+)>>>
             <<<Displacing   1/coordinate 2 (+)>>>
             <<<Displacing   1/coordinate 2 (-)>>>
             <<<Displacing   3/coordinate 1 (-)>>>
             <<<Displacing   2/coordinate 1 (+)>>>
             <<<Displacing   2/coordinate 2 (+)>>>
             <<<Displacing   2/coordinate 3 (+)>>>
             <<<Displacing   2/coordinate 1 (-)>>>
             <<<Displacing   3/coordinate 2 (+)>>>
             <<<Displacing   2/coordinate 2 (-)>>>
             <<<Displacing   1/coordinate 3 (+)>>>
             <<<Displacing   2/coordinate 3 (-)>>>
             <<<Displacing   3/coordinate 2 (-)>>>
             <<<Displacing   1/coordinate 3 (-)>>>
             <<<Displacing   3/coordinate 3 (+)>>>
             <<<Displacing   3/coordinate 3 (-)>>>
             <<<Displacing   4/coordinate 2 (+)>>>
             <<<Displacing   4/coordinate 2 (-)>>>
             <<<Displacing   4/coordinate 1 (+)>>>
             <<<Displacing   4/coordinate 1 (-)>>>
             <<<Displacing   5/coordinate 3 (+)>>>
             <<<Displacing   4/coordinate 3 (+)>>>
             <<<Displacing   5/coordinate 3 (-)>>>
             <<<Displacing   4/coordinate 3 (-)>>>
             <<<Displacing   5/coordinate 1 (+)>>>
             <<<Displacing   5/coordinate 2 (+)>>>
             <<<Displacing   5/coordinate 1 (-)>>>
             <<<Displacing   6/coordinate 1 (+)>>>
             <<<Displacing   5/coordinate 2 (-)>>>
             <<<Displacing   6/coordinate 1 (-)>>>
             <<<Displacing   6/coordinate 2 (+)>>>
             <<<Displacing   6/coordinate 2 (-)>>>
             <<<Displacing   6/coordinate 3 (+)>>>
             <<<Displacing   6/coordinate 3 (-)>>>
             <<<Displacing   7/coordinate 2 (+)>>>
             <<<Displacing   7/coordinate 2 (-)>>>
             <<<Displacing   7/coordinate 1 (+)>>>
             <<<Displacing   7/coordinate 1 (-)>>>
             <<<Displacing   7/coordinate 3 (+)>>>
             <<<Displacing   8/coordinate 2 (+)>>>
             <<<Displacing   7/coordinate 3 (-)>>>
             <<<Displacing   8/coordinate 1 (+)>>>
             <<<Displacing   8/coordinate 2 (-)>>>
             <<<Displacing   8/coordinate 1 (-)>>>
             <<<Displacing   8/coordinate 3 (+)>>>
             <<<Displacing   8/coordinate 3 (-)>>>
             <<<Displacing   9/coordinate 1 (+)>>>
             <<<Displacing   9/coordinate 1 (-)>>>
             <<<Displacing   9/coordinate 2 (+)>>>
             <<<Displacing   9/coordinate 3 (+)>>>
             <<<Displacing   9/coordinate 3 (-)>>>
             <<<Displacing   9/coordinate 2 (-)>>>
             <<<Displacing  10/coordinate 1 (+)>>>
             <<<Displacing  10/coordinate 1 (-)>>>
             <<<Displacing  10/coordinate 2 (+)>>>
             <<<Displacing  10/coordinate 2 (-)>>>
             <<<Displacing  10/coordinate 3 (+)>>>
             <<<Displacing  10/coordinate 3 (-)>>>
             <<<Displacing  11/coordinate 1 (+)>>>
             <<<Displacing  11/coordinate 2 (+)>>>
             <<<Displacing  11/coordinate 1 (-)>>>
             <<<Displacing  11/coordinate 2 (-)>>>
             <<<Displacing  11/coordinate 3 (+)>>>
             <<<Displacing  11/coordinate 3 (-)>>>
             <<<Displacing  12/coordinate 1 (+)>>>
             <<<Displacing  12/coordinate 1 (-)>>>
             <<<Displacing  12/coordinate 3 (+)>>>
             <<<Displacing  12/coordinate 2 (+)>>>
             <<<Displacing  12/coordinate 3 (-)>>>
             <<<Displacing  12/coordinate 2 (-)>>>
             <<<Displacing  13/coordinate 2 (+)>>>
             <<<Displacing  13/coordinate 1 (+)>>>
             <<<Displacing  13/coordinate 2 (-)>>>
             <<<Displacing  13/coordinate 1 (-)>>>
             <<<Displacing  13/coordinate 3 (+)>>>
             <<<Displacing  13/coordinate 3 (-)>>>
             <<<Displacing  14/coordinate 1 (+)>>>
             <<<Displacing  14/coordinate 1 (-)>>>
             <<<Displacing  14/coordinate 2 (+)>>>
             <<<Displacing  14/coordinate 2 (-)>>>
             <<<Displacing  15/coordinate 1 (+)>>>
             <<<Displacing  15/coordinate 1 (-)>>>
             <<<Displacing  14/coordinate 3 (+)>>>
             <<<Displacing  14/coordinate 3 (-)>>>
             <<<Displacing  15/coordinate 3 (+)>>>
             <<<Displacing  15/coordinate 2 (+)>>>
             <<<Displacing  15/coordinate 3 (-)>>>
             <<<Displacing  15/coordinate 2 (-)>>>
             <<<Displacing  16/coordinate 1 (+)>>>
             <<<Displacing  16/coordinate 2 (+)>>>
             <<<Displacing  16/coordinate 1 (-)>>>
             <<<Displacing  16/coordinate 2 (-)>>>
             <<<Displacing  16/coordinate 3 (+)>>>
             <<<Displacing  16/coordinate 3 (-)>>>
             <<<Displacing  17/coordinate 1 (+)>>>
             <<<Displacing  17/coordinate 1 (-)>>>
             <<<Displacing  17/coordinate 2 (+)>>>
             <<<Displacing  17/coordinate 3 (+)>>>
             <<<Displacing  17/coordinate 2 (-)>>>
             <<<Displacing  17/coordinate 3 (-)>>>
             <<<Displacing  18/coordinate 1 (+)>>>
             <<<Displacing  18/coordinate 2 (+)>>>
             <<<Displacing  18/coordinate 1 (-)>>>
             <<<Displacing  18/coordinate 2 (-)>>>
             <<<Displacing  18/coordinate 3 (+)>>>
             <<<Displacing  18/coordinate 3 (-)>>>
             <<<Displacing  19/coordinate 1 (+)>>>
             <<<Displacing  19/coordinate 2 (+)>>>
             <<<Displacing  19/coordinate 1 (-)>>>
             <<<Displacing  19/coordinate 2 (-)>>>
             <<<Displacing  20/coordinate 1 (+)>>>
             <<<Displacing  20/coordinate 1 (-)>>>
             <<<Displacing  19/coordinate 3 (+)>>>
             <<<Displacing  19/coordinate 3 (-)>>>
             <<<Displacing  20/coordinate 2 (+)>>>
             <<<Displacing  20/coordinate 2 (-)>>>
             <<<Displacing  20/coordinate 3 (+)>>>
             <<<Displacing  21/coordinate 1 (+)>>>
             <<<Displacing  20/coordinate 3 (-)>>>
             <<<Displacing  21/coordinate 1 (-)>>>
             <<<Displacing  21/coordinate 3 (+)>>>
             <<<Displacing  22/coordinate 1 (+)>>>
             <<<Displacing  21/coordinate 2 (+)>>>
             <<<Displacing  21/coordinate 3 (-)>>>
             <<<Displacing  21/coordinate 2 (-)>>>
             <<<Displacing  22/coordinate 1 (-)>>>
             <<<Displacing  22/coordinate 3 (+)>>>
             <<<Displacing  22/coordinate 3 (-)>>>
             <<<Displacing  22/coordinate 2 (+)>>>
             <<<Displacing  22/coordinate 2 (-)>>>
             <<<Displacing  23/coordinate 1 (+)>>>
             <<<Displacing  23/coordinate 1 (-)>>>
             <<<Displacing  24/coordinate 1 (+)>>>
             <<<Displacing  24/coordinate 1 (-)>>>
             <<<Displacing  23/coordinate 2 (+)>>>
             <<<Displacing  23/coordinate 2 (-)>>>
             <<<Displacing  23/coordinate 3 (+)>>>
             <<<Displacing  23/coordinate 3 (-)>>>
             <<<Displacing  24/coordinate 2 (+)>>>
             <<<Displacing  24/coordinate 2 (-)>>>
             <<<Displacing  24/coordinate 3 (+)>>>
             <<<Displacing  24/coordinate 3 (-)>>>
             <<<Displacing  25/coordinate 1 (+)>>>
             <<<Displacing  25/coordinate 1 (-)>>>
             <<<Displacing  25/coordinate 2 (+)>>>
             <<<Displacing  25/coordinate 2 (-)>>>
             <<<Displacing  25/coordinate 3 (+)>>>
             <<<Displacing  25/coordinate 3 (-)>>>
             <<<Displacing  26/coordinate 1 (+)>>>
             <<<Displacing  26/coordinate 1 (-)>>>
             <<<Displacing  26/coordinate 2 (+)>>>
             <<<Displacing  26/coordinate 2 (-)>>>
             <<<Displacing  26/coordinate 3 (+)>>>
             <<<Displacing  26/coordinate 3 (-)>>>
             <<<Displacing  27/coordinate 1 (+)>>>
             <<<Displacing  27/coordinate 1 (-)>>>
             <<<Displacing  27/coordinate 2 (+)>>>
             <<<Displacing  27/coordinate 2 (-)>>>
             <<<Displacing  27/coordinate 3 (+)>>>
             <<<Displacing  27/coordinate 3 (-)>>>
             <<<Displacing  29/coordinate 1 (+)>>>
             <<<Displacing  29/coordinate 1 (-)>>>
             <<<Displacing  28/coordinate 1 (+)>>>
             <<<Displacing  28/coordinate 1 (-)>>>
             <<<Displacing  28/coordinate 2 (+)>>>
             <<<Displacing  28/coordinate 3 (+)>>>
             <<<Displacing  28/coordinate 2 (-)>>>
             <<<Displacing  28/coordinate 3 (-)>>>
             <<<Displacing  29/coordinate 2 (+)>>>
             <<<Displacing  29/coordinate 2 (-)>>>
             <<<Displacing  30/coordinate 1 (+)>>>
             <<<Displacing  30/coordinate 1 (-)>>>
             <<<Displacing  29/coordinate 3 (+)>>>
             <<<Displacing  30/coordinate 2 (+)>>>
             <<<Displacing  29/coordinate 3 (-)>>>
             <<<Displacing  30/coordinate 2 (-)>>>
             <<<Displacing  31/coordinate 1 (+)>>>
             <<<Displacing  31/coordinate 1 (-)>>>
             <<<Displacing  30/coordinate 3 (+)>>>
             <<<Displacing  30/coordinate 3 (-)>>>
             <<<Displacing  31/coordinate 3 (+)>>>
             <<<Displacing  31/coordinate 3 (-)>>>
             <<<Displacing  31/coordinate 2 (+)>>>
             <<<Displacing  31/coordinate 2 (-)>>>
             <<<Displacing  32/coordinate 1 (+)>>>
             <<<Displacing  32/coordinate 1 (-)>>>
             <<<Displacing  33/coordinate 1 (+)>>>
             <<<Displacing  32/coordinate 2 (+)>>>
             <<<Displacing  33/coordinate 1 (-)>>>
             <<<Displacing  32/coordinate 2 (-)>>>
             <<<Displacing  32/coordinate 3 (+)>>>
             <<<Displacing  32/coordinate 3 (-)>>>
             <<<Displacing  33/coordinate 2 (+)>>>
             <<<Displacing  33/coordinate 2 (-)>>>
             <<<Displacing  33/coordinate 3 (+)>>>
             <<<Displacing  33/coordinate 3 (-)>>>
             <<<Displacing  34/coordinate 1 (+)>>>
             <<<Displacing  34/coordinate 1 (-)>>>
             <<<Displacing  34/coordinate 2 (+)>>>
             <<<Displacing  34/coordinate 2 (-)>>>
             <<<Displacing  34/coordinate 3 (+)>>>
             <<<Displacing  34/coordinate 3 (-)>>>
             <<<Displacing  36/coordinate 1 (+)>>>
             <<<Displacing  35/coordinate 1 (+)>>>
             <<<Displacing  35/coordinate 2 (+)>>>
             <<<Displacing  36/coordinate 1 (-)>>>
             <<<Displacing  35/coordinate 1 (-)>>>
             <<<Displacing  35/coordinate 2 (-)>>>
             <<<Displacing  35/coordinate 3 (+)>>>
             <<<Displacing  35/coordinate 3 (-)>>>
             <<<Displacing  36/coordinate 2 (+)>>>
             <<<Displacing  36/coordinate 2 (-)>>>
             <<<Displacing  37/coordinate 1 (+)>>>
             <<<Displacing  37/coordinate 1 (-)>>>
             <<<Displacing  36/coordinate 3 (+)>>>
             <<<Displacing  36/coordinate 3 (-)>>>
             <<<Displacing  37/coordinate 2 (+)>>>
             <<<Displacing  37/coordinate 2 (-)>>>
             <<<Displacing  37/coordinate 3 (+)>>>
             <<<Displacing  37/coordinate 3 (-)>>>
             <<<Displacing  38/coordinate 1 (+)>>>
             <<<Displacing  38/coordinate 2 (+)>>>
             <<<Displacing  38/coordinate 1 (-)>>>
             <<<Displacing  38/coordinate 2 (-)>>>
             <<<Displacing  38/coordinate 3 (+)>>>
             <<<Displacing  38/coordinate 3 (-)>>>
             <<<Displacing  39/coordinate 1 (+)>>>
             <<<Displacing  39/coordinate 3 (+)>>>
             <<<Displacing  39/coordinate 1 (-)>>>
             <<<Displacing  39/coordinate 3 (-)>>>
             <<<Displacing  39/coordinate 2 (+)>>>
             <<<Displacing  40/coordinate 2 (+)>>>
             <<<Displacing  39/coordinate 2 (-)>>>
             <<<Displacing  40/coordinate 2 (-)>>>
             <<<Displacing  40/coordinate 1 (+)>>>
             <<<Displacing  40/coordinate 1 (-)>>>
             <<<Displacing  40/coordinate 3 (+)>>>
             <<<Displacing  41/coordinate 1 (+)>>>
             <<<Displacing  40/coordinate 3 (-)>>>
             <<<Displacing  41/coordinate 1 (-)>>>
             <<<Displacing  41/coordinate 2 (+)>>>
             <<<Displacing  41/coordinate 2 (-)>>>
             <<<Displacing  42/coordinate 2 (+)>>>
             <<<Displacing  41/coordinate 3 (+)>>>
             <<<Displacing  42/coordinate 2 (-)>>>
             <<<Displacing  41/coordinate 3 (-)>>>
             <<<Displacing  42/coordinate 1 (+)>>>
             <<<Displacing  42/coordinate 1 (-)>>>
             <<<Displacing  43/coordinate 1 (+)>>>
             <<<Displacing  42/coordinate 3 (+)>>>
             <<<Displacing  43/coordinate 1 (-)>>>
             <<<Displacing  42/coordinate 3 (-)>>>
             <<<Displacing  43/coordinate 2 (+)>>>
             <<<Displacing  43/coordinate 2 (-)>>>
             <<<Displacing  43/coordinate 3 (+)>>>
             <<<Displacing  43/coordinate 3 (-)>>>
             <<<Displacing  44/coordinate 3 (+)>>>
             <<<Displacing  44/coordinate 3 (-)>>>
             <<<Displacing  44/coordinate 1 (+)>>>
             <<<Displacing  44/coordinate 1 (-)>>>
             <<<Displacing  45/coordinate 3 (+)>>>
             <<<Displacing  45/coordinate 3 (-)>>>
             <<<Displacing  45/coordinate 2 (+)>>>
             <<<Displacing  44/coordinate 2 (+)>>>
             <<<Displacing  45/coordinate 1 (+)>>>
             <<<Displacing  45/coordinate 2 (-)>>>
             <<<Displacing  44/coordinate 2 (-)>>>
             <<<Displacing  45/coordinate 1 (-)>>>
             <<<Displacing  46/coordinate 1 (+)>>>
             <<<Displacing  46/coordinate 1 (-)>>>
             <<<Displacing  46/coordinate 2 (+)>>>
             <<<Displacing  46/coordinate 3 (+)>>>
             <<<Displacing  46/coordinate 2 (-)>>>
             <<<Displacing  46/coordinate 3 (-)>>>
             <<<Displacing  47/coordinate 2 (+)>>>
             <<<Displacing  47/coordinate 1 (+)>>>
             <<<Displacing  47/coordinate 2 (-)>>>
             <<<Displacing  47/coordinate 1 (-)>>>
             <<<Displacing  47/coordinate 3 (+)>>>
             <<<Displacing  48/coordinate 1 (+)>>>
             <<<Displacing  47/coordinate 3 (-)>>>
             <<<Displacing  48/coordinate 1 (-)>>>
             <<<Displacing  48/coordinate 2 (+)>>>
             <<<Displacing  48/coordinate 2 (-)>>>
             <<<Displacing  49/coordinate 1 (+)>>>
             <<<Displacing  49/coordinate 2 (+)>>>
             <<<Displacing  49/coordinate 1 (-)>>>
             <<<Displacing  49/coordinate 2 (-)>>>
             <<<Displacing  48/coordinate 3 (+)>>>
             <<<Displacing  48/coordinate 3 (-)>>>
             <<<Displacing  49/coordinate 3 (+)>>>
             <<<Displacing  49/coordinate 3 (-)>>>

-----------------------
VIBRATIONAL FREQUENCIES
-----------------------

Scaling factor for frequencies =  1.000000000 (already applied!)

   0:         0.00 cm**-1
   1:         0.00 cm**-1
   2:         0.00 cm**-1
   3:         0.00 cm**-1
   4:         0.00 cm**-1
   5:         0.00 cm**-1
   6:        14.97 cm**-1
   7:        27.62 cm**-1
   8:        28.81 cm**-1
   9:        36.85 cm**-1
  10:        42.00 cm**-1
  11:        55.88 cm**-1
  12:        62.92 cm**-1
  13:        65.73 cm**-1
  14:        67.70 cm**-1
  15:        73.36 cm**-1
  16:        92.77 cm**-1
  17:       100.02 cm**-1
  18:       118.64 cm**-1
  19:       122.66 cm**-1
  20:       137.29 cm**-1
  21:       148.64 cm**-1
  22:       163.37 cm**-1
  23:       200.61 cm**-1
  24:       210.00 cm**-1
  25:       227.06 cm**-1
  26:       238.79 cm**-1
  27:       252.49 cm**-1
  28:       262.57 cm**-1
  29:       268.48 cm**-1
  30:       272.70 cm**-1
  31:       314.46 cm**-1
  32:       348.98 cm**-1
  33:       380.20 cm**-1
  34:       383.85 cm**-1
  35:       388.61 cm**-1
  36:       392.48 cm**-1
  37:       422.74 cm**-1
  38:       427.22 cm**-1
  39:       450.97 cm**-1
  40:       514.02 cm**-1
  41:       555.49 cm**-1
  42:       588.62 cm**-1
  43:       616.17 cm**-1
  44:       636.11 cm**-1
  45:       676.19 cm**-1
  46:       763.78 cm**-1
  47:       769.57 cm**-1
  48:       772.50 cm**-1
  49:       816.84 cm**-1
  50:       820.93 cm**-1
  51:       825.75 cm**-1
  52:       869.78 cm**-1
  53:       882.57 cm**-1
  54:       885.29 cm**-1
  55:       909.21 cm**-1
  56:       924.16 cm**-1
  57:       933.05 cm**-1
  58:       935.17 cm**-1
  59:       937.39 cm**-1
  60:       943.42 cm**-1
  61:       951.65 cm**-1
  62:       979.37 cm**-1
  63:       983.76 cm**-1
  64:      1016.53 cm**-1
  65:      1040.32 cm**-1
  66:      1061.29 cm**-1
  67:      1067.23 cm**-1
  68:      1072.56 cm**-1
  69:      1087.18 cm**-1
  70:      1104.52 cm**-1
  71:      1106.99 cm**-1
  72:      1114.18 cm**-1
  73:      1117.50 cm**-1
  74:      1123.34 cm**-1
  75:      1134.17 cm**-1
  76:      1136.58 cm**-1
  77:      1179.27 cm**-1
  78:      1186.84 cm**-1
  79:      1199.47 cm**-1
  80:      1205.90 cm**-1
  81:      1207.05 cm**-1
  82:      1232.66 cm**-1
  83:      1253.56 cm**-1
  84:      1262.96 cm**-1
  85:      1268.25 cm**-1
  86:      1270.81 cm**-1
  87:      1275.33 cm**-1
  88:      1275.98 cm**-1
  89:      1281.04 cm**-1
  90:      1281.72 cm**-1
  91:      1288.82 cm**-1
  92:      1301.03 cm**-1
  93:      1308.49 cm**-1
  94:      1333.99 cm**-1
  95:      1343.37 cm**-1
  96:      1373.27 cm**-1
  97:      1375.21 cm**-1
  98:      1421.78 cm**-1
  99:      1424.28 cm**-1
 100:      1428.18 cm**-1
 101:      1428.56 cm**-1
 102:      1462.40 cm**-1
 103:      1495.02 cm**-1
 104:      1497.82 cm**-1
 105:      1504.26 cm**-1
 106:      1506.32 cm**-1
 107:      1506.81 cm**-1
 108:      1507.50 cm**-1
 109:      1508.39 cm**-1
 110:      1509.87 cm**-1
 111:      1512.66 cm**-1
 112:      1512.91 cm**-1
 113:      1549.73 cm**-1
 114:      1560.97 cm**-1
 115:      1568.74 cm**-1
 116:      1577.13 cm**-1
 117:      2871.10 cm**-1
 118:      2916.80 cm**-1
 119:      2930.04 cm**-1
 120:      2937.72 cm**-1
 121:      2941.84 cm**-1
 122:      2949.49 cm**-1
 123:      2951.11 cm**-1
 124:      2955.70 cm**-1
 125:      2957.90 cm**-1
 126:      2962.81 cm**-1
 127:      2963.22 cm**-1
 128:      2971.47 cm**-1
 129:      2975.27 cm**-1
 130:      2978.25 cm**-1
 131:      2979.37 cm**-1
 132:      2983.81 cm**-1
 133:      2985.57 cm**-1
 134:      2996.27 cm**-1
 135:      2997.62 cm**-1
 136:      3048.76 cm**-1
 137:      3053.20 cm**-1
 138:      3058.99 cm**-1
 139:      3068.99 cm**-1
 140:      3089.01 cm**-1
 141:      3217.06 cm**-1
 142:      3292.21 cm**-1
 143:      3349.98 cm**-1
 144:      3411.09 cm**-1
 145:      3506.04 cm**-1
 146:      3583.82 cm**-1


------------
NORMAL MODES
------------

These modes are the cartesian displacements weighted by the diagonal matrix
M(i,i)=1/sqrt(m[i]) where m[i] is the mass of the displaced atom
Thus, these vectors are normalized but *not* orthogonal

                  0          1          2          3          4          5    
      0       0.000000   0.000000   0.000000   0.000000   0.000000   0.000000
      1       0.000000   0.000000   0.000000   0.000000   0.000000   0.000000
      2       0.000000   0.000000   0.000000   0.000000   0.000000   0.000000
      3       0.000000   0.000000   0.000000   0.000000   0.000000   0.000000
      4       0.000000   0.000000   0.000000   0.000000   0.000000   0.000000
      5       0.000000   0.000000   0.000000   0.000000   0.000000   0.000000
      6       0.000000   0.000000   0.000000   0.000000   0.000000   0.000000
      7       0.000000   0.000000   0.000000   0.000000   0.000000   0.000000
      8       0.000000   0.000000   0.000000   0.000000   0.000000   0.000000
      9       0.000000   0.000000   0.000000   0.000000   0.000000   0.000000
     10       0.000000   0.000000   0.000000   0.000000   0.000000   0.000000
     11       0.000000   0.000000   0.000000   0.000000   0.000000   0.000000
     12       0.000000   0.000000   0.000000   0.000000   0.000000   0.000000
     13       0.000000   0.000000   0.000000   0.000000   0.000000   0.000000
     14       0.000000   0.000000   0.000000   0.000000   0.000000   0.000000
     15       0.000000   0.000000   0.000000   0.000000   0.000000   0.000000
     16       0.000000   0.000000   0.000000   0.000000   0.000000   0.000000
     17       0.000000   0.000000   0.000000   0.000000   0.000000   0.000000
     18       0.000000   0.000000   0.000000   0.000000   0.000000   0.000000
     19       0.000000   0.000000   0.000000   0.000000   0.000000   0.000000
     20       0.000000   0.000000   0.000000   0.000000   0.000000   0.000000
     21       0.000000   0.000000   0.000000   0.000000   0.000000   0.000000
     22       0.000000   0.000000   0.000000   0.000000   0.000000   0.000000
     23       0.000000   0.000000   0.000000   0.000000   0.000000   0.000000
     24       0.000000   0.000000   0.000000   0.000000   0.000000   0.000000
     25       0.000000   0.000000   0.000000   0.000000   0.000000   0.000000
     26       0.000000   0.000000   0.000000   0.000000   0.000000   0.000000
     27       0.000000   0.000000   0.000000   0.000000   0.000000   0.000000
     28       0.000000   0.000000   0.000000   0.000000   0.000000   0.000000
     29       0.000000   0.000000   0.000000   0.000000   0.000000   0.000000
     30       0.000000   0.000000   0.000000   0.000000   0.000000   0.000000
     31       0.000000   0.000000   0.000000   0.000000   0.000000   0.000000
     32       0.000000   0.000000   0.000000   0.000000   0.000000   0.000000
     33       0.000000   0.000000   0.000000   0.000000   0.000000   0.000000
     34       0.000000   0.000000   0.000000   0.000000   0.000000   0.000000
     35       0.000000   0.000000   0.000000   0.000000   0.000000   0.000000
     36       0.000000   0.000000   0.000000   0.000000   0.000000   0.000000
     37       0.000000   0.000000   0.000000   0.000000   0.000000   0.000000
     38       0.000000   0.000000   0.000000   0.000000   0.000000   0.000000
     39       0.000000   0.000000   0.000000   0.000000   0.000000   0.000000
     40       0.000000   0.000000   0.000000   0.000000   0.000000   0.000000
     41       0.000000   0.000000   0.000000   0.000000   0.000000   0.000000
     42       0.000000   0.000000   0.000000   0.000000   0.000000   0.000000
     43       0.000000   0.000000   0.000000   0.000000   0.000000   0.000000
     44       0.000000   0.000000   0.000000   0.000000   0.000000   0.000000
     45       0.000000   0.000000   0.000000   0.000000   0.000000   0.000000
     46       0.000000   0.000000   0.000000   0.000000   0.000000   0.000000
     47       0.000000   0.000000   0.000000   0.000000   0.000000   0.000000
     48       0.000000   0.000000   0.000000   0.000000   0.000000   0.000000
     49       0.000000   0.000000   0.000000   0.000000   0.000000   0.000000
     50       0.000000   0.000000   0.000000   0.000000   0.000000   0.000000
     51       0.000000   0.000000   0.000000   0.000000   0.000000   0.000000
     52       0.000000   0.000000   0.000000   0.000000   0.000000   0.000000
     53       0.000000   0.000000   0.000000   0.000000   0.000000   0.000000
     54       0.000000   0.000000   0.000000   0.000000   0.000000   0.000000
     55       0.000000   0.000000   0.000000   0.000000   0.000000   0.000000
     56       0.000000   0.000000   0.000000   0.000000   0.000000   0.000000
     57       0.000000   0.000000   0.000000   0.000000   0.000000   0.000000
     58       0.000000   0.000000   0.000000   0.000000   0.000000   0.000000
     59       0.000000   0.000000   0.000000   0.000000   0.000000   0.000000
     60       0.000000   0.000000   0.000000   0.000000   0.000000   0.000000
     61       0.000000   0.000000   0.000000   0.000000   0.000000   0.000000
     62       0.000000   0.000000   0.000000   0.000000   0.000000   0.000000
     63       0.000000   0.000000   0.000000   0.000000   0.000000   0.000000
     64       0.000000   0.000000   0.000000   0.000000   0.000000   0.000000
     65       0.000000   0.000000   0.000000   0.000000   0.000000   0.000000
     66       0.000000   0.000000   0.000000   0.000000   0.000000   0.000000
     67       0.000000   0.000000   0.000000   0.000000   0.000000   0.000000
     68       0.000000   0.000000   0.000000   0.000000   0.000000   0.000000
     69       0.000000   0.000000   0.000000   0.000000   0.000000   0.000000
     70       0.000000   0.000000   0.000000   0.000000   0.000000   0.000000
     71       0.000000   0.000000   0.000000   0.000000   0.000000   0.000000
     72       0.000000   0.000000   0.000000   0.000000   0.000000   0.000000
     73       0.000000   0.000000   0.000000   0.000000   0.000000   0.000000
     74       0.000000   0.000000   0.000000   0.000000   0.000000   0.000000
     75       0.000000   0.000000   0.000000   0.000000   0.000000   0.000000
     76       0.000000   0.000000   0.000000   0.000000   0.000000   0.000000
     77       0.000000   0.000000   0.000000   0.000000   0.000000   0.000000
     78       0.000000   0.000000   0.000000   0.000000   0.000000   0.000000
     79       0.000000   0.000000   0.000000   0.000000   0.000000   0.000000
     80       0.000000   0.000000   0.000000   0.000000   0.000000   0.000000
     81       0.000000   0.000000   0.000000   0.000000   0.000000   0.000000
     82       0.000000   0.000000   0.000000   0.000000   0.000000   0.000000
     83       0.000000   0.000000   0.000000   0.000000   0.000000   0.000000
     84       0.000000   0.000000   0.000000   0.000000   0.000000   0.000000
     85       0.000000   0.000000   0.000000   0.000000   0.000000   0.000000
     86       0.000000   0.000000   0.000000   0.000000   0.000000   0.000000
     87       0.000000   0.000000   0.000000   0.000000   0.000000   0.000000
     88       0.000000   0.000000   0.000000   0.000000   0.000000   0.000000
     89       0.000000   0.000000   0.000000   0.000000   0.000000   0.000000
     90       0.000000   0.000000   0.000000   0.000000   0.000000   0.000000
     91       0.000000   0.000000   0.000000   0.000000   0.000000   0.000000
     92       0.000000   0.000000   0.000000   0.000000   0.000000   0.000000
     93       0.000000   0.000000   0.000000   0.000000   0.000000   0.000000
     94       0.000000   0.000000   0.000000   0.000000   0.000000   0.000000
     95       0.000000   0.000000   0.000000   0.000000   0.000000   0.000000
     96       0.000000   0.000000   0.000000   0.000000   0.000000   0.000000
     97       0.000000   0.000000   0.000000   0.000000   0.000000   0.000000
     98       0.000000   0.000000   0.000000   0.000000   0.000000   0.000000
     99       0.000000   0.000000   0.000000   0.000000   0.000000   0.000000
    100       0.000000   0.000000   0.000000   0.000000   0.000000   0.000000
    101       0.000000   0.000000   0.000000   0.000000   0.000000   0.000000
    102       0.000000   0.000000   0.000000   0.000000   0.000000   0.000000
    103       0.000000   0.000000   0.000000   0.000000   0.000000   0.000000
    104       0.000000   0.000000   0.000000   0.000000   0.000000   0.000000
    105       0.000000   0.000000   0.000000   0.000000   0.000000   0.000000
    106       0.000000   0.000000   0.000000   0.000000   0.000000   0.000000
    107       0.000000   0.000000   0.000000   0.000000   0.000000   0.000000
    108       0.000000   0.000000   0.000000   0.000000   0.000000   0.000000
    109       0.000000   0.000000   0.000000   0.000000   0.000000   0.000000
    110       0.000000   0.000000   0.000000   0.000000   0.000000   0.000000
    111       0.000000   0.000000   0.000000   0.000000   0.000000   0.000000
    112       0.000000   0.000000   0.000000   0.000000   0.000000   0.000000
    113       0.000000   0.000000   0.000000   0.000000   0.000000   0.000000
    114       0.000000   0.000000   0.000000   0.000000   0.000000   0.000000
    115       0.000000   0.000000   0.000000   0.000000   0.000000   0.000000
    116       0.000000   0.000000   0.000000   0.000000   0.000000   0.000000
    117       0.000000   0.000000   0.000000   0.000000   0.000000   0.000000
    118       0.000000   0.000000   0.000000   0.000000   0.000000   0.000000
    119       0.000000   0.000000   0.000000   0.000000   0.000000   0.000000
    120       0.000000   0.000000   0.000000   0.000000   0.000000   0.000000
    121       0.000000   0.000000   0.000000   0.000000   0.000000   0.000000
    122       0.000000   0.000000   0.000000   0.000000   0.000000   0.000000
    123       0.000000   0.000000   0.000000   0.000000   0.000000   0.000000
    124       0.000000   0.000000   0.000000   0.000000   0.000000   0.000000
    125       0.000000   0.000000   0.000000   0.000000   0.000000   0.000000
    126       0.000000   0.000000   0.000000   0.000000   0.000000   0.000000
    127       0.000000   0.000000   0.000000   0.000000   0.000000   0.000000
    128       0.000000   0.000000   0.000000   0.000000   0.000000   0.000000
    129       0.000000   0.000000   0.000000   0.000000   0.000000   0.000000
    130       0.000000   0.000000   0.000000   0.000000   0.000000   0.000000
    131       0.000000   0.000000   0.000000   0.000000   0.000000   0.000000
    132       0.000000   0.000000   0.000000   0.000000   0.000000   0.000000
    133       0.000000   0.000000   0.000000   0.000000   0.000000   0.000000
    134       0.000000   0.000000   0.000000   0.000000   0.000000   0.000000
    135       0.000000   0.000000   0.000000   0.000000   0.000000   0.000000
    136       0.000000   0.000000   0.000000   0.000000   0.000000   0.000000
    137       0.000000   0.000000   0.000000   0.000000   0.000000   0.000000
    138       0.000000   0.000000   0.000000   0.000000   0.000000   0.000000
    139       0.000000   0.000000   0.000000   0.000000   0.000000   0.000000
    140       0.000000   0.000000   0.000000   0.000000   0.000000   0.000000
    141       0.000000   0.000000   0.000000   0.000000   0.000000   0.000000
    142       0.000000   0.000000   0.000000   0.000000   0.000000   0.000000
    143       0.000000   0.000000   0.000000   0.000000   0.000000   0.000000
    144       0.000000   0.000000   0.000000   0.000000   0.000000   0.000000
    145       0.000000   0.000000   0.000000   0.000000   0.000000   0.000000
    146       0.000000   0.000000   0.000000   0.000000   0.000000   0.000000
                  6          7          8          9         10         11    
      0       0.010752  -0.002560  -0.087811   0.016345   0.006506  -0.016348
      1      -0.006716   0.003352   0.011170   0.016028  -0.033642  -0.013914
      2       0.009960   0.007260   0.009720  -0.021288   0.000196  -0.019952
      3      -0.009620  -0.023299  -0.076650   0.032772   0.018185  -0.047838
      4       0.000789   0.006948   0.028547  -0.007661  -0.056022   0.015669
      5      -0.001660  -0.000681  -0.005149   0.004977   0.024356  -0.054351
      6      -0.028322  -0.041811  -0.100059   0.067717   0.033183  -0.053374
      7       0.013562   0.015665   0.018994  -0.022899  -0.081684   0.076457
      8       0.010731   0.011261   0.009517  -0.017366   0.013880  -0.049269
      9      -0.027307  -0.040555  -0.132249   0.085209   0.035652  -0.027083
     10       0.019376   0.020803  -0.005909  -0.015667  -0.086606   0.110079
     11       0.034840   0.030823   0.038053  -0.065428  -0.020566  -0.008721
     12      -0.008404  -0.021482  -0.142146   0.068387   0.023689   0.005379
     13       0.010841   0.016226  -0.022692   0.007219  -0.064559   0.082472
     14       0.047286   0.039428   0.052238  -0.091612  -0.044603   0.025628
     15       0.010461  -0.002770  -0.121266   0.035020   0.009353   0.011484
     16      -0.001833   0.007577  -0.015137   0.023443  -0.038168   0.021669
     17       0.035276   0.027592   0.039477  -0.070118  -0.035194   0.020238
     18       0.039630   0.023052  -0.066019  -0.016004  -0.015399   0.001605
     19      -0.021458  -0.003730   0.011449   0.033906   0.000528  -0.076266
     20      -0.008988  -0.008899  -0.005190  -0.000718   0.014781  -0.030205
     21      -0.009726  -0.025008  -0.048355   0.017645   0.014916  -0.065675
     22      -0.003068   0.002451   0.050806  -0.014234  -0.054269  -0.007484
     23      -0.020857  -0.017094  -0.026129   0.044580   0.047693  -0.079865
     24       0.025587   0.011751  -0.130725   0.022540   0.000855   0.039214
     25      -0.007927   0.004558  -0.029002   0.041715  -0.021073   0.000454
     26       0.044443   0.033733   0.051175  -0.090752  -0.053928   0.046876
     27      -0.041192  -0.054417  -0.149154   0.111374   0.046830  -0.031673
     28       0.030328   0.028069  -0.012225  -0.027898  -0.107097   0.157440
     29       0.043849   0.039705   0.048541  -0.082170  -0.028078  -0.004687
     30       0.035466   0.026963  -0.054257   0.013148  -0.048352  -0.034859
     31      -0.019881  -0.014913  -0.005785  -0.005399   0.049184  -0.025411
     32      -0.027459  -0.034287  -0.022168  -0.008322   0.034982  -0.003609
     33       0.104158   0.047866  -0.049775   0.030057  -0.067709  -0.031669
     34      -0.076856  -0.005447  -0.009958  -0.033805   0.063443  -0.016673
     35      -0.072114  -0.051231  -0.024581  -0.017612   0.048297  -0.008388
     36      -0.014639   0.017956  -0.057214  -0.003577  -0.026649  -0.021290
     37       0.023397  -0.035747  -0.017344  -0.028107   0.071663   0.005416
     38      -0.070969  -0.036103  -0.018594  -0.013638   0.041622  -0.006308
     39      -0.015639   0.015092   0.011405   0.040780   0.018112  -0.057680
     40       0.031783   0.019284  -0.065375  -0.040583  -0.014138   0.000936
     41       0.004396  -0.064820  -0.062147  -0.010876  -0.004148  -0.028282
     42       0.156057   0.066227  -0.045698   0.046442  -0.081093  -0.024686
     43      -0.245130  -0.029847   0.053596  -0.044784   0.161455  -0.030270
     44      -0.005218  -0.033780  -0.033225  -0.004149   0.021433  -0.000770
     45       0.207132   0.076008  -0.099575   0.025214  -0.136793  -0.011077
     46      -0.043351   0.007556  -0.034771  -0.042710   0.033552  -0.005766
     47      -0.229104  -0.076299   0.010048  -0.044241   0.120911  -0.018105
     48      -0.064004  -0.010071  -0.013438  -0.005375  -0.006633  -0.094434
     49       0.187658   0.039931  -0.109634  -0.010177  -0.085143   0.017189
     50      -0.045017  -0.081720  -0.070386  -0.041556  -0.008685  -0.051703
     51      -0.101712  -0.008316   0.059200   0.052193   0.085642  -0.076018
     52      -0.008553   0.007156  -0.034822  -0.026061   0.027462  -0.007400
     53       0.146641  -0.037411  -0.066215   0.054242  -0.024361   0.003937
     54       0.048009   0.017306  -0.078572  -0.064545   0.035139   0.057149
     55      -0.026874  -0.008730   0.008259   0.034161   0.019152  -0.086626
     56      -0.034733  -0.016435  -0.004315   0.053357   0.020850  -0.129548
     57       0.061444   0.043712  -0.046414  -0.023851  -0.047332   0.002965
     58      -0.032950   0.002908   0.027248   0.079656  -0.027042  -0.154857
     59       0.012514   0.003190   0.001596  -0.027054   0.004158   0.007001
     60       0.051885   0.015948  -0.083144  -0.085194   0.054856   0.080802
     61      -0.031482   0.002696   0.011747   0.059940  -0.007317  -0.124993
     62      -0.031867   0.006598  -0.012561   0.041947   0.026704  -0.138306
     63       0.056862  -0.141589   0.032443  -0.003774   0.000609   0.318427
     64       0.050499  -0.162596   0.099418  -0.014514   0.119643   0.009248
     65      -0.082658  -0.118633   0.072971   0.201881  -0.132639   0.140902
     66       0.048872  -0.084276  -0.011581  -0.026967   0.020433   0.235566
     67       0.015843  -0.103663   0.067882   0.001587   0.085916  -0.034018
     68      -0.061012  -0.092787   0.040111   0.154075  -0.073038   0.061012
     69       0.065738  -0.119355  -0.001242  -0.024843   0.044369   0.296057
     70       0.068767  -0.229259   0.113051   0.017329   0.154940   0.189373
     71      -0.096734  -0.144423   0.119609   0.228871  -0.197752   0.156850
     72      -0.007888  -0.020867  -0.166350   0.081272   0.025412   0.026297
     73       0.014855   0.019836  -0.041999   0.012646  -0.067863   0.108372
     74       0.065799   0.055056   0.073480  -0.128280  -0.070587   0.055691
     75      -0.043040  -0.056637  -0.092449   0.079998   0.043176  -0.078656
     76       0.019732   0.018505   0.032522  -0.040889  -0.098784   0.098471
     77       0.001354   0.005123  -0.002120   0.003187   0.033060  -0.076799
     78       0.046309   0.047210   0.040019   0.099359   0.049222  -0.010066
     79      -0.017405   0.029474  -0.099633  -0.105950  -0.050436   0.008324
     80      -0.042514  -0.094016  -0.082503  -0.053057  -0.026335  -0.071232
     81       0.090266   0.059816   0.001672   0.076689  -0.011079  -0.002445
     82       0.000086   0.035794  -0.124228  -0.125778  -0.087384   0.011179
     83      -0.149525  -0.112436  -0.084962  -0.108656  -0.012108  -0.092721
     84       0.096767   0.073443   0.062807   0.147055   0.074381   0.029980
     85      -0.114857   0.022215  -0.067413  -0.118767   0.011936   0.010190
     86      -0.001421  -0.077814  -0.073039  -0.023713  -0.019181  -0.048126
     87      -0.080099   0.002473   0.119470  -0.115618  -0.030695  -0.015572
     88       0.025384  -0.053097   0.018758  -0.094849   0.174530   0.005299
     89      -0.125956   0.061405  -0.023791   0.007791   0.020475   0.132298
     90      -0.069735  -0.024363   0.131088  -0.059963  -0.087800  -0.016937
     91       0.043340  -0.087473   0.039673  -0.089044   0.154779  -0.014004
     92      -0.055962  -0.076023   0.057151   0.060282  -0.082316   0.064105
     93      -0.035059   0.034958   0.131008  -0.121788  -0.017082  -0.026773
     94      -0.064124   0.090922  -0.072981  -0.160171   0.294376   0.082913
     95      -0.146892   0.065137  -0.035521   0.003912   0.027428   0.142323
     96      -0.092039  -0.000837   0.113650  -0.135433  -0.013044  -0.007318
     97       0.060712  -0.085494   0.053959  -0.001229   0.071732  -0.033085
     98      -0.085068   0.157016  -0.037701  -0.003638   0.066147   0.136870
     99      -0.156160  -0.030984   0.107684  -0.128633  -0.031095   0.011271
    100       0.202770  -0.280088   0.148383   0.048116  -0.051553  -0.147623
    101      -0.055467   0.144112  -0.026881  -0.000585   0.058036   0.120477
    102      -0.085890   0.008020   0.097937  -0.202567   0.058145   0.009763
    103       0.028028  -0.038942   0.034726  -0.000192   0.087661  -0.010245
    104      -0.215471   0.353754  -0.127012  -0.038612   0.173457   0.241216
    105      -0.037407   0.021640   0.140773  -0.078813  -0.060588  -0.050989
    106      -0.041305   0.068324   0.001725   0.034092   0.090716   0.026631
    107       0.082983   0.023663   0.046444   0.025444  -0.006790   0.027077
    108      -0.039822   0.016539   0.163764  -0.006269  -0.154819  -0.092334
    109      -0.008489   0.021020   0.020464   0.032180   0.074684   0.004021
    110       0.214663  -0.171485   0.136621   0.062145  -0.129426  -0.089727
    111       0.015130   0.049817   0.147542  -0.087177  -0.020359  -0.059181
    112      -0.185906   0.260486  -0.096660  -0.019685   0.230845   0.157654
    113       0.055070   0.036755   0.034558   0.021966  -0.001939   0.042609
    114      -0.051668   0.015952   0.130400  -0.103757  -0.037616  -0.033484
    115       0.003244   0.030454   0.056446   0.142640  -0.053797  -0.060756
    116       0.105239   0.130186   0.027049   0.012243   0.080341   0.050721
    117      -0.084324  -0.028465   0.132702  -0.093357  -0.089258  -0.030998
    118       0.091143  -0.101576   0.123597   0.187768  -0.157334  -0.169112
    119       0.121565   0.127498   0.033173   0.014254   0.082235   0.039324
    120      -0.062554   0.036083   0.100073  -0.176359   0.063138   0.013846
    121      -0.013958   0.060085   0.046494   0.146077  -0.047013  -0.044652
    122       0.027160   0.265373  -0.032509  -0.016561   0.168422   0.145658
    123      -0.010125   0.041904   0.156397  -0.048520  -0.078332  -0.080705
    124      -0.042817   0.121450   0.038150   0.184104  -0.070897  -0.030951
    125       0.200200   0.065152   0.075482   0.032305   0.052159  -0.033678
    126      -0.008362   0.044772   0.175111   0.007712  -0.148719  -0.113642
    127      -0.027541   0.096129   0.047007   0.181884  -0.077005  -0.045832
    128       0.264531  -0.038921   0.120547   0.047572  -0.003950  -0.110016
    129      -0.019433   0.036102   0.149183  -0.064946  -0.063979  -0.067567
    130      -0.019754   0.112244   0.066942   0.243914  -0.144895  -0.081433
    131       0.218944   0.115341   0.072432   0.034518   0.085517  -0.031134
    132       0.027501   0.063841   0.164099  -0.048038  -0.052181  -0.096310
    133      -0.114496   0.222233  -0.012737   0.156246  -0.003090   0.055926
    134       0.185504   0.071361   0.068703   0.029344   0.054131  -0.021663
    135      -0.012044   0.029387   0.087050   0.125452   0.124581  -0.022983
    136       0.034709   0.039629  -0.141471  -0.127982  -0.117978   0.011192
[...]
  29:       268.48    0.000000  (  0.000000   0.000000   0.000000)
  30:       272.70    0.000000  (  0.000000   0.000000   0.000000)
  31:       314.46    0.000000  (  0.000000   0.000000   0.000000)
  32:       348.98    0.000000  (  0.000000   0.000000   0.000000)
  33:       380.20    0.000000  (  0.000000   0.000000   0.000000)
  34:       383.85    0.000000  (  0.000000   0.000000   0.000000)
  35:       388.61    0.000000  (  0.000000   0.000000   0.000000)
  36:       392.48    0.000000  (  0.000000   0.000000   0.000000)
  37:       422.74    0.000000  (  0.000000   0.000000   0.000000)
  38:       427.22    0.000000  (  0.000000   0.000000   0.000000)
  39:       450.97    0.000000  (  0.000000   0.000000   0.000000)
  40:       514.02    0.000000  (  0.000000   0.000000   0.000000)
  41:       555.49    0.000000  (  0.000000   0.000000   0.000000)
  42:       588.62    0.000000  (  0.000000   0.000000   0.000000)
  43:       616.17    0.000000  (  0.000000   0.000000   0.000000)
  44:       636.11    0.000000  (  0.000000   0.000000   0.000000)
  45:       676.19    0.000000  (  0.000000   0.000000   0.000000)
  46:       763.78    0.000000  (  0.000000   0.000000   0.000000)
  47:       769.57    0.000000  (  0.000000   0.000000   0.000000)
  48:       772.50    0.000000  (  0.000000   0.000000   0.000000)
  49:       816.84    0.000000  (  0.000000   0.000000   0.000000)
  50:       820.93    0.000000  (  0.000000   0.000000   0.000000)
  51:       825.75    0.000000  (  0.000000   0.000000   0.000000)
  52:       869.78    0.000000  (  0.000000   0.000000   0.000000)
  53:       882.57    0.000000  (  0.000000   0.000000   0.000000)
  54:       885.29    0.000000  (  0.000000   0.000000   0.000000)
  55:       909.21    0.000000  (  0.000000   0.000000   0.000000)
  56:       924.16    0.000000  (  0.000000   0.000000   0.000000)
  57:       933.05    0.000000  (  0.000000   0.000000   0.000000)
  58:       935.17    0.000000  (  0.000000   0.000000   0.000000)
  59:       937.39    0.000000  (  0.000000   0.000000   0.000000)
  60:       943.42    0.000000  (  0.000000   0.000000   0.000000)
  61:       951.65    0.000000  (  0.000000   0.000000   0.000000)
  62:       979.37    0.000000  (  0.000000   0.000000   0.000000)
  63:       983.76    0.000000  (  0.000000   0.000000   0.000000)
  64:      1016.53    0.000000  (  0.000000   0.000000   0.000000)
  65:      1040.32    0.000000  (  0.000000   0.000000   0.000000)
  66:      1061.29    0.000000  (  0.000000   0.000000   0.000000)
  67:      1067.23    0.000000  (  0.000000   0.000000   0.000000)
  68:      1072.56    0.000000  (  0.000000   0.000000   0.000000)
  69:      1087.18    0.000000  (  0.000000   0.000000   0.000000)
  70:      1104.52    0.000000  (  0.000000   0.000000   0.000000)
  71:      1106.99    0.000000  (  0.000000   0.000000   0.000000)
  72:      1114.18    0.000000  (  0.000000   0.000000   0.000000)
  73:      1117.50    0.000000  (  0.000000   0.000000   0.000000)
  74:      1123.34    0.000000  (  0.000000   0.000000   0.000000)
  75:      1134.17    0.000000  (  0.000000   0.000000   0.000000)
  76:      1136.58    0.000000  (  0.000000   0.000000   0.000000)
  77:      1179.27    0.000000  (  0.000000   0.000000   0.000000)
  78:      1186.84    0.000000  (  0.000000   0.000000   0.000000)
  79:      1199.47    0.000000  (  0.000000   0.000000   0.000000)
  80:      1205.90    0.000000  (  0.000000   0.000000   0.000000)
  81:      1207.05    0.000000  (  0.000000   0.000000   0.000000)
  82:      1232.66    0.000000  (  0.000000   0.000000   0.000000)
  83:      1253.56    0.000000  (  0.000000   0.000000   0.000000)
  84:      1262.96    0.000000  (  0.000000   0.000000   0.000000)
  85:      1268.25    0.000000  (  0.000000   0.000000   0.000000)
  86:      1270.81    0.000000  (  0.000000   0.000000   0.000000)
  87:      1275.33    0.000000  (  0.000000   0.000000   0.000000)
  88:      1275.98    0.000000  (  0.000000   0.000000   0.000000)
  89:      1281.04    0.000000  (  0.000000   0.000000   0.000000)
  90:      1281.72    0.000000  (  0.000000   0.000000   0.000000)
  91:      1288.82    0.000000  (  0.000000   0.000000   0.000000)
  92:      1301.03    0.000000  (  0.000000   0.000000   0.000000)
  93:      1308.49    0.000000  (  0.000000   0.000000   0.000000)
  94:      1333.99    0.000000  (  0.000000   0.000000   0.000000)
  95:      1343.37    0.000000  (  0.000000   0.000000   0.000000)
  96:      1373.27    0.000000  (  0.000000   0.000000   0.000000)
  97:      1375.21    0.000000  (  0.000000   0.000000   0.000000)
  98:      1421.78    0.000000  (  0.000000   0.000000   0.000000)
  99:      1424.28    0.000000  (  0.000000   0.000000   0.000000)
 100:      1428.18    0.000000  (  0.000000   0.000000   0.000000)
 101:      1428.56    0.000000  (  0.000000   0.000000   0.000000)
 102:      1462.40    0.000000  (  0.000000   0.000000   0.000000)
 103:      1495.02    0.000000  (  0.000000   0.000000   0.000000)
 104:      1497.82    0.000000  (  0.000000   0.000000   0.000000)
 105:      1504.26    0.000000  (  0.000000   0.000000   0.000000)
 106:      1506.32    0.000000  (  0.000000   0.000000   0.000000)
 107:      1506.81    0.000000  (  0.000000   0.000000   0.000000)
 108:      1507.50    0.000000  (  0.000000   0.000000   0.000000)
 109:      1508.39    0.000000  (  0.000000   0.000000   0.000000)
 110:      1509.87    0.000000  (  0.000000   0.000000   0.000000)
 111:      1512.66    0.000000  (  0.000000   0.000000   0.000000)
 112:      1512.91    0.000000  (  0.000000   0.000000   0.000000)
 113:      1549.73    0.000000  (  0.000000   0.000000   0.000000)
 114:      1560.97    0.000000  (  0.000000   0.000000   0.000000)
 115:      1568.74    0.000000  (  0.000000   0.000000   0.000000)
 116:      1577.13    0.000000  (  0.000000   0.000000   0.000000)
 117:      2871.10    0.000000  (  0.000000   0.000000   0.000000)
 118:      2916.80    0.000000  (  0.000000   0.000000   0.000000)
 119:      2930.04    0.000000  (  0.000000   0.000000   0.000000)
 120:      2937.72    0.000000  (  0.000000   0.000000   0.000000)
 121:      2941.84    0.000000  (  0.000000   0.000000   0.000000)
 122:      2949.49    0.000000  (  0.000000   0.000000   0.000000)
 123:      2951.11    0.000000  (  0.000000   0.000000   0.000000)
 124:      2955.70    0.000000  (  0.000000   0.000000   0.000000)
 125:      2957.90    0.000000  (  0.000000   0.000000   0.000000)
 126:      2962.81    0.000000  (  0.000000   0.000000   0.000000)
 127:      2963.22    0.000000  (  0.000000   0.000000   0.000000)
 128:      2971.47    0.000000  (  0.000000   0.000000   0.000000)
 129:      2975.27    0.000000  (  0.000000   0.000000   0.000000)
 130:      2978.25    0.000000  (  0.000000   0.000000   0.000000)
 131:      2979.37    0.000000  (  0.000000   0.000000   0.000000)
 132:      2983.81    0.000000  (  0.000000   0.000000   0.000000)
 133:      2985.57    0.000000  (  0.000000   0.000000   0.000000)
 134:      2996.27    0.000000  (  0.000000   0.000000   0.000000)
 135:      2997.62    0.000000  (  0.000000   0.000000   0.000000)
 136:      3048.76    0.000000  (  0.000000   0.000000   0.000000)
 137:      3053.20    0.000000  (  0.000000   0.000000   0.000000)
 138:      3058.99    0.000000  (  0.000000   0.000000   0.000000)
 139:      3068.99    0.000000  (  0.000000   0.000000   0.000000)
 140:      3089.01    0.000000  (  0.000000   0.000000   0.000000)
 141:      3217.06    0.000000  (  0.000000   0.000000   0.000000)
 142:      3292.21    0.000000  (  0.000000   0.000000   0.000000)
 143:      3349.98    0.000000  (  0.000000   0.000000   0.000000)
 144:      3411.09    0.000000  (  0.000000   0.000000   0.000000)
 145:      3506.04    0.000000  (  0.000000   0.000000   0.000000)
 146:      3583.82    0.000000  (  0.000000   0.000000   0.000000)

The first frequency considered to be a vibration is 6
The total number of vibrations considered is 141


--------------------------
THERMOCHEMISTRY AT 298.15K
--------------------------

Temperature         ... 298.15 K
Pressure            ... 1.00 atm
Total Mass          ... 270.42 AMU

Throughout the following assumptions are being made:
  (1) The electronic state is orbitally nondegenerate
  (2) There are no thermally accessible electronically excited states
  (3) Hindered rotations indicated by low frequency modes are not
      treated as such but are treated as vibrations and this may
      cause some error
  (4) All equations used are the standard statistical mechanics
      equations for an ideal gas
  (5) All vibrations are strictly harmonic

freq.      14.97  E(vib)   ...       0.57 
freq.      27.62  E(vib)   ...       0.55 
freq.      28.81  E(vib)   ...       0.55 
freq.      36.85  E(vib)   ...       0.54 
freq.      42.00  E(vib)   ...       0.53 
freq.      55.88  E(vib)   ...       0.52 
freq.      62.92  E(vib)   ...       0.51 
freq.      65.73  E(vib)   ...       0.50 
freq.      67.70  E(vib)   ...       0.50 
freq.      73.36  E(vib)   ...       0.49 
freq.      92.77  E(vib)   ...       0.47 
freq.     100.02  E(vib)   ...       0.46 
freq.     118.64  E(vib)   ...       0.44 
freq.     122.66  E(vib)   ...       0.43 
freq.     137.29  E(vib)   ...       0.42 
freq.     148.64  E(vib)   ...       0.41 
freq.     163.37  E(vib)   ...       0.39 
freq.     200.61  E(vib)   ...       0.35 
freq.     210.00  E(vib)   ...       0.34 
freq.     227.06  E(vib)   ...       0.33 
freq.     238.79  E(vib)   ...       0.32 
freq.     252.49  E(vib)   ...       0.30 
freq.     262.57  E(vib)   ...       0.29 
freq.     268.48  E(vib)   ...       0.29 
freq.     272.70  E(vib)   ...       0.29 
freq.     314.46  E(vib)   ...       0.25 
freq.     348.98  E(vib)   ...       0.23 
freq.     380.20  E(vib)   ...       0.21 
freq.     383.85  E(vib)   ...       0.20 
freq.     388.61  E(vib)   ...       0.20 
freq.     392.48  E(vib)   ...       0.20 
freq.     422.74  E(vib)   ...       0.18 
freq.     427.22  E(vib)   ...       0.18 
freq.     450.97  E(vib)   ...       0.17 
freq.     514.02  E(vib)   ...       0.13 
freq.     555.49  E(vib)   ...       0.12 
freq.     588.62  E(vib)   ...       0.10 
freq.     616.17  E(vib)   ...       0.09 
freq.     636.11  E(vib)   ...       0.09 
freq.     676.19  E(vib)   ...       0.08 
freq.     763.78  E(vib)   ...       0.06 
freq.     769.57  E(vib)   ...       0.06 
freq.     772.50  E(vib)   ...       0.05 
freq.     816.84  E(vib)   ...       0.05 
freq.     820.93  E(vib)   ...       0.05 
freq.     825.75  E(vib)   ...       0.04 
freq.     869.78  E(vib)   ...       0.04 
freq.     882.57  E(vib)   ...       0.04 
freq.     885.29  E(vib)   ...       0.04 
freq.     909.21  E(vib)   ...       0.03 
freq.     924.16  E(vib)   ...       0.03 
freq.     933.05  E(vib)   ...       0.03 
freq.     935.17  E(vib)   ...       0.03 
freq.     937.39  E(vib)   ...       0.03 
freq.     943.42  E(vib)   ...       0.03 
freq.     951.65  E(vib)   ...       0.03 
freq.     979.37  E(vib)   ...       0.03 
freq.     983.76  E(vib)   ...       0.02 
freq.    1016.53  E(vib)   ...       0.02 
freq.    1040.32  E(vib)   ...       0.02 
freq.    1061.29  E(vib)   ...       0.02 
freq.    1067.23  E(vib)   ...       0.02 
freq.    1072.56  E(vib)   ...       0.02 
freq.    1087.18  E(vib)   ...       0.02 
freq.    1104.52  E(vib)   ...       0.02 
freq.    1106.99  E(vib)   ...       0.02 
freq.    1114.18  E(vib)   ...       0.01 
freq.    1117.50  E(vib)   ...       0.01 
freq.    1123.34  E(vib)   ...       0.01 
freq.    1134.17  E(vib)   ...       0.01 
freq.    1136.58  E(vib)   ...       0.01 
freq.    1179.27  E(vib)   ...       0.01 
freq.    1186.84  E(vib)   ...       0.01 
freq.    1199.47  E(vib)   ...       0.01 
freq.    1205.90  E(vib)   ...       0.01 
freq.    1207.05  E(vib)   ...       0.01 
freq.    1232.66  E(vib)   ...       0.01 
freq.    1253.56  E(vib)   ...       0.01 
freq.    1262.96  E(vib)   ...       0.01 
freq.    1268.25  E(vib)   ...       0.01 
freq.    1270.81  E(vib)   ...       0.01 
freq.    1275.33  E(vib)   ...       0.01 
freq.    1275.98  E(vib)   ...       0.01 
freq.    1281.04  E(vib)   ...       0.01 
freq.    1281.72  E(vib)   ...       0.01 
freq.    1288.82  E(vib)   ...       0.01 
freq.    1301.03  E(vib)   ...       0.01 
freq.    1308.49  E(vib)   ...       0.01 
freq.    1333.99  E(vib)   ...       0.01 
freq.    1343.37  E(vib)   ...       0.01 
freq.    1373.27  E(vib)   ...       0.01 
freq.    1375.21  E(vib)   ...       0.01 
freq.    1421.78  E(vib)   ...       0.00 
freq.    1424.28  E(vib)   ...       0.00 
freq.    1428.18  E(vib)   ...       0.00 
freq.    1428.56  E(vib)   ...       0.00 
freq.    1462.40  E(vib)   ...       0.00 
freq.    1495.02  E(vib)   ...       0.00 
freq.    1497.82  E(vib)   ...       0.00 
freq.    1504.26  E(vib)   ...       0.00 
freq.    1506.32  E(vib)   ...       0.00 
freq.    1506.81  E(vib)   ...       0.00 
freq.    1507.50  E(vib)   ...       0.00 
freq.    1508.39  E(vib)   ...       0.00 
freq.    1509.87  E(vib)   ...       0.00 
freq.    1512.66  E(vib)   ...       0.00 
freq.    1512.91  E(vib)   ...       0.00 
freq.    1549.73  E(vib)   ...       0.00 
freq.    1560.97  E(vib)   ...       0.00 
freq.    1568.74  E(vib)   ...       0.00 
freq.    1577.13  E(vib)   ...       0.00 
freq.    2871.10  E(vib)   ...       0.00 
freq.    2916.80  E(vib)   ...       0.00 
freq.    2930.04  E(vib)   ...       0.00 
freq.    2937.72  E(vib)   ...       0.00 
freq.    2941.84  E(vib)   ...       0.00 
freq.    2949.49  E(vib)   ...       0.00 
freq.    2951.11  E(vib)   ...       0.00 
freq.    2955.70  E(vib)   ...       0.00 
freq.    2957.90  E(vib)   ...       0.00 
freq.    2962.81  E(vib)   ...       0.00 
freq.    2963.22  E(vib)   ...       0.00 
freq.    2971.47  E(vib)   ...       0.00 
freq.    2975.27  E(vib)   ...       0.00 
freq.    2978.25  E(vib)   ...       0.00 
freq.    2979.37  E(vib)   ...       0.00 
freq.    2983.81  E(vib)   ...       0.00 
freq.    2985.57  E(vib)   ...       0.00 
freq.    2996.27  E(vib)   ...       0.00 
freq.    2997.62  E(vib)   ...       0.00 
freq.    3048.76  E(vib)   ...       0.00 
freq.    3053.20  E(vib)   ...       0.00 
freq.    3058.99  E(vib)   ...       0.00 
freq.    3068.99  E(vib)   ...       0.00 
freq.    3089.01  E(vib)   ...       0.00 
freq.    3217.06  E(vib)   ...       0.00 
freq.    3292.21  E(vib)   ...       0.00 
freq.    3349.98  E(vib)   ...       0.00 
freq.    3411.09  E(vib)   ...       0.00 
freq.    3506.04  E(vib)   ...       0.00 
freq.    3583.82  E(vib)   ...       0.00 

------------
INNER ENERGY
------------

The inner energy is: U= E(el) + E(ZPE) + E(vib) + E(rot) + E(trans)
    E(el)   - is the total energy from the electronic structure calculation
              = E(kin-el) + E(nuc-el) + E(el-el) + E(nuc-nuc)
    E(ZPE)  - the the zero temperature vibrational energy from the frequency calculation
    E(vib)  - the the finite temperature correction to E(ZPE) due to population
              of excited vibrational states
    E(rot)  - is the rotational thermal energy
    E(trans)- is the translational thermal energy

Summary of contributions to the inner energy U:
Electronic energy                ...    -61.40031906 Eh
Zero point energy                ...      0.42726471 Eh     268.11 kcal/mol
Thermal vibrational correction   ...      0.02285583 Eh      14.34 kcal/mol
Thermal rotational correction    ...      0.00141627 Eh       0.89 kcal/mol
Thermal translational correction ...      0.00141627 Eh       0.89 kcal/mol
-----------------------------------------------------------------------
Total thermal energy                    -60.94736598 Eh


Summary of corrections to the electronic energy:
(perhaps to be used in another calculation)
Total thermal correction                  0.02568838 Eh      16.12 kcal/mol
Non-thermal (ZPE) correction              0.42726471 Eh     268.11 kcal/mol
-----------------------------------------------------------------------
Total correction                          0.45295309 Eh     284.23 kcal/mol


--------
ENTHALPY
--------

The enthalpy is H = U + kB*T
                kB is Boltzmann's constant
Total free energy                 ...    -60.94736598 Eh 
Thermal Enthalpy correction       ...      0.00094421 Eh       0.59 kcal/mol
-----------------------------------------------------------------------
Total Enthalpy                    ...    -60.94642177 Eh


Note: Only C1 symmetry has been detected, increase convergence thresholds 
      if your molecule has a higher symmetry. Symmetry factor of 1.0 is   
      used for the rotational entropy correction. 
 

Note: Rotational entropy computed according to Herzberg 
Infrared and Raman Spectra, Chapter V,1, Van Nostrand Reinhold, 1945 
Point Group:  C1, Symmetry Number:   1  
Rotational constants in cm-1:     0.010907     0.006139     0.004656 

Vibrational entropy computed according to the QRRHO of S. Grimme
Chem.Eur.J. 2012 18 9955


-------
ENTROPY
-------

The entropy contributions are T*S = T*(S(el)+S(vib)+S(rot)+S(trans))
     S(el)   - electronic entropy
     S(vib)  - vibrational entropy
     S(rot)  - rotational entropy
     S(trans)- translational entropy
The entropies will be listed as mutliplied by the temperature to get
units of energy

Electronic entropy                ...      0.00000000 Eh      0.00 kcal/mol
Vibrational entropy               ...      0.04225714 Eh     26.52 kcal/mol
Rotational entropy                ...      0.01658317 Eh     10.41 kcal/mol
Translational entropy             ...      0.02028014 Eh     12.73 kcal/mol
-----------------------------------------------------------------------
Final entropy term                ...      0.07912045 Eh     49.65 kcal/mol

In case the symmetry of your molecule has not been determined correctly
or in case you have a reason to use a different symmetry number we print 
out the resulting rotational entropy values for sn=1,12 :
 --------------------------------------------------------
|  sn= 1 | S(rot)=       0.01658317 Eh     10.41 kcal/mol|
|  sn= 2 | S(rot)=       0.01592871 Eh     10.00 kcal/mol|
|  sn= 3 | S(rot)=       0.01554588 Eh      9.76 kcal/mol|
|  sn= 4 | S(rot)=       0.01527426 Eh      9.58 kcal/mol|
|  sn= 5 | S(rot)=       0.01506357 Eh      9.45 kcal/mol|
|  sn= 6 | S(rot)=       0.01489142 Eh      9.34 kcal/mol|
|  sn= 7 | S(rot)=       0.01474588 Eh      9.25 kcal/mol|
|  sn= 8 | S(rot)=       0.01461980 Eh      9.17 kcal/mol|
|  sn= 9 | S(rot)=       0.01450859 Eh      9.10 kcal/mol|
|  sn=10 | S(rot)=       0.01440911 Eh      9.04 kcal/mol|
|  sn=11 | S(rot)=       0.01431912 Eh      8.99 kcal/mol|
|  sn=12 | S(rot)=       0.01423697 Eh      8.93 kcal/mol|
 --------------------------------------------------------


-------------------
GIBBS FREE ENERGY
-------------------

The Gibbs free energy is G = H - T*S

Total enthalpy                    ...    -60.94642177 Eh 
Total entropy correction          ...     -0.07912045 Eh    -49.65 kcal/mol
-----------------------------------------------------------------------
Final Gibbs free energy         ...    -61.02554221 Eh

For completeness - the Gibbs free energy minus the electronic energy
G-E(el)                           ...      0.37477685 Eh    235.18 kcal/mol


Total Time for Numerical Frequencies  :       486.806 sec
Time for Reference State(s)           :         0.564 sec
Time for Displacements                :       455.782 sec

Timings for individual modules:

Sum of individual times         ...        1.193 sec (=   0.020 min)
XTB module                      ...        1.193 sec (=   0.020 min) 100.0 %
                             ****ORCA TERMINATED NORMALLY****
TOTAL RUN TIME: 0 days 0 hours 8 minutes 8 seconds 500 msec
(SLURM) EXECUTION TIME: 488.549931570 seconds.
