(SLURM) JOB ID:         396

                                 *****************
                                 * O   R   C   A *
                                 *****************

           --- An Ab Initio, DFT and Semiempirical electronic structure package ---

                  #######################################################
                  #                        -***-                        #
                  #          Department of theory and spectroscopy      #
                  #               Directorship: Frank Neese             #
                  #        Max Planck Institute fuer Kohlenforschung    #
                  #                Kaiser Wilhelm Platz 1               #
                  #                 D-45470 Muelheim/Ruhr               #
                  #                      Germany                        #
                  #                                                     #
                  #                  All rights reserved                #
                  #                        -***-                        #
                  #######################################################


                         Program Version 4.2.1 -  RELEASE  -


 With contributions from (in alphabetic order):
   Daniel Aravena         : Magnetic Suceptibility
   Michael Atanasov       : Ab Initio Ligand Field Theory (pilot matlab implementation)
   Alexander A. Auer      : GIAO ZORA, VPT2
   Ute Becker             : Parallelization
   Giovanni Bistoni       : ED, misc. LED, open-shell LED, HFLD
   Martin Brehm           : Molecular dynamics
   Dmytro Bykov           : SCF Hessian
   Vijay G. Chilkuri      : MRCI spin determinant printing, contributions to CSF-ICE
   Dipayan Datta          : RHF DLPNO-CCSD density
   Achintya Kumar Dutta   : EOM-CC, STEOM-CC
   Dmitry Ganyushin       : Spin-Orbit,Spin-Spin,Magnetic field MRCI
   Miquel Garcia          : C-PCM Hessian, Gaussian charge scheme
   Yang Guo               : DLPNO-NEVPT2, CIM, IAO-localization
   Andreas Hansen         : Spin unrestricted coupled pair/coupled cluster methods
   Benjamin Helmich-Paris : CASSCF linear response (MC-RPA)
   Lee Huntington         : MR-EOM, pCC
   Robert Izsak           : Overlap fitted RIJCOSX, COSX-SCS-MP3, EOM
   Christian Kollmar      : KDIIS, OOCD, Brueckner-CCSD(T), CCSD density
   Simone Kossmann        : Meta GGA functionals, TD-DFT gradient, OOMP2, MP2 Hessian
   Martin Krupicka        : AUTO-CI
   Lucas Lang             : DCDCAS
   Dagmar Lenk            : GEPOL surface, SMD
   Dimitrios Liakos       : Extrapolation schemes; Compound Job, initial MDCI parallelization
   Dimitrios Manganas     : Further ROCIS development; embedding schemes
   Dimitrios Pantazis     : SARC Basis sets
   Taras Petrenko         : DFT Hessian,TD-DFT gradient, ASA, ECA, R-Raman, ABS, FL, XAS/XES, NRVS
   Peter Pinski           : DLPNO-MP2, DLPNO-MP2 Gradient
   Christoph Reimann      : Effective Core Potentials
   Marius Retegan         : Local ZFS, SOC
   Christoph Riplinger    : Optimizer, TS searches, QM/MM, DLPNO-CCSD(T), (RO)-DLPNO pert. Triples
   Tobias Risthaus        : Range-separated hybrids, TD-DFT gradient, RPA, STAB
   Michael Roemelt        : Original ROCIS implementation
   Masaaki Saitow         : Open-shell DLPNO-CCSD energy and density
   Barbara Sandhoefer     : DKH picture change effects
   Avijit Sen             : IP-ROCIS
   Kantharuban Sivalingam : CASSCF convergence, NEVPT2, FIC-MRCI
   Bernardo de Souza      : ESD, SOC TD-DFT
   Georgi Stoychev        : AutoAux, RI-MP2 NMR
   Willem Van den Heuvel  : Paramagnetic NMR
   Boris Wezisla          : Elementary symmetry handling
   Frank Wennmohs         : Technical directorship


 We gratefully acknowledge several colleagues who have allowed us to
 interface, adapt or use parts of their codes:
   Stefan Grimme, W. Hujo, H. Kruse,             : VdW corrections, initial TS optimization,
                  C. Bannwarth                     DFT functionals, gCP, sTDA/sTD-DF
   Ed Valeev, F. Pavosevic, A. Kumar             : LibInt (2-el integral package), F12 methods
   Garnet Chan, S. Sharma, J. Yang, R. Olivares  : DMRG
   Ulf Ekstrom                                   : XCFun DFT Library
   Mihaly Kallay                                 : mrcc  (arbitrary order and MRCC methods)
   Andreas Klamt, Michael Diedenhofen            : otool_cosmo (COSMO solvation model)
   Jiri Pittner, Ondrej Demel                    : Mk-CCSD
   Frank Weinhold                                : gennbo (NPA and NBO analysis)
   Christopher J. Cramer and Donald G. Truhlar   : smd solvation model
   Lars Goerigk                                  : TD-DFT with DH, B97 family of functionals
   V. Asgeirsson, H. Jonsson                     : NEB implementation
   FAccTs GmbH                                   : IRC, NEB, NEB-TS, Multilevel, MM, QM/MM, CI optimization
   S Lehtola, MJT Oliveira, MAL Marques          : LibXC Library


 Your calculation uses the libint2 library for the computation of 2-el integrals
 For citations please refer to: http://libint.valeyev.net

 Your ORCA version has been built with support for libXC version: 4.2.3
 For citations please refer to: https://tddft.org/programs/libxc/

 This ORCA versions uses:
   CBLAS   interface :  Fast vector & matrix operations
   LAPACKE interface :  Fast linear algebra routines
   SCALAPACK package :  Parallel linear algebra routines




***************************************
The coordinates will be read from file: init.xyz
***************************************


Your calculation utilizes the SMD solvation module
Please cite in your paper:
A.V. Marenich, C.J. Cramer, D.G. Truhlar J. Phys. Chem. B, 113, (2009), 6378 

Your calculation utilizes the semiempirical GFN2-xTB method
Please cite in your paper:
C. Bannwarth, Ehlert S., S. Grimme,  J. Chem. Theory Comput., 15, (2019), 1652.
   

----- Orbital basis set information -----
Your calculation utilizes the basis: def2-SVP
   F. Weigend and R. Ahlrichs, Phys. Chem. Chem. Phys. 7, 3297 (2005).

================================================================================
                                        WARNINGS
                       Please study these warnings very carefully!
================================================================================

WARNING: Gradients needed for Numerical Frequencies
  ===> : Setting RunTyp to EnGrad

WARNING: The environment variable RSH_COMMAND is not set!
  ===> : All Displacements for the Numerical Hessian calculation
         will be started on localhost

WARNING: Found dipole moment calculation with XTB calculation
  ===> : Switching off dipole moment calculation


INFO   : the flag for use of LIBINT has been found!

================================================================================
                                       INPUT FILE
================================================================================
NAME = /tmp/slurm-scratch/freq.396/freq.inp
|  1> ! XTB2 NumFreq
|  2> %maxcore 1150
|  3> 
|  4> * xyzfile 0 1 init.xyz
|  5> 
|  6> %cpcm
|  7>  smd true
|  8>  smdsolvent "ch2cl2"
|  9> end
| 10> %pal nprocs 9 end
| 11> 
| 12>                          ****END OF INPUT****
================================================================================

                     *******************************
                     * Energy+Gradient Calculation *
                     *******************************

      -----------------------------------------------------------      
     |                   =====================                   |     
     |                           x T B                           |     
     |                   =====================                   |     
     |                         S. Grimme                         |     
     |          Mulliken Center for Theoretical Chemistry        |     
     |                    University of Bonn                     |     
      -----------------------------------------------------------      

   * xtb version 6.3.2 (30e43eb) compiled by 'schneider@apollo14' on 2020-08-08

   xtb is free software: you can redistribute it and/or modify it under
   the terms of the GNU Lesser General Public License as published by
   the Free Software Foundation, either version 3 of the License, or
   (at your option) any later version.
   
   xtb is distributed in the hope that it will be useful,
   but WITHOUT ANY WARRANTY; without even the implied warranty of
   MERCHANTABILITY or FITNESS FOR A PARTICULAR PURPOSE.  See the
   GNU Lesser General Public License for more details.
   
   Cite this work as:
   * S. Grimme, C. Bannwarth, P. Shushkov, J. Chem. Theory Comput., 2017,
     13, 1989-2009. DOI: 10.1021/acs.jctc.7b00118
   * C. Bannwarth, S. Ehlert and S. Grimme., J. Chem. Theory Comput., 2019,
     15, 1652-1671. DOI: 10.1021/acs.jctc.8b01176
   * P. Pracht, E. Caldeweyher, S. Ehlert, S. Grimme, ChemRxiv, 2019, preprint.
     DOI: 10.26434/chemrxiv.8326202.v1
   
   for GFN-FF:
   * S. Spicher and S. Grimme, Angew. Chem. Int. Ed., 2020,
     DOI: 10.1002/anie.202004239
   
   for DFT-D4:
   * E. Caldeweyher, C. Bannwarth and S. Grimme, J. Chem. Phys., 2017,
     147, 034112. DOI: 10.1063/1.4993215
   * E. Caldeweyher, S. Ehlert, A. Hansen, H. Neugebauer, S. Spicher,
     C. Bannwarth and S. Grimme, J. Chem. Phys., 2019, 150, 154122.
     DOI: 10.1063/1.5090222
   
   for sTDA-xTB:
   * S. Grimme and C. Bannwarth, J. Chem. Phys., 2016, 145, 054103.
     DOI: 10.1063/1.4959605
   
   in the mass-spec context:
   * V. Asgeirsson, C. Bauer and S. Grimme, Chem. Sci., 2017, 8, 4879.
     DOI: 10.1039/c7sc00601b
   * J. Koopman and S. Grimme, ACS Omega 2019, 4, 12, 15120-15133.
     DOI: 10.1021/acsomega.9b02011
   
   for metadynamics refer to:
   * S. Grimme, J. Chem. Theory Comput., 2019, 155, 2847-2862
     DOI: 10.1021/acs.jctc.9b00143
   
   with help from (in alphabetical order)
   C. Bannwarth, F. Bohle, G. Brandenburg, E. Caldeweyher, M. Checinski,
   S. Dohm, S. Ehlert, S. Ehrlich, F. März, H. Neugebauer, J. Pisarek,
   P. Pracht, P. Shushkov, and S. Spicher.
   
 * started run on 2020/08/20 at 19:29:39.944     

           -------------------------------------------------
          |                Calculation Setup                |
           -------------------------------------------------

          program call               : /opt/orca/otool_xtb /tmp/slurm-scratch/freq.396/freq_XTB.xyz --grad -c 0 -u 0 -P 9 --namespace /tmp/slurm-scratch/freq.396/freq --gbsa CH2Cl2
          hostname                   : apollo14
          calculation namespace      : /tmp/slurm-scratch/freq.396/freq
          coordinate file            : /tmp/slurm-scratch/freq.396/freq_XTB.xyz
          omp threads                :                     9
          number of atoms            :                    49
          number of electrons        :                   112
          charge                     :                     0
          spin                       :                   0.0
          first test random number   :      0.23467062591418

   ID    Z sym.   atoms
    1    6 C      1-7, 12, 14, 30, 33, 36, 39, 42, 46
    2    1 H      8-10, 13, 15-18, 21, 22, 24-29, 31, 32, 34, 35, 37, 38, 40,
                  41, 43-45, 47-49
    3    7 N      11, 20
    4    8 O      19, 23

molecular fragmentation (1/2 indicates fragments):
1111111111222222221222222121122222222222222222222
# atoms in fragment 1/2:    14    35
 fragment masses (1/2) :      106.12      164.29
CMA distance (Bohr)    :   7.065
constraining FC (au)   :  0.0500
########################################################################
[WARNING] Please study the warnings concerning your input carefully
-1- prog_main_parseArguments: Process number higher than OMP_NUM_THREADS, I hope you know what you are doing.
########################################################################

           -------------------------------------------------
          |                 G F N 2 - x T B                 |
           -------------------------------------------------

        Reference                      10.1021/acs.jctc.8b01176
      * Hamiltonian:
        H0-scaling (s, p, d)           1.850000    2.230000    2.230000
        zeta-weighting                 0.500000
      * Dispersion:
        s8                             2.700000
        a1                             0.520000
        a2                             5.000000
        s9                             5.000000
      * Repulsion:
        kExp                           1.500000    1.000000
        rExp                           1.000000
      * Coulomb:
        alpha                          2.000000
        third order                    shell-resolved
        anisotropic                    true
        a3                             3.000000
        a5                             4.000000
        cn-shift                       1.200000
        cn-exp                         4.000000
        max-rad                        5.000000

      * Solvation model:               GBSA
        Solvent                        CH2Cl2
        Parameter file                 internal GFN2-xTB/GBSA
        Dielectric constant                8.9300E+00
        Reference state                gsolv [1 M gas/solution]
        Free energy shift                  4.4408E-03 Eh       2.7867E+00 kcal/mol
        Temperature                        2.9815E+02 K
        Density                            1.3300E+00 kg/L
        Solvent mass                       8.4930E+01 g/mol
        Interaction kernel             Still
        Born radius scaling (c1)           1.4917E+00
        Born radii integrator          GBOBC
        Born offset                        0.0000E+00 a0       0.0000E+00 AA
        H-bond correction              false
        Ion screening                  false
        Surface tension                    1.0000E-05 Eh       1.5569E+01 dyn/cm
        Grid points                               230 per atom

          ...................................................
          :                      SETUP                      :
          :.................................................:
          :  # basis functions                 106          :
          :  # atomic orbitals                 106          :
          :  # shells                           68          :
          :  # electrons                       112          :
          :  max. iterations                   250          :
          :  Hamiltonian                  GFN2-xTB          :
          :  restarted?                      false          :
          :  GBSA solvation                   true          :
          :  PC potential                    false          :
          :  electronic temp.          300.0000000     K    :
          :  accuracy                    1.0000000          :
          :  -> integral cutoff          0.2500000E+02      :
          :  -> integral neglect         0.1000000E-07      :
          :  -> SCF convergence          0.1000000E-05 Eh   :
          :  -> wf. convergence          0.1000000E-03 e    :
          :  Broyden damping             0.4000000          :
          ...................................................

 iter      E             dE          RMSdq      gap      omega  full diag
   1    -62.0649387 -0.620649E+02  0.374E+00    2.39       0.0  T
   2    -62.1580554 -0.931167E-01  0.200E+00    2.17       1.0  T
   3    -62.1587481 -0.692699E-03  0.954E-01    2.29       1.0  T
   4    -62.1644851 -0.573698E-02  0.220E-01    2.07       1.0  T
   5    -62.1656832 -0.119811E-02  0.728E-02    2.11       1.0  T
   6    -62.1657319 -0.487437E-04  0.360E-02    2.12       1.0  T
   7    -62.1657515 -0.195849E-04  0.130E-02    2.12       1.1  T
   8    -62.1657530 -0.145292E-05  0.421E-03    2.12       3.4  T
   9    -62.1657532 -0.214576E-06  0.177E-03    2.12       8.1  T
  10    -62.1657532 -0.392754E-07  0.898E-04    2.12      15.9  T
  11    -62.1657532 -0.719062E-08  0.377E-04    2.12      37.9  T

   *** convergence criteria satisfied after 11 iterations ***

         #    Occupation            Energy/Eh            Energy/eV
      -------------------------------------------------------------
         1        2.0000           -0.7086363             -19.2830
       ...           ...                  ...                  ...
        50        2.0000           -0.4232113             -11.5162
        51        2.0000           -0.4230358             -11.5114
        52        2.0000           -0.4175933             -11.3633
        53        2.0000           -0.4159893             -11.3196
        54        2.0000           -0.4026113             -10.9556
        55        2.0000           -0.3867821             -10.5249
        56        2.0000           -0.3718460             -10.1184 (HOMO)
        57                         -0.2939374              -7.9984 (LUMO)
        58                         -0.2394708              -6.5163
        59                         -0.2075165              -5.6468
        60                         -0.1039981              -2.8299
        61                         -0.0073849              -0.2010
       ...                                ...                  ...
       106                          0.6157672              16.7559
      -------------------------------------------------------------
                  HL-Gap            0.0779086 Eh            2.1200 eV
             Fermi-level           -0.3328917 Eh           -9.0584 eV

 SCC (total)                   0 d,  0 h,  0 min,  0.218 sec
 SCC setup                      ...        0 min,  0.009 sec (  4.039%)
 Dispersion                     ...        0 min,  0.005 sec (  2.358%)
 classical contributions        ...        0 min,  0.002 sec (  1.068%)
 integral evaluation            ...        0 min,  0.022 sec ( 10.051%)
 iterations                     ...        0 min,  0.092 sec ( 42.278%)
 molecular gradient             ...        0 min,  0.087 sec ( 40.045%)
 printout                       ...        0 min,  0.000 sec (  0.151%)

         :::::::::::::::::::::::::::::::::::::::::::::::::::::
         ::                     SUMMARY                     ::
         :::::::::::::::::::::::::::::::::::::::::::::::::::::
         :: total energy             -61.361596279345 Eh    ::
         :: total w/o Gsasa/hb       -61.338627058898 Eh    ::
         :: gradient norm              0.057480251053 Eh/a0 ::
         :: HOMO-LUMO gap              2.120001022435 eV    ::
         ::.................................................::
         :: SCC energy               -62.165753227141 Eh    ::
         :: -> isotropic ES            0.095719518128 Eh    ::
         :: -> anisotropic ES          0.004725252791 Eh    ::
         :: -> anisotropic XC          0.039024005503 Eh    ::
         :: -> dispersion             -0.041879728649 Eh    ::
         :: -> Gsolv                  -0.033079791711 Eh    ::
         ::    -> Gborn               -0.010110571265 Eh    ::
         ::    -> Gsasa               -0.027410049620 Eh    ::
         ::    -> Ghb                  0.000000000000 Eh    ::
         ::    -> Gshift               0.004440829173 Eh    ::
         :: repulsion energy           0.802825279682 Eh    ::
         :: add. restraining           0.000000000000 Eh    ::
         :: total charge              -0.000000000000 e     ::
         :::::::::::::::::::::::::::::::::::::::::::::::::::::

           -------------------------------------------------
          |                Property Printout                |
           -------------------------------------------------

    * Orbital Energies and Occupations

         #    Occupation            Energy/Eh            Energy/eV
      -------------------------------------------------------------
         1        2.0000           -0.7086363             -19.2830
       ...           ...                  ...                  ...
        44        2.0000           -0.4402020             -11.9785
        45        2.0000           -0.4383902             -11.9292
        46        2.0000           -0.4355940             -11.8531
        47        2.0000           -0.4347611             -11.8305
        48        2.0000           -0.4340631             -11.8115
        49        2.0000           -0.4284007             -11.6574
        50        2.0000           -0.4232113             -11.5162
        51        2.0000           -0.4230358             -11.5114
        52        2.0000           -0.4175933             -11.3633
        53        2.0000           -0.4159893             -11.3196
        54        2.0000           -0.4026113             -10.9556
        55        2.0000           -0.3867821             -10.5249
        56        2.0000           -0.3718460             -10.1184 (HOMO)
        57                         -0.2939374              -7.9984 (LUMO)
        58                         -0.2394708              -6.5163
        59                         -0.2075165              -5.6468
        60                         -0.1039981              -2.8299
        61                         -0.0073849              -0.2010
        62                          0.0135174               0.3678
        63                          0.0548654               1.4930
        64                          0.0710745               1.9340
        65                          0.0812832               2.2118
        66                          0.0872937               2.3754
        67                          0.0955662               2.6005
       ...                                ...                  ...
       106                          0.6157672              16.7559
      -------------------------------------------------------------
                  HL-Gap            0.0779086 Eh            2.1200 eV
             Fermi-level           -0.3328917 Eh           -9.0584 eV

     #   Z          covCN         q      C6AA      α(0)
     1   6 C        2.961    -0.008    28.228     8.715
     2   6 C        2.913    -0.023    28.585     8.767
     3   6 C        2.907    -0.025    28.628     8.773
     4   6 C        2.910    -0.017    28.442     8.745
     5   6 C        2.908    -0.023    28.585     8.767
     6   6 C        2.912    -0.012    28.325     8.727
     7   6 C        2.763     0.208    23.595     7.955
     8   1 H        0.925     0.049     2.328     2.386
     9   1 H        0.925     0.050     2.323     2.383
    10   1 H        0.925     0.053     2.277     2.360
    11   7 N        2.626    -0.371    29.582     8.078
    12   6 C        3.727     0.023    20.278     6.429
    13   1 H        0.859     0.172     1.263     1.760
    14   6 C        3.797    -0.064    21.724     6.637
    15   1 H        0.922     0.009     2.900     2.663
    16   1 H        0.923     0.029     2.607     2.525
    17   1 H        0.923     0.040     2.448     2.447
    18   1 H        0.923     0.034     2.535     2.490
    19   8 O        0.856    -0.414    21.962     6.283
    20   7 N        2.626    -0.367    29.481     8.064
    21   1 H        0.859     0.172     1.262     1.760
    22   1 H        0.859     0.148     1.413     1.862
    23   8 O        1.599    -0.631    25.950     6.875
    24   1 H        0.796     0.306     0.706     1.321
    25   1 H        0.804     0.274     0.804     1.409
    26   1 H        0.922     0.034     2.532     2.489
    27   1 H        0.860     0.141     1.467     1.897
    28   1 H        0.925     0.051     2.309     2.376
    29   1 H        0.925     0.050     2.325     2.384
    30   6 C        3.795    -0.052    21.522     6.606
    31   1 H        0.923     0.031     2.572     2.508
    32   1 H        0.923     0.030     2.580     2.512
    33   6 C        3.727     0.017    20.382     6.446
    34   1 H        0.923     0.017     2.781     2.608
    35   1 H        0.923     0.037     2.486     2.466
    36   6 C        3.798    -0.070    21.842     6.655
    37   1 H        0.923     0.045     2.380     2.413
    38   1 H        0.923     0.037     2.489     2.467
    39   6 C        3.796    -0.054    21.547     6.610
    40   1 H        0.923     0.033     2.542     2.494
    41   1 H        0.923     0.034     2.537     2.491
    42   6 C        3.745    -0.100    22.489     6.765
    43   1 H        0.923     0.036     2.497     2.471
    44   1 H        0.923     0.034     2.532     2.488
    45   1 H        0.923     0.035     2.520     2.483
    46   6 C        3.746    -0.101    22.504     6.767
    47   1 H        0.923     0.039     2.465     2.455
    48   1 H        0.923     0.034     2.526     2.486
    49   1 H        0.923     0.033     2.550     2.497

 Mol. C6AA /au·bohr⁶  :      19232.121717
 Mol. C8AA /au·bohr⁸  :     416954.059764
 Mol. α(0) /au        :        212.013440


Wiberg/Mayer (AO) data.
largest (>0.10) Wiberg bond orders for each atom

 ---------------------------------------------------------------------------
     #   Z sym  total        # sym  WBO       # sym  WBO       # sym  WBO
 ---------------------------------------------------------------------------
     1   6 C    3.988 --     2 C    1.367     6 C    1.366     7 C    1.068
     2   6 C    3.988 --     3 C    1.460     1 C    1.367     8 H    0.966
                             5 C    0.104
     3   6 C    3.990 --     2 C    1.460     4 C    1.427    28 H    0.969
                             6 C    0.104
     4   6 C    3.988 --     3 C    1.427     5 C    1.427    10 H    0.970
     5   6 C    3.990 --     6 C    1.458     4 C    1.427    29 H    0.969
                             2 C    0.104
     6   6 C    3.988 --     5 C    1.458     1 C    1.366     9 H    0.966
                             3 C    0.104
     7   6 C    3.910 --    19 O    1.786     1 C    1.068    26 H    0.935
     8   1 H    0.998 --     2 C    0.966
     9   1 H    0.998 --     6 C    0.966
    10   1 H    0.997 --     4 C    0.970
    11   7 N    3.046 --    12 C    1.017    27 H    0.966    13 H    0.939
    12   6 C    3.984 --    11 N    1.017    14 C    1.006    16 H    0.975
                            15 H    0.970
    13   1 H    0.970 --    11 N    0.939
    14   6 C    3.995 --    30 C    1.007    12 C    1.006    18 H    0.975
                            17 H    0.975
    15   1 H    0.999 --    12 C    0.970
    16   1 H    0.999 --    12 C    0.975
    17   1 H    0.998 --    14 C    0.975
    18   1 H    0.999 --    14 C    0.975
    19   8 O    2.023 --     7 C    1.786
    20   7 N    3.085 --    33 C    1.007    22 H    0.965    21 H    0.944
    21   1 H    0.970 --    20 N    0.944
    22   1 H    0.978 --    20 N    0.965
    23   8 O    1.816 --    25 H    0.922    24 H    0.819
    24   1 H    0.907 --    23 O    0.819
    25   1 H    0.925 --    23 O    0.922
    26   1 H    0.998 --     7 C    0.935
    27   1 H    0.980 --    11 N    0.966
    28   1 H    0.997 --     3 C    0.969
    29   1 H    0.997 --     5 C    0.969
    30   6 C    3.997 --    42 C    1.019    14 C    1.007    31 H    0.978
                            32 H    0.978
    31   1 H    0.999 --    30 C    0.978
    32   1 H    0.999 --    30 C    0.978
    33   6 C    3.980 --    20 N    1.007    36 C    1.006    35 H    0.978
                            34 H    0.972
    34   1 H    1.000 --    33 C    0.972
    35   1 H    0.998 --    33 C    0.978
    36   6 C    3.994 --    33 C    1.006    39 C    1.006    37 H    0.975
                            38 H    0.971
    37   1 H    0.998 --    36 C    0.975
    38   1 H    0.999 --    36 C    0.971
    39   6 C    3.997 --    46 C    1.019    36 C    1.006    41 H    0.978
                            40 H    0.977
    40   1 H    0.999 --    39 C    0.977
    41   1 H    0.999 --    39 C    0.978
    42   6 C    3.996 --    30 C    1.019    44 H    0.988    45 H    0.988
                            43 H    0.987
    43   1 H    0.998 --    42 C    0.987
    44   1 H    0.999 --    42 C    0.988
    45   1 H    0.999 --    42 C    0.988
    46   6 C    3.996 --    39 C    1.019    48 H    0.988    49 H    0.988
                            47 H    0.987
    47   1 H    0.998 --    46 C    0.987
    48   1 H    0.999 --    46 C    0.988
    49   1 H    0.999 --    46 C    0.988
 ---------------------------------------------------------------------------

Topologies differ in total number of bonds
Writing topology from bond orders to xtbtopo.mol

molecular dipole:
                 x           y           z       tot (Debye)
 q only:       -1.413       0.540      -0.070
   full:       -1.365       0.536      -0.176       3.754
molecular quadrupole (traceless):
                xx          xy          yy          xz          yz          zz
 q only:        7.052       6.822       4.079       1.211       3.407     -11.131
  q+dip:        6.289       6.504       7.173       2.085       8.362     -13.462
   full:        5.704       6.380       5.891       1.813       6.945     -11.595


           -------------------------------------------------
          | TOTAL ENERGY              -61.361596279345 Eh   |
          | GRADIENT NORM               0.057480251053 Eh/α |
          | HOMO-LUMO GAP               2.120001022435 eV   |
           -------------------------------------------------

------------------------------------------------------------------------
 * finished run on 2020/08/20 at 19:29:40.241     
------------------------------------------------------------------------
 total:
 * wall-time:     0 d,  0 h,  0 min,  0.297 sec
 *  cpu-time:     0 d,  0 h,  0 min,  3.268 sec
 * ratio c/w:    11.015 speedup
 SCF:
 * wall-time:     0 d,  0 h,  0 min,  0.222 sec
 *  cpu-time:     0 d,  0 h,  0 min,  2.419 sec
 * ratio c/w:    10.881 speedup


-------------------------   --------------------
FINAL SINGLE POINT ENERGY       -61.361596279340
-------------------------   --------------------


----------------------------------------------------------------------------
                           ORCA NUMERICAL FREQUENCIES
                              (9-process run)
----------------------------------------------------------------------------

Number of atoms                ... 49
Central differences            ... used
Number of displacements        ... 294
Numerical increment            ... 5.000e-03 bohr
IR-spectrum generation         ... on
Raman-spectrum generation      ... off
Surface Crossing Hessian       ... off
List of participating nodes    ...  /tmp/slurm-scratch/freq.396/freq.hostnames

The output will be reduced. Please look at the following files:
SCF program output             ... >/tmp/slurm-scratch/freq.396/freq.lastscf
Integral program output        ... >/tmp/slurm-scratch/freq.396/freq.lastint
Gradient program output        ... >/tmp/slurm-scratch/freq.396/freq.lastgrad
Dipole moment program output   ... >/tmp/slurm-scratch/freq.396/freq.lastmom
AutoCI program output          ... >/tmp/slurm-scratch/freq.396/freq.lastautoci


         <<< Energy and Gradient at the input geometry >>>

        <<< Energy and Gradient at displaced geometries >>>
             <<<Displacing   3/coordinate 3 (+)>>>
             <<<Displacing   3/coordinate 1 (+)>>>
             <<<Displacing   3/coordinate 2 (+)>>>
             <<<Displacing   2/coordinate 1 (+)>>>
             <<<Displacing   2/coordinate 3 (+)>>>
             <<<Displacing   2/coordinate 2 (+)>>>
             <<<Displacing   2/coordinate 3 (-)>>>
             <<<Displacing   2/coordinate 1 (-)>>>
             <<<Displacing   3/coordinate 1 (-)>>>
             <<<Displacing   3/coordinate 3 (-)>>>
             <<<Displacing   1/coordinate 1 (+)>>>
             <<<Displacing   3/coordinate 2 (-)>>>
             <<<Displacing   2/coordinate 2 (-)>>>
             <<<Displacing   1/coordinate 2 (+)>>>
             <<<Displacing   1/coordinate 1 (-)>>>
             <<<Displacing   1/coordinate 3 (+)>>>
             <<<Displacing   1/coordinate 2 (-)>>>
             <<<Displacing   1/coordinate 3 (-)>>>
             <<<Displacing   5/coordinate 1 (+)>>>
             <<<Displacing   4/coordinate 1 (+)>>>
             <<<Displacing   6/coordinate 1 (+)>>>
             <<<Displacing   4/coordinate 1 (-)>>>
             <<<Displacing   5/coordinate 1 (-)>>>
             <<<Displacing   4/coordinate 3 (+)>>>
             <<<Displacing   6/coordinate 1 (-)>>>
             <<<Displacing   4/coordinate 2 (+)>>>
             <<<Displacing   5/coordinate 2 (+)>>>
             <<<Displacing   5/coordinate 3 (+)>>>
             <<<Displacing   4/coordinate 3 (-)>>>
             <<<Displacing   4/coordinate 2 (-)>>>
             <<<Displacing   6/coordinate 2 (+)>>>
             <<<Displacing   5/coordinate 3 (-)>>>
             <<<Displacing   5/coordinate 2 (-)>>>
             <<<Displacing   6/coordinate 2 (-)>>>
             <<<Displacing   6/coordinate 3 (+)>>>
             <<<Displacing   6/coordinate 3 (-)>>>
             <<<Displacing   7/coordinate 1 (+)>>>
             <<<Displacing   8/coordinate 2 (+)>>>
             <<<Displacing   9/coordinate 2 (+)>>>
             <<<Displacing   7/coordinate 3 (+)>>>
             <<<Displacing   7/coordinate 2 (+)>>>
             <<<Displacing   9/coordinate 2 (-)>>>
             <<<Displacing   8/coordinate 2 (-)>>>
             <<<Displacing   8/coordinate 3 (+)>>>
             <<<Displacing   7/coordinate 3 (-)>>>
             <<<Displacing   7/coordinate 1 (-)>>>
             <<<Displacing   9/coordinate 1 (+)>>>
             <<<Displacing   8/coordinate 1 (+)>>>
             <<<Displacing   7/coordinate 2 (-)>>>
             <<<Displacing   8/coordinate 3 (-)>>>
             <<<Displacing   8/coordinate 1 (-)>>>
             <<<Displacing   9/coordinate 1 (-)>>>
             <<<Displacing   9/coordinate 3 (+)>>>
             <<<Displacing   9/coordinate 3 (-)>>>
             <<<Displacing  10/coordinate 3 (+)>>>
             <<<Displacing  10/coordinate 2 (+)>>>
             <<<Displacing  11/coordinate 2 (+)>>>
             <<<Displacing  12/coordinate 1 (+)>>>
             <<<Displacing  10/coordinate 3 (-)>>>
             <<<Displacing  10/coordinate 1 (+)>>>
             <<<Displacing  11/coordinate 2 (-)>>>
             <<<Displacing  10/coordinate 2 (-)>>>
             <<<Displacing  11/coordinate 1 (+)>>>
             <<<Displacing  12/coordinate 1 (-)>>>
             <<<Displacing  11/coordinate 3 (+)>>>
             <<<Displacing  10/coordinate 1 (-)>>>
             <<<Displacing  11/coordinate 1 (-)>>>
             <<<Displacing  11/coordinate 3 (-)>>>
             <<<Displacing  12/coordinate 2 (+)>>>
             <<<Displacing  12/coordinate 2 (-)>>>
             <<<Displacing  12/coordinate 3 (+)>>>
             <<<Displacing  12/coordinate 3 (-)>>>
             <<<Displacing  13/coordinate 1 (+)>>>
             <<<Displacing  14/coordinate 1 (+)>>>
             <<<Displacing  13/coordinate 1 (-)>>>
             <<<Displacing  13/coordinate 2 (+)>>>
             <<<Displacing  13/coordinate 3 (+)>>>
             <<<Displacing  14/coordinate 1 (-)>>>
             <<<Displacing  13/coordinate 2 (-)>>>
             <<<Displacing  13/coordinate 3 (-)>>>
             <<<Displacing  14/coordinate 3 (+)>>>
             <<<Displacing  14/coordinate 2 (+)>>>
             <<<Displacing  14/coordinate 3 (-)>>>
             <<<Displacing  15/coordinate 1 (+)>>>
             <<<Displacing  14/coordinate 2 (-)>>>
             <<<Displacing  15/coordinate 1 (-)>>>
             <<<Displacing  15/coordinate 2 (+)>>>
             <<<Displacing  15/coordinate 2 (-)>>>
             <<<Displacing  15/coordinate 3 (+)>>>
             <<<Displacing  15/coordinate 3 (-)>>>
             <<<Displacing  16/coordinate 3 (+)>>>
             <<<Displacing  16/coordinate 3 (-)>>>
             <<<Displacing  17/coordinate 2 (+)>>>
             <<<Displacing  16/coordinate 2 (+)>>>
             <<<Displacing  16/coordinate 1 (+)>>>
             <<<Displacing  17/coordinate 2 (-)>>>
             <<<Displacing  16/coordinate 1 (-)>>>
             <<<Displacing  16/coordinate 2 (-)>>>
             <<<Displacing  17/coordinate 1 (+)>>>
             <<<Displacing  17/coordinate 1 (-)>>>
             <<<Displacing  17/coordinate 3 (+)>>>
             <<<Displacing  18/coordinate 1 (+)>>>
             <<<Displacing  17/coordinate 3 (-)>>>
             <<<Displacing  18/coordinate 1 (-)>>>
             <<<Displacing  18/coordinate 2 (+)>>>
             <<<Displacing  18/coordinate 2 (-)>>>
             <<<Displacing  18/coordinate 3 (+)>>>
             <<<Displacing  18/coordinate 3 (-)>>>
             <<<Displacing  19/coordinate 1 (+)>>>
             <<<Displacing  19/coordinate 3 (+)>>>
             <<<Displacing  19/coordinate 1 (-)>>>
             <<<Displacing  19/coordinate 3 (-)>>>
             <<<Displacing  20/coordinate 2 (+)>>>
             <<<Displacing  19/coordinate 2 (+)>>>
             <<<Displacing  19/coordinate 2 (-)>>>
             <<<Displacing  20/coordinate 3 (+)>>>
             <<<Displacing  20/coordinate 2 (-)>>>
             <<<Displacing  20/coordinate 3 (-)>>>
             <<<Displacing  20/coordinate 1 (+)>>>
             <<<Displacing  20/coordinate 1 (-)>>>
             <<<Displacing  21/coordinate 1 (+)>>>
             <<<Displacing  21/coordinate 1 (-)>>>
             <<<Displacing  21/coordinate 2 (+)>>>
             <<<Displacing  21/coordinate 2 (-)>>>
             <<<Displacing  21/coordinate 3 (+)>>>
             <<<Displacing  22/coordinate 1 (+)>>>
             <<<Displacing  22/coordinate 1 (-)>>>
             <<<Displacing  21/coordinate 3 (-)>>>
             <<<Displacing  22/coordinate 2 (+)>>>
             <<<Displacing  22/coordinate 2 (-)>>>
             <<<Displacing  22/coordinate 3 (+)>>>
             <<<Displacing  22/coordinate 3 (-)>>>
             <<<Displacing  23/coordinate 1 (+)>>>
             <<<Displacing  23/coordinate 1 (-)>>>
             <<<Displacing  23/coordinate 2 (+)>>>
             <<<Displacing  23/coordinate 3 (+)>>>
             <<<Displacing  23/coordinate 2 (-)>>>
             <<<Displacing  23/coordinate 3 (-)>>>
             <<<Displacing  24/coordinate 1 (+)>>>
             <<<Displacing  24/coordinate 1 (-)>>>
             <<<Displacing  24/coordinate 2 (+)>>>
             <<<Displacing  24/coordinate 2 (-)>>>
             <<<Displacing  24/coordinate 3 (+)>>>
             <<<Displacing  25/coordinate 1 (+)>>>
             <<<Displacing  24/coordinate 3 (-)>>>
             <<<Displacing  25/coordinate 1 (-)>>>
             <<<Displacing  25/coordinate 3 (+)>>>
             <<<Displacing  25/coordinate 2 (+)>>>
             <<<Displacing  26/coordinate 1 (+)>>>
             <<<Displacing  25/coordinate 3 (-)>>>
             <<<Displacing  25/coordinate 2 (-)>>>
             <<<Displacing  26/coordinate 1 (-)>>>
             <<<Displacing  26/coordinate 2 (+)>>>
             <<<Displacing  26/coordinate 3 (+)>>>
             <<<Displacing  26/coordinate 2 (-)>>>
             <<<Displacing  26/coordinate 3 (-)>>>
             <<<Displacing  27/coordinate 1 (+)>>>
             <<<Displacing  27/coordinate 1 (-)>>>
             <<<Displacing  27/coordinate 2 (+)>>>
             <<<Displacing  27/coordinate 2 (-)>>>
             <<<Displacing  28/coordinate 1 (+)>>>
             <<<Displacing  27/coordinate 3 (+)>>>
             <<<Displacing  28/coordinate 1 (-)>>>
             <<<Displacing  27/coordinate 3 (-)>>>
             <<<Displacing  28/coordinate 2 (+)>>>
             <<<Displacing  28/coordinate 2 (-)>>>
             <<<Displacing  28/coordinate 3 (+)>>>
             <<<Displacing  29/coordinate 1 (+)>>>
             <<<Displacing  28/coordinate 3 (-)>>>
             <<<Displacing  29/coordinate 1 (-)>>>
             <<<Displacing  29/coordinate 3 (+)>>>
             <<<Displacing  29/coordinate 2 (+)>>>
             <<<Displacing  29/coordinate 2 (-)>>>
             <<<Displacing  29/coordinate 3 (-)>>>
             <<<Displacing  30/coordinate 1 (+)>>>
             <<<Displacing  30/coordinate 2 (+)>>>
             <<<Displacing  30/coordinate 1 (-)>>>
             <<<Displacing  30/coordinate 2 (-)>>>
             <<<Displacing  30/coordinate 3 (+)>>>
             <<<Displacing  30/coordinate 3 (-)>>>
             <<<Displacing  31/coordinate 2 (+)>>>
             <<<Displacing  31/coordinate 2 (-)>>>
             <<<Displacing  31/coordinate 1 (+)>>>
             <<<Displacing  31/coordinate 1 (-)>>>
             <<<Displacing  31/coordinate 3 (+)>>>
             <<<Displacing  31/coordinate 3 (-)>>>
             <<<Displacing  32/coordinate 1 (+)>>>
             <<<Displacing  32/coordinate 3 (+)>>>
             <<<Displacing  32/coordinate 1 (-)>>>
             <<<Displacing  32/coordinate 2 (+)>>>
             <<<Displacing  32/coordinate 3 (-)>>>
             <<<Displacing  32/coordinate 2 (-)>>>
             <<<Displacing  33/coordinate 2 (+)>>>
             <<<Displacing  33/coordinate 1 (+)>>>
             <<<Displacing  33/coordinate 1 (-)>>>
             <<<Displacing  33/coordinate 2 (-)>>>
             <<<Displacing  33/coordinate 3 (+)>>>
             <<<Displacing  34/coordinate 1 (+)>>>
             <<<Displacing  34/coordinate 1 (-)>>>
             <<<Displacing  33/coordinate 3 (-)>>>
             <<<Displacing  34/coordinate 2 (+)>>>
             <<<Displacing  34/coordinate 2 (-)>>>
             <<<Displacing  34/coordinate 3 (+)>>>
             <<<Displacing  35/coordinate 2 (+)>>>
             <<<Displacing  34/coordinate 3 (-)>>>
             <<<Displacing  35/coordinate 2 (-)>>>
             <<<Displacing  35/coordinate 1 (+)>>>
             <<<Displacing  35/coordinate 1 (-)>>>
             <<<Displacing  35/coordinate 3 (+)>>>
             <<<Displacing  35/coordinate 3 (-)>>>
             <<<Displacing  36/coordinate 1 (+)>>>
             <<<Displacing  36/coordinate 2 (+)>>>
             <<<Displacing  36/coordinate 1 (-)>>>
             <<<Displacing  36/coordinate 2 (-)>>>
             <<<Displacing  36/coordinate 3 (+)>>>
             <<<Displacing  37/coordinate 1 (+)>>>
             <<<Displacing  36/coordinate 3 (-)>>>
             <<<Displacing  37/coordinate 1 (-)>>>
             <<<Displacing  37/coordinate 3 (+)>>>
             <<<Displacing  37/coordinate 2 (+)>>>
             <<<Displacing  38/coordinate 1 (+)>>>
             <<<Displacing  37/coordinate 3 (-)>>>
             <<<Displacing  37/coordinate 2 (-)>>>
             <<<Displacing  38/coordinate 1 (-)>>>
             <<<Displacing  38/coordinate 2 (+)>>>
             <<<Displacing  38/coordinate 2 (-)>>>
             <<<Displacing  38/coordinate 3 (+)>>>
             <<<Displacing  38/coordinate 3 (-)>>>
             <<<Displacing  39/coordinate 1 (+)>>>
             <<<Displacing  39/coordinate 1 (-)>>>
             <<<Displacing  39/coordinate 2 (+)>>>
             <<<Displacing  39/coordinate 2 (-)>>>
             <<<Displacing  39/coordinate 3 (+)>>>
             <<<Displacing  40/coordinate 1 (+)>>>
             <<<Displacing  39/coordinate 3 (-)>>>
             <<<Displacing  40/coordinate 2 (+)>>>
             <<<Displacing  40/coordinate 1 (-)>>>
             <<<Displacing  40/coordinate 3 (+)>>>
             <<<Displacing  40/coordinate 2 (-)>>>
             <<<Displacing  41/coordinate 1 (+)>>>
             <<<Displacing  40/coordinate 3 (-)>>>
             <<<Displacing  41/coordinate 1 (-)>>>
             <<<Displacing  41/coordinate 2 (+)>>>
             <<<Displacing  41/coordinate 2 (-)>>>
             <<<Displacing  41/coordinate 3 (+)>>>
             <<<Displacing  42/coordinate 1 (+)>>>
             <<<Displacing  41/coordinate 3 (-)>>>
             <<<Displacing  42/coordinate 1 (-)>>>
             <<<Displacing  42/coordinate 2 (+)>>>
             <<<Displacing  42/coordinate 2 (-)>>>
             <<<Displacing  42/coordinate 3 (+)>>>
             <<<Displacing  43/coordinate 3 (+)>>>
             <<<Displacing  42/coordinate 3 (-)>>>
             <<<Displacing  43/coordinate 2 (+)>>>
             <<<Displacing  43/coordinate 3 (-)>>>
             <<<Displacing  43/coordinate 1 (+)>>>
             <<<Displacing  43/coordinate 2 (-)>>>
             <<<Displacing  44/coordinate 1 (+)>>>
             <<<Displacing  43/coordinate 1 (-)>>>
             <<<Displacing  44/coordinate 1 (-)>>>
             <<<Displacing  44/coordinate 2 (+)>>>
             <<<Displacing  44/coordinate 2 (-)>>>
             <<<Displacing  44/coordinate 3 (+)>>>
             <<<Displacing  45/coordinate 1 (+)>>>
             <<<Displacing  44/coordinate 3 (-)>>>
             <<<Displacing  45/coordinate 1 (-)>>>
             <<<Displacing  45/coordinate 2 (+)>>>
             <<<Displacing  45/coordinate 2 (-)>>>
             <<<Displacing  45/coordinate 3 (+)>>>
             <<<Displacing  45/coordinate 3 (-)>>>
             <<<Displacing  46/coordinate 1 (+)>>>
             <<<Displacing  46/coordinate 3 (+)>>>
             <<<Displacing  46/coordinate 2 (+)>>>
             <<<Displacing  47/coordinate 1 (+)>>>
             <<<Displacing  46/coordinate 3 (-)>>>
             <<<Displacing  46/coordinate 1 (-)>>>
             <<<Displacing  46/coordinate 2 (-)>>>
             <<<Displacing  47/coordinate 1 (-)>>>
             <<<Displacing  47/coordinate 2 (+)>>>
             <<<Displacing  47/coordinate 3 (+)>>>
             <<<Displacing  47/coordinate 2 (-)>>>
             <<<Displacing  47/coordinate 3 (-)>>>
             <<<Displacing  48/coordinate 1 (+)>>>
             <<<Displacing  48/coordinate 1 (-)>>>
             <<<Displacing  48/coordinate 2 (+)>>>
             <<<Displacing  48/coordinate 2 (-)>>>
             <<<Displacing  49/coordinate 1 (+)>>>
             <<<Displacing  48/coordinate 3 (+)>>>
             <<<Displacing  49/coordinate 1 (-)>>>
             <<<Displacing  48/coordinate 3 (-)>>>
             <<<Displacing  49/coordinate 3 (+)>>>
             <<<Displacing  49/coordinate 3 (-)>>>
             <<<Displacing  49/coordinate 2 (+)>>>
             <<<Displacing  49/coordinate 2 (-)>>>

-----------------------
VIBRATIONAL FREQUENCIES
-----------------------

Scaling factor for frequencies =  1.000000000 (already applied!)

   0:         0.00 cm**-1
   1:         0.00 cm**-1
   2:         0.00 cm**-1
   3:         0.00 cm**-1
   4:         0.00 cm**-1
   5:         0.00 cm**-1
   6:       -53.08 cm**-1 ***imaginary mode***
   7:        41.12 cm**-1
   8:        52.91 cm**-1
   9:        57.05 cm**-1
  10:        60.49 cm**-1
  11:        68.78 cm**-1
  12:        74.64 cm**-1
  13:        79.50 cm**-1
  14:        81.22 cm**-1
  15:       103.16 cm**-1
  16:       112.98 cm**-1
  17:       126.84 cm**-1
  18:       162.33 cm**-1
  19:       164.77 cm**-1
  20:       184.29 cm**-1
  21:       189.36 cm**-1
  22:       194.30 cm**-1
  23:       199.88 cm**-1
  24:       210.69 cm**-1
  25:       229.35 cm**-1
  26:       231.96 cm**-1
  27:       239.70 cm**-1
  28:       265.81 cm**-1
  29:       335.08 cm**-1
  30:       356.05 cm**-1
  31:       356.26 cm**-1
  32:       390.70 cm**-1
  33:       392.61 cm**-1
  34:       405.97 cm**-1
  35:       426.87 cm**-1
  36:       427.21 cm**-1
  37:       430.07 cm**-1
  38:       446.39 cm**-1
  39:       466.01 cm**-1
  40:       474.89 cm**-1
  41:       484.03 cm**-1
  42:       588.22 cm**-1
  43:       627.49 cm**-1
  44:       628.41 cm**-1
  45:       672.16 cm**-1
  46:       781.16 cm**-1
  47:       796.16 cm**-1
  48:       798.80 cm**-1
  49:       816.70 cm**-1
  50:       839.47 cm**-1
  51:       852.13 cm**-1
  52:       856.92 cm**-1
  53:       905.36 cm**-1
  54:       914.19 cm**-1
  55:       934.07 cm**-1
  56:       936.16 cm**-1
  57:       943.84 cm**-1
  58:       953.30 cm**-1
  59:       955.21 cm**-1
  60:       958.39 cm**-1
  61:       962.55 cm**-1
  62:       974.03 cm**-1
  63:       987.06 cm**-1
  64:       990.05 cm**-1
  65:      1001.17 cm**-1
  66:      1024.44 cm**-1
  67:      1052.39 cm**-1
  68:      1056.07 cm**-1
  69:      1065.01 cm**-1
  70:      1070.04 cm**-1
  71:      1072.89 cm**-1
  72:      1105.49 cm**-1
  73:      1107.43 cm**-1
  74:      1108.32 cm**-1
  75:      1145.50 cm**-1
  76:      1150.43 cm**-1
  77:      1167.74 cm**-1
  78:      1184.13 cm**-1
  79:      1197.49 cm**-1
  80:      1206.34 cm**-1
  81:      1208.13 cm**-1
  82:      1238.80 cm**-1
  83:      1248.46 cm**-1
  84:      1252.62 cm**-1
  85:      1273.73 cm**-1
  86:      1281.49 cm**-1
  87:      1282.66 cm**-1
  88:      1283.68 cm**-1
  89:      1284.61 cm**-1
  90:      1298.00 cm**-1
  91:      1299.69 cm**-1
  92:      1350.39 cm**-1
  93:      1355.64 cm**-1
  94:      1357.77 cm**-1
  95:      1378.56 cm**-1
  96:      1380.91 cm**-1
  97:      1411.53 cm**-1
  98:      1433.42 cm**-1
  99:      1434.42 cm**-1
 100:      1435.70 cm**-1
 101:      1495.49 cm**-1
 102:      1502.77 cm**-1
 103:      1507.50 cm**-1
 104:      1508.51 cm**-1
 105:      1509.43 cm**-1
 106:      1511.77 cm**-1
 107:      1512.95 cm**-1
 108:      1513.56 cm**-1
 109:      1517.73 cm**-1
 110:      1519.05 cm**-1
 111:      1524.75 cm**-1
 112:      1534.82 cm**-1
 113:      1553.01 cm**-1
 114:      1561.21 cm**-1
 115:      1576.49 cm**-1
 116:      1581.75 cm**-1
 117:      2628.06 cm**-1
 118:      2767.49 cm**-1
 119:      2781.35 cm**-1
 120:      2823.66 cm**-1
 121:      2868.08 cm**-1
 122:      2874.91 cm**-1
 123:      2875.41 cm**-1
 124:      2883.36 cm**-1
 125:      2894.52 cm**-1
 126:      2898.61 cm**-1
 127:      2904.18 cm**-1
 128:      2908.41 cm**-1
 129:      2909.70 cm**-1
 130:      2911.53 cm**-1
 131:      2914.34 cm**-1
 132:      2916.99 cm**-1
 133:      2918.17 cm**-1
 134:      2928.98 cm**-1
 135:      2930.92 cm**-1
 136:      2934.17 cm**-1
 137:      2983.73 cm**-1
 138:      2989.93 cm**-1
 139:      2995.20 cm**-1
 140:      3003.38 cm**-1
 141:      3011.03 cm**-1
 142:      3225.22 cm**-1
 143:      3249.89 cm**-1
 144:      3306.43 cm**-1
 145:      3319.78 cm**-1
 146:      3438.45 cm**-1


------------
NORMAL MODES
------------

These modes are the cartesian displacements weighted by the diagonal matrix
M(i,i)=1/sqrt(m[i]) where m[i] is the mass of the displaced atom
Thus, these vectors are normalized but *not* orthogonal

                  0          1          2          3          4          5    
      0       0.000000   0.000000   0.000000   0.000000   0.000000   0.000000
      1       0.000000   0.000000   0.000000   0.000000   0.000000   0.000000
      2       0.000000   0.000000   0.000000   0.000000   0.000000   0.000000
      3       0.000000   0.000000   0.000000   0.000000   0.000000   0.000000
      4       0.000000   0.000000   0.000000   0.000000   0.000000   0.000000
      5       0.000000   0.000000   0.000000   0.000000   0.000000   0.000000
      6       0.000000   0.000000   0.000000   0.000000   0.000000   0.000000
      7       0.000000   0.000000   0.000000   0.000000   0.000000   0.000000
      8       0.000000   0.000000   0.000000   0.000000   0.000000   0.000000
      9       0.000000   0.000000   0.000000   0.000000   0.000000   0.000000
     10       0.000000   0.000000   0.000000   0.000000   0.000000   0.000000
     11       0.000000   0.000000   0.000000   0.000000   0.000000   0.000000
     12       0.000000   0.000000   0.000000   0.000000   0.000000   0.000000
     13       0.000000   0.000000   0.000000   0.000000   0.000000   0.000000
     14       0.000000   0.000000   0.000000   0.000000   0.000000   0.000000
     15       0.000000   0.000000   0.000000   0.000000   0.000000   0.000000
     16       0.000000   0.000000   0.000000   0.000000   0.000000   0.000000
     17       0.000000   0.000000   0.000000   0.000000   0.000000   0.000000
     18       0.000000   0.000000   0.000000   0.000000   0.000000   0.000000
     19       0.000000   0.000000   0.000000   0.000000   0.000000   0.000000
     20       0.000000   0.000000   0.000000   0.000000   0.000000   0.000000
     21       0.000000   0.000000   0.000000   0.000000   0.000000   0.000000
     22       0.000000   0.000000   0.000000   0.000000   0.000000   0.000000
     23       0.000000   0.000000   0.000000   0.000000   0.000000   0.000000
     24       0.000000   0.000000   0.000000   0.000000   0.000000   0.000000
     25       0.000000   0.000000   0.000000   0.000000   0.000000   0.000000
     26       0.000000   0.000000   0.000000   0.000000   0.000000   0.000000
     27       0.000000   0.000000   0.000000   0.000000   0.000000   0.000000
     28       0.000000   0.000000   0.000000   0.000000   0.000000   0.000000
     29       0.000000   0.000000   0.000000   0.000000   0.000000   0.000000
     30       0.000000   0.000000   0.000000   0.000000   0.000000   0.000000
     31       0.000000   0.000000   0.000000   0.000000   0.000000   0.000000
     32       0.000000   0.000000   0.000000   0.000000   0.000000   0.000000
     33       0.000000   0.000000   0.000000   0.000000   0.000000   0.000000
     34       0.000000   0.000000   0.000000   0.000000   0.000000   0.000000
     35       0.000000   0.000000   0.000000   0.000000   0.000000   0.000000
     36       0.000000   0.000000   0.000000   0.000000   0.000000   0.000000
     37       0.000000   0.000000   0.000000   0.000000   0.000000   0.000000
     38       0.000000   0.000000   0.000000   0.000000   0.000000   0.000000
     39       0.000000   0.000000   0.000000   0.000000   0.000000   0.000000
     40       0.000000   0.000000   0.000000   0.000000   0.000000   0.000000
     41       0.000000   0.000000   0.000000   0.000000   0.000000   0.000000
     42       0.000000   0.000000   0.000000   0.000000   0.000000   0.000000
     43       0.000000   0.000000   0.000000   0.000000   0.000000   0.000000
     44       0.000000   0.000000   0.000000   0.000000   0.000000   0.000000
     45       0.000000   0.000000   0.000000   0.000000   0.000000   0.000000
     46       0.000000   0.000000   0.000000   0.000000   0.000000   0.000000
     47       0.000000   0.000000   0.000000   0.000000   0.000000   0.000000
     48       0.000000   0.000000   0.000000   0.000000   0.000000   0.000000
     49       0.000000   0.000000   0.000000   0.000000   0.000000   0.000000
     50       0.000000   0.000000   0.000000   0.000000   0.000000   0.000000
     51       0.000000   0.000000   0.000000   0.000000   0.000000   0.000000
     52       0.000000   0.000000   0.000000   0.000000   0.000000   0.000000
     53       0.000000   0.000000   0.000000   0.000000   0.000000   0.000000
     54       0.000000   0.000000   0.000000   0.000000   0.000000   0.000000
     55       0.000000   0.000000   0.000000   0.000000   0.000000   0.000000
     56       0.000000   0.000000   0.000000   0.000000   0.000000   0.000000
     57       0.000000   0.000000   0.000000   0.000000   0.000000   0.000000
     58       0.000000   0.000000   0.000000   0.000000   0.000000   0.000000
     59       0.000000   0.000000   0.000000   0.000000   0.000000   0.000000
     60       0.000000   0.000000   0.000000   0.000000   0.000000   0.000000
     61       0.000000   0.000000   0.000000   0.000000   0.000000   0.000000
     62       0.000000   0.000000   0.000000   0.000000   0.000000   0.000000
     63       0.000000   0.000000   0.000000   0.000000   0.000000   0.000000
     64       0.000000   0.000000   0.000000   0.000000   0.000000   0.000000
     65       0.000000   0.000000   0.000000   0.000000   0.000000   0.000000
     66       0.000000   0.000000   0.000000   0.000000   0.000000   0.000000
     67       0.000000   0.000000   0.000000   0.000000   0.000000   0.000000
     68       0.000000   0.000000   0.000000   0.000000   0.000000   0.000000
     69       0.000000   0.000000   0.000000   0.000000   0.000000   0.000000
     70       0.000000   0.000000   0.000000   0.000000   0.000000   0.000000
     71       0.000000   0.000000   0.000000   0.000000   0.000000   0.000000
     72       0.000000   0.000000   0.000000   0.000000   0.000000   0.000000
     73       0.000000   0.000000   0.000000   0.000000   0.000000   0.000000
     74       0.000000   0.000000   0.000000   0.000000   0.000000   0.000000
     75       0.000000   0.000000   0.000000   0.000000   0.000000   0.000000
     76       0.000000   0.000000   0.000000   0.000000   0.000000   0.000000
     77       0.000000   0.000000   0.000000   0.000000   0.000000   0.000000
     78       0.000000   0.000000   0.000000   0.000000   0.000000   0.000000
     79       0.000000   0.000000   0.000000   0.000000   0.000000   0.000000
     80       0.000000   0.000000   0.000000   0.000000   0.000000   0.000000
     81       0.000000   0.000000   0.000000   0.000000   0.000000   0.000000
     82       0.000000   0.000000   0.000000   0.000000   0.000000   0.000000
     83       0.000000   0.000000   0.000000   0.000000   0.000000   0.000000
     84       0.000000   0.000000   0.000000   0.000000   0.000000   0.000000
     85       0.000000   0.000000   0.000000   0.000000   0.000000   0.000000
     86       0.000000   0.000000   0.000000   0.000000   0.000000   0.000000
     87       0.000000   0.000000   0.000000   0.000000   0.000000   0.000000
     88       0.000000   0.000000   0.000000   0.000000   0.000000   0.000000
     89       0.000000   0.000000   0.000000   0.000000   0.000000   0.000000
     90       0.000000   0.000000   0.000000   0.000000   0.000000   0.000000
     91       0.000000   0.000000   0.000000   0.000000   0.000000   0.000000
     92       0.000000   0.000000   0.000000   0.000000   0.000000   0.000000
     93       0.000000   0.000000   0.000000   0.000000   0.000000   0.000000
     94       0.000000   0.000000   0.000000   0.000000   0.000000   0.000000
     95       0.000000   0.000000   0.000000   0.000000   0.000000   0.000000
     96       0.000000   0.000000   0.000000   0.000000   0.000000   0.000000
     97       0.000000   0.000000   0.000000   0.000000   0.000000   0.000000
     98       0.000000   0.000000   0.000000   0.000000   0.000000   0.000000
     99       0.000000   0.000000   0.000000   0.000000   0.000000   0.000000
    100       0.000000   0.000000   0.000000   0.000000   0.000000   0.000000
    101       0.000000   0.000000   0.000000   0.000000   0.000000   0.000000
    102       0.000000   0.000000   0.000000   0.000000   0.000000   0.000000
    103       0.000000   0.000000   0.000000   0.000000   0.000000   0.000000
    104       0.000000   0.000000   0.000000   0.000000   0.000000   0.000000
    105       0.000000   0.000000   0.000000   0.000000   0.000000   0.000000
    106       0.000000   0.000000   0.000000   0.000000   0.000000   0.000000
    107       0.000000   0.000000   0.000000   0.000000   0.000000   0.000000
    108       0.000000   0.000000   0.000000   0.000000   0.000000   0.000000
    109       0.000000   0.000000   0.000000   0.000000   0.000000   0.000000
    110       0.000000   0.000000   0.000000   0.000000   0.000000   0.000000
    111       0.000000   0.000000   0.000000   0.000000   0.000000   0.000000
    112       0.000000   0.000000   0.000000   0.000000   0.000000   0.000000
    113       0.000000   0.000000   0.000000   0.000000   0.000000   0.000000
    114       0.000000   0.000000   0.000000   0.000000   0.000000   0.000000
    115       0.000000   0.000000   0.000000   0.000000   0.000000   0.000000
    116       0.000000   0.000000   0.000000   0.000000   0.000000   0.000000
    117       0.000000   0.000000   0.000000   0.000000   0.000000   0.000000
    118       0.000000   0.000000   0.000000   0.000000   0.000000   0.000000
    119       0.000000   0.000000   0.000000   0.000000   0.000000   0.000000
    120       0.000000   0.000000   0.000000   0.000000   0.000000   0.000000
    121       0.000000   0.000000   0.000000   0.000000   0.000000   0.000000
    122       0.000000   0.000000   0.000000   0.000000   0.000000   0.000000
    123       0.000000   0.000000   0.000000   0.000000   0.000000   0.000000
    124       0.000000   0.000000   0.000000   0.000000   0.000000   0.000000
    125       0.000000   0.000000   0.000000   0.000000   0.000000   0.000000
    126       0.000000   0.000000   0.000000   0.000000   0.000000   0.000000
    127       0.000000   0.000000   0.000000   0.000000   0.000000   0.000000
    128       0.000000   0.000000   0.000000   0.000000   0.000000   0.000000
    129       0.000000   0.000000   0.000000   0.000000   0.000000   0.000000
    130       0.000000   0.000000   0.000000   0.000000   0.000000   0.000000
    131       0.000000   0.000000   0.000000   0.000000   0.000000   0.000000
    132       0.000000   0.000000   0.000000   0.000000   0.000000   0.000000
    133       0.000000   0.000000   0.000000   0.000000   0.000000   0.000000
    134       0.000000   0.000000   0.000000   0.000000   0.000000   0.000000
    135       0.000000   0.000000   0.000000   0.000000   0.000000   0.000000
    136       0.000000   0.000000   0.000000   0.000000   0.000000   0.000000
    137       0.000000   0.000000   0.000000   0.000000   0.000000   0.000000
    138       0.000000   0.000000   0.000000   0.000000   0.000000   0.000000
    139       0.000000   0.000000   0.000000   0.000000   0.000000   0.000000
    140       0.000000   0.000000   0.000000   0.000000   0.000000   0.000000
    141       0.000000   0.000000   0.000000   0.000000   0.000000   0.000000
    142       0.000000   0.000000   0.000000   0.000000   0.000000   0.000000
    143       0.000000   0.000000   0.000000   0.000000   0.000000   0.000000
    144       0.000000   0.000000   0.000000   0.000000   0.000000   0.000000
    145       0.000000   0.000000   0.000000   0.000000   0.000000   0.000000
    146       0.000000   0.000000   0.000000   0.000000   0.000000   0.000000
                  6          7          8          9         10         11    
      0      -0.068613  -0.073512  -0.074133   0.037728   0.061020   0.031292
      1      -0.028650   0.027105  -0.071582  -0.052993  -0.016217   0.001546
      2      -0.132934   0.000107   0.076132  -0.015625   0.032505  -0.020687
      3      -0.033079  -0.084038  -0.092728   0.030602   0.077906   0.010624
      4      -0.033933   0.033774  -0.088485  -0.071810  -0.028462  -0.036558
      5      -0.084895  -0.022775   0.089305   0.012210   0.072283   0.030823
      6      -0.023216  -0.088338  -0.096380   0.033014   0.084713   0.018163
      7      -0.029120   0.037329  -0.104746  -0.093447  -0.034332  -0.095267
      8      -0.029456  -0.047943   0.073434   0.029180   0.110490   0.083128
      9      -0.044026  -0.082497  -0.083191   0.042195   0.075902   0.046373
     10      -0.020969   0.034698  -0.104225  -0.097107  -0.028169  -0.118409
     11      -0.009043  -0.052685   0.043665   0.020012   0.111295   0.088494
     12      -0.075819  -0.072206  -0.065855   0.048987   0.059755   0.067273
     13      -0.024130   0.029269  -0.086254  -0.078713  -0.016833  -0.084676
     14      -0.034489  -0.033506   0.026572  -0.007339   0.075471   0.045746
     15      -0.087974  -0.067850  -0.062340   0.046688   0.052964   0.060502
     16      -0.028420   0.025397  -0.069390  -0.056078  -0.011292  -0.025596
     17      -0.096103  -0.007330   0.041524  -0.026482   0.036299  -0.008305
     18      -0.088451  -0.067928  -0.068109   0.036225   0.052678   0.022349
     19      -0.034625   0.024185  -0.053112  -0.030265  -0.011725   0.067706
     20      -0.196635   0.029798   0.090558  -0.028553   0.000729  -0.073781
     21      -0.015022  -0.088654  -0.103126   0.023884   0.084895  -0.009500
     22      -0.043457   0.036135  -0.088132  -0.069258  -0.033576  -0.019729
     23      -0.098809  -0.018687   0.111905   0.019289   0.070776   0.026001
     24      -0.108934  -0.059137  -0.050694   0.050678   0.041705   0.075308
     25      -0.028471   0.019976  -0.055445  -0.040355  -0.001738   0.002171
     26      -0.115696   0.010871   0.027367  -0.050980   0.008485  -0.044697
     27      -0.037266  -0.085448  -0.085440   0.043919   0.080429   0.051096
     28      -0.014348   0.036433  -0.116900  -0.113144  -0.031687  -0.160479
     29       0.028159  -0.069838   0.032975   0.032688   0.137685   0.123450
     30       0.078467  -0.094674   0.100298  -0.059209  -0.045826  -0.074825
     31       0.046158  -0.067051   0.052310  -0.043832  -0.050594   0.096960
     32       0.336860  -0.023855  -0.051007  -0.038148   0.117425   0.020672
     33       0.100289  -0.079611   0.108455  -0.081601  -0.051298  -0.016496
     34       0.050446  -0.081220   0.043528  -0.036300  -0.035282   0.052206
     35       0.220771  -0.020117  -0.034765   0.009305   0.063548  -0.009166
     36       0.093559  -0.098886   0.090659  -0.044625  -0.029926  -0.108388
     37       0.057354  -0.067410   0.045091  -0.046366  -0.040560   0.088553
     38       0.346609  -0.021342  -0.057030  -0.063213   0.123809   0.041763
     39       0.037913  -0.073314   0.120750  -0.055443  -0.088752  -0.029021
     40       0.027724  -0.120824   0.036607  -0.014575  -0.016615  -0.058936
     41       0.111247   0.006585  -0.010549   0.052845  -0.012039   0.005049
     42       0.200675  -0.096159   0.089447  -0.120043   0.007602  -0.012912
     43       0.094753  -0.075392   0.037355  -0.049045  -0.026228   0.076875
     44       0.198726  -0.018197  -0.030804   0.017983   0.051866  -0.012812
     45       0.067495  -0.054583   0.123481  -0.078882  -0.086995   0.041482
     46       0.037651  -0.075935   0.048921  -0.035987  -0.044220   0.067417
     47       0.226976  -0.037175  -0.039839   0.006373   0.084864  -0.042560
     48      -0.046532  -0.057303   0.140050  -0.019764  -0.145913  -0.032238
     49       0.024100  -0.122746   0.061362  -0.006044  -0.050313  -0.071422
     50       0.126715   0.003975  -0.017527   0.045378   0.002878   0.007239
     51       0.054463  -0.104810   0.099252  -0.059383  -0.041144  -0.096160
     52       0.024848  -0.129424   0.023401  -0.014217   0.004228  -0.079332
     53       0.084849   0.020571  -0.019625   0.058091  -0.013566   0.030182
     54      -0.101163  -0.061008  -0.057966   0.044572   0.052063   0.048529
     55      -0.020289   0.024241  -0.052189  -0.020175  -0.005041   0.098117
     56      -0.228436   0.036799   0.097829  -0.040471  -0.012106  -0.102136
     57       0.007908   0.168642   0.019954  -0.091920   0.039165  -0.000883
     58       0.005965   0.065824   0.008500   0.022585  -0.000121   0.145372
     59      -0.012658   0.029758  -0.016269  -0.094549   0.011616  -0.007212
     60       0.006752   0.167135   0.034422  -0.088872   0.064598  -0.028168
     61      -0.002694   0.068270   0.000817   0.020847   0.001527   0.138858
     62      -0.021285   0.032315  -0.029079  -0.096832   0.012615  -0.013127
     63      -0.001908   0.174024   0.023919  -0.147826   0.041409   0.044183
     64      -0.002502   0.069884  -0.002057   0.002782  -0.004565   0.161639
     65      -0.008929   0.027933   0.000995  -0.108619   0.018967   0.004154
     66       0.042144   0.111241  -0.007677   0.073609  -0.023685  -0.096425
     67      -0.054463   0.017045   0.059425  -0.007725  -0.081823   0.244147
     68       0.022645   0.083193  -0.028927  -0.220473   0.097651   0.007266
     69       0.031172   0.130650  -0.006954   0.036870  -0.011065  -0.074279
     70      -0.013440   0.021942   0.044096  -0.002528  -0.055241   0.214815
     71       0.015194   0.068579  -0.024676  -0.201581   0.078878   0.004318
     72       0.038220   0.115741  -0.006819   0.063965  -0.020614  -0.092089
     73      -0.042824   0.027477   0.051277  -0.007898  -0.074358   0.254151
     74       0.008699   0.101135  -0.026630  -0.255925   0.109710   0.024220
     75      -0.053643  -0.071550  -0.081048   0.024727   0.053700  -0.007632
     76      -0.071927   0.026143  -0.044022  -0.023722  -0.013800   0.083129
     77      -0.076008   0.029592   0.070851  -0.031771   0.013296  -0.065260
     78       0.121396  -0.092422   0.098720  -0.066930  -0.032899  -0.064511
     79       0.070830  -0.056326   0.054248  -0.073657  -0.048026   0.146975
     80       0.402534  -0.023126  -0.054142  -0.043019   0.138361   0.024428
     81      -0.000923  -0.095517  -0.108558   0.027648   0.095728   0.002024
     82      -0.031839   0.041514  -0.116296  -0.106251  -0.043067  -0.121126
     83      -0.004085  -0.062334   0.083628   0.047973   0.136900   0.116013
     84      -0.092190  -0.067834  -0.055756   0.055494   0.051952   0.087435
     85      -0.020150   0.027254  -0.085037  -0.080744  -0.010994  -0.101830
     86      -0.009973  -0.037598   0.001133  -0.015978   0.076146   0.051252
     87       0.065405  -0.048647   0.134087  -0.072426  -0.109392   0.049710
     88       0.017587  -0.146279   0.017252  -0.008161   0.018061  -0.127101
     89       0.031183   0.019812   0.036372   0.096647  -0.105319  -0.015460
     90       0.060337  -0.022686   0.157943  -0.071369  -0.154833   0.109350
     91       0.014440  -0.136157   0.029324  -0.006414  -0.003841  -0.104309
     92       0.028656   0.015215   0.039520   0.099920  -0.108302  -0.027297
     93       0.112913  -0.058575   0.106708  -0.098214  -0.053007   0.060224
     94       0.041192  -0.151116  -0.002521  -0.022393   0.053956  -0.123647
     95       0.020672   0.022038   0.043362   0.102620  -0.119098  -0.017577
     96       0.007042   0.163935   0.008611  -0.080781   0.020739   0.011652
     97       0.021435   0.061072   0.026119   0.077106   0.020911   0.079296
     98      -0.001659   0.011533  -0.037042  -0.013099  -0.027534  -0.024452
     99      -0.000386   0.179133   0.027427  -0.134157   0.048015   0.020577
    100       0.026983   0.048468   0.010291   0.095170   0.014682   0.074590
    101       0.003391   0.001072  -0.050006   0.027453  -0.048523  -0.030384
    102       0.001239   0.161261  -0.009263  -0.087683  -0.005725   0.048342
    103       0.021576   0.066597   0.036571   0.077518   0.027505   0.069054
    104      -0.000700   0.023275  -0.013242  -0.011062  -0.010301  -0.050671
    105       0.025972   0.143220  -0.006696   0.011923   0.001407  -0.036567
    106       0.028538   0.070597   0.054493   0.104361   0.045223   0.024647
    107       0.002337  -0.011175  -0.075448   0.014638  -0.064554   0.003589
    108       0.032766   0.129233  -0.048735   0.058095  -0.042924  -0.039703
    109       0.020153   0.083350   0.045032   0.082792   0.031861   0.026792
    110      -0.002376  -0.001729  -0.045929  -0.016806  -0.033429   0.005618
    111       0.037319   0.145866   0.046674   0.026211   0.056366  -0.079166
    112       0.030587   0.063829   0.047988   0.099608   0.040338   0.040446
    113       0.007059  -0.024767  -0.081426   0.007740  -0.066814   0.033166
    114       0.026366   0.138625  -0.035494   0.019669  -0.027453  -0.023703
    115       0.039195   0.073830   0.106868   0.162853   0.095522  -0.053157
    116       0.012860  -0.027973  -0.145243   0.088993  -0.136790  -0.006943
    117       0.018999   0.149591   0.008358  -0.022485   0.016731  -0.020188
    118       0.045690   0.068018   0.110179   0.174763   0.099421  -0.060054
    119       0.017362  -0.034848  -0.174441   0.116369  -0.166193  -0.008759
    120       0.023902   0.132024  -0.088379   0.007551  -0.080106   0.018349
    121       0.037809   0.077669   0.116623   0.169047   0.104611  -0.065656
    122       0.009995  -0.020935  -0.131559   0.100392  -0.124388  -0.027735
    123       0.033789  -0.046573   0.150798  -0.055092  -0.142960   0.031474
    124      -0.012822  -0.176759   0.010277   0.011024   0.031870  -0.222703
    125      -0.017150   0.035194   0.069635   0.122878  -0.172754  -0.015408
    126       0.050990  -0.034067   0.151261  -0.065194  -0.144040   0.074871
    127      -0.020413  -0.187485   0.006064   0.015661   0.040198  -0.254832
    128      -0.050665   0.035888   0.088268   0.141956  -0.209004  -0.037732
    129       0.033901  -0.065680   0.137050  -0.054370  -0.115328  -0.014688
    130      -0.014683  -0.182354   0.006576   0.012137   0.038971  -0.238489
    131      -0.021760   0.045443   0.077861   0.124757  -0.190116   0.003808
    132      -0.004710  -0.038725   0.175558  -0.033871  -0.192372   0.021040
    133      -0.023407  -0.181014   0.014527   0.017535   0.024714  -0.238952
    134      -0.010939   0.034542   0.065905   0.119361  -0.165396  -0.012442
    135       0.039172   0.129165  -0.049949   0.094322  -0.042641  -0.069464
    136       0.038578   0.082049   0.141178   0.190694   0.128135  -0.098053
    137       0.021393  -0.043033  -0.193201   0.104978  -0.183249   0.014411
    138       0.038980   0.129211  -0.060344   0.096417  -0.052153  -0.064620
    139       0.043999   0.080057   0.161413   0.223867   0.146298  -0.135409
    140       0.025942  -0.044882  -0.216964   0.144231  -0.205175  -0.000476
    141       0.044661   0.124809  -0.076297   0.129551  -0.067515  -0.079121
    142       0.030567   0.094454   0.156606   0.179453   0.144081  -0.101466
    143       0.018515  -0.041088  -0.177919   0.083996  -0.168875   0.020526
    144       0.043836   0.125363  -0.022011   0.105566  -0.017395  -0.093938
    145       0.040694   0.076786   0.128514   0.186389   0.115588  -0.086544
    146       0.026244  -0.054141  -0.218795   0.096634  -0.208386   0.037883
                 12         13         14         15         16         17    
      0      -0.014749   0.003460   0.003414   0.004950  -0.011307  -0.000060
      1       0.031246   0.016797  -0.016450  -0.072862   0.060902   0.003049
      2      -0.034569   0.042410  -0.035386   0.010108  -0.014146  -0.004406
      3      -0.056033  -0.053472   0.075665   0.061169  -0.047428   0.028396
      4      -0.016083   0.004475   0.015039  -0.058102   0.057422  -0.090205
      5       0.014183   0.009638  -0.023407   0.037438  -0.042517   0.198948
      6      -0.055409  -0.069303   0.090251   0.059827  -0.047847   0.026350
      7      -0.081895  -0.018315   0.065603   0.014167   0.016115  -0.089103
      8       0.031912  -0.077390   0.050572   0.014841  -0.033367   0.185695
      9      -0.014118  -0.028217   0.033344   0.002933  -0.011939  -0.004573
     10      -0.103899  -0.029755   0.086502   0.073873  -0.025060   0.011712
     11       0.006109  -0.133630   0.113484  -0.035248   0.008880  -0.042043
     12       0.027147   0.028039  -0.037735  -0.053183   0.024729  -0.030629
     13      -0.061341  -0.015577   0.053804   0.063064  -0.026725   0.105116
     14      -0.034353  -0.108524   0.108518  -0.066997   0.045231  -0.237398
     15       0.026653   0.043641  -0.052210  -0.052971   0.024655  -0.026365
     16       0.006176   0.008193   0.001422  -0.008529   0.015755   0.097062
     17      -0.055228  -0.023441   0.037714  -0.047250   0.035013  -0.213167
     18      -0.015288   0.020799  -0.013952   0.005209  -0.012243   0.001299
     19       0.105918   0.046488  -0.074904  -0.148747   0.105604   0.004592
     20      -0.065380   0.138693  -0.117675   0.035255  -0.038407  -0.006898
     21      -0.087235  -0.082871   0.117280   0.103214  -0.074085   0.049645
     22       0.001954   0.012049  -0.000400  -0.102860   0.088378  -0.158638
     23       0.032495   0.053699  -0.072116   0.073651  -0.071417   0.350191
     24       0.057494   0.084964  -0.103952  -0.094518   0.051876  -0.040126
     25       0.040212   0.019132  -0.024885  -0.016745   0.014684   0.156117
     26      -0.088048  -0.004259   0.036389  -0.071200   0.062336  -0.335755
     27      -0.013845  -0.039453   0.043551   0.002385  -0.012003  -0.007945
     28      -0.152220  -0.049564   0.126789   0.126960  -0.055409   0.015866
     29       0.016778  -0.193689   0.163908  -0.048831   0.014350  -0.061734
     30       0.087244   0.024724  -0.014362   0.069950   0.078969  -0.011004
     31      -0.137522  -0.024719  -0.036693  -0.154409  -0.184372   0.013395
     32      -0.118016   0.142907  -0.070781   0.012438  -0.009338  -0.019650
     33       0.047856   0.047472  -0.049710   0.043855   0.058822  -0.016166
     34      -0.114216  -0.035476  -0.011386  -0.140978  -0.184103   0.020919
     35      -0.068783   0.101722  -0.049885   0.046318   0.053062  -0.033750
     36       0.093769   0.044382   0.009465   0.079808   0.082115  -0.004202
     37      -0.129795  -0.031471  -0.021320  -0.150697  -0.186071   0.020335
     38      -0.108449   0.098801  -0.059526   0.016595  -0.008928  -0.008914
     39       0.069988   0.002690  -0.019811   0.042892   0.063531  -0.016208
     40      -0.035311  -0.045732   0.008180  -0.056155  -0.096892   0.016962
     41      -0.054091   0.021631   0.000564   0.014846   0.031533  -0.032301
     42       0.024324   0.110594  -0.089018   0.055884   0.060872  -0.014737
     43      -0.142818  -0.046852   0.003062  -0.183491  -0.244622   0.032743
     44      -0.060875   0.091698  -0.044578   0.050002   0.061533  -0.035584
     45       0.020580   0.035136  -0.057344   0.013240   0.039590  -0.018726
     46      -0.118822  -0.027630  -0.024908  -0.135655  -0.169155   0.016394
     47      -0.045956   0.135730  -0.074400   0.095514   0.112130  -0.042308
     48       0.091595  -0.063434   0.023136   0.026932   0.051396  -0.011668
     49      -0.010851  -0.080231   0.028231  -0.062036  -0.107776   0.028881
     50      -0.061201   0.038020  -0.009852   0.018334   0.034835  -0.034533
     51       0.105908   0.031709  -0.033780   0.112691   0.136570  -0.026428
     52      -0.027696  -0.031389   0.002347  -0.029769  -0.066349   0.009657
     53      -0.075951   0.023784   0.001206  -0.000034   0.023132  -0.039332
     54       0.013603   0.066009  -0.070572  -0.035746   0.000830  -0.006140
     55       0.147826   0.060893  -0.100789  -0.180790   0.140954   0.018025
     56      -0.113396   0.167909  -0.137314   0.042507  -0.090155  -0.042615
     57      -0.016488  -0.046457   0.025039   0.027682  -0.005323   0.009008
     58       0.162510   0.051554   0.017654   0.186054  -0.131046  -0.115526
     59       0.071828   0.044805   0.107614  -0.027124   0.046555   0.079220
     60      -0.009445  -0.052790   0.002959   0.027878  -0.031311   0.025172
     61       0.194805   0.062751  -0.003473   0.187820  -0.160321  -0.136492
     62       0.116668   0.059904   0.080464  -0.025184   0.009250   0.049851
     63      -0.017811  -0.049673   0.051839   0.056858   0.006288   0.008000
     64       0.193342   0.062765   0.015655   0.198944  -0.152447  -0.139343
     65       0.027834   0.026656   0.128744  -0.022817   0.084696   0.110315
     66       0.069161   0.260025   0.281873  -0.116018  -0.105815   0.031272
     67      -0.206444   0.053772   0.094657   0.166991   0.220795   0.069013
     68       0.175675  -0.155983  -0.064546   0.004549  -0.057835   0.041000
     69       0.052588   0.186661   0.226042  -0.092597  -0.077896   0.036544
     70      -0.122635   0.051877   0.070201   0.150295   0.108231   0.019153
     71       0.151063  -0.108896  -0.015694  -0.013455  -0.029712   0.064754
     72       0.069830   0.240205   0.267102  -0.109664  -0.102662   0.031257
     73      -0.222925   0.053283   0.088093   0.176623   0.239348   0.067873
     74       0.176514  -0.229472  -0.120038   0.029045  -0.044704   0.040350
     75      -0.051669  -0.009827   0.032754   0.051254  -0.030428   0.006139
     76       0.123006   0.056175  -0.094949  -0.176053   0.110228  -0.004697
     77      -0.045548   0.174795  -0.143820   0.039743   0.001404   0.029477
     78       0.066909   0.054792  -0.027321   0.061500   0.068392  -0.011041
     79      -0.163106  -0.031221  -0.060375  -0.172748  -0.202212   0.013026
     80      -0.144698   0.195407  -0.085632   0.003224  -0.022344  -0.019534
[...]
  28:       265.81    0.000000  (  0.000000   0.000000   0.000000)
  29:       335.08    0.000000  (  0.000000   0.000000   0.000000)
  30:       356.05    0.000000  (  0.000000   0.000000   0.000000)
  31:       356.26    0.000000  (  0.000000   0.000000   0.000000)
  32:       390.70    0.000000  (  0.000000   0.000000   0.000000)
  33:       392.61    0.000000  (  0.000000   0.000000   0.000000)
  34:       405.97    0.000000  (  0.000000   0.000000   0.000000)
  35:       426.87    0.000000  (  0.000000   0.000000   0.000000)
  36:       427.21    0.000000  (  0.000000   0.000000   0.000000)
  37:       430.07    0.000000  (  0.000000   0.000000   0.000000)
  38:       446.39    0.000000  (  0.000000   0.000000   0.000000)
  39:       466.01    0.000000  (  0.000000   0.000000   0.000000)
  40:       474.89    0.000000  (  0.000000   0.000000   0.000000)
  41:       484.03    0.000000  (  0.000000   0.000000   0.000000)
  42:       588.22    0.000000  (  0.000000   0.000000   0.000000)
  43:       627.49    0.000000  (  0.000000   0.000000   0.000000)
  44:       628.41    0.000000  (  0.000000   0.000000   0.000000)
  45:       672.16    0.000000  (  0.000000   0.000000   0.000000)
  46:       781.16    0.000000  (  0.000000   0.000000   0.000000)
  47:       796.16    0.000000  (  0.000000   0.000000   0.000000)
  48:       798.80    0.000000  (  0.000000   0.000000   0.000000)
  49:       816.70    0.000000  (  0.000000   0.000000   0.000000)
  50:       839.47    0.000000  (  0.000000   0.000000   0.000000)
  51:       852.13    0.000000  (  0.000000   0.000000   0.000000)
  52:       856.92    0.000000  (  0.000000   0.000000   0.000000)
  53:       905.36    0.000000  (  0.000000   0.000000   0.000000)
  54:       914.19    0.000000  (  0.000000   0.000000   0.000000)
  55:       934.07    0.000000  (  0.000000   0.000000   0.000000)
  56:       936.16    0.000000  (  0.000000   0.000000   0.000000)
  57:       943.84    0.000000  (  0.000000   0.000000   0.000000)
  58:       953.30    0.000000  (  0.000000   0.000000   0.000000)
  59:       955.21    0.000000  (  0.000000   0.000000   0.000000)
  60:       958.39    0.000000  (  0.000000   0.000000   0.000000)
  61:       962.55    0.000000  (  0.000000   0.000000   0.000000)
  62:       974.03    0.000000  (  0.000000   0.000000   0.000000)
  63:       987.06    0.000000  (  0.000000   0.000000   0.000000)
  64:       990.05    0.000000  (  0.000000   0.000000   0.000000)
  65:      1001.17    0.000000  (  0.000000   0.000000   0.000000)
  66:      1024.44    0.000000  (  0.000000   0.000000   0.000000)
  67:      1052.39    0.000000  (  0.000000   0.000000   0.000000)
  68:      1056.07    0.000000  (  0.000000   0.000000   0.000000)
  69:      1065.01    0.000000  (  0.000000   0.000000   0.000000)
  70:      1070.04    0.000000  (  0.000000   0.000000   0.000000)
  71:      1072.89    0.000000  (  0.000000   0.000000   0.000000)
  72:      1105.49    0.000000  (  0.000000   0.000000   0.000000)
  73:      1107.43    0.000000  (  0.000000   0.000000   0.000000)
  74:      1108.32    0.000000  (  0.000000   0.000000   0.000000)
  75:      1145.50    0.000000  (  0.000000   0.000000   0.000000)
  76:      1150.43    0.000000  (  0.000000   0.000000   0.000000)
  77:      1167.74    0.000000  (  0.000000   0.000000   0.000000)
  78:      1184.13    0.000000  (  0.000000   0.000000   0.000000)
  79:      1197.49    0.000000  (  0.000000   0.000000   0.000000)
  80:      1206.34    0.000000  (  0.000000   0.000000   0.000000)
  81:      1208.13    0.000000  (  0.000000   0.000000   0.000000)
  82:      1238.80    0.000000  (  0.000000   0.000000   0.000000)
  83:      1248.46    0.000000  (  0.000000   0.000000   0.000000)
  84:      1252.62    0.000000  (  0.000000   0.000000   0.000000)
  85:      1273.73    0.000000  (  0.000000   0.000000   0.000000)
  86:      1281.49    0.000000  (  0.000000   0.000000   0.000000)
  87:      1282.66    0.000000  (  0.000000   0.000000   0.000000)
  88:      1283.68    0.000000  (  0.000000   0.000000   0.000000)
  89:      1284.61    0.000000  (  0.000000   0.000000   0.000000)
  90:      1298.00    0.000000  (  0.000000   0.000000   0.000000)
  91:      1299.69    0.000000  (  0.000000   0.000000   0.000000)
  92:      1350.39    0.000000  (  0.000000   0.000000   0.000000)
  93:      1355.64    0.000000  (  0.000000   0.000000   0.000000)
  94:      1357.77    0.000000  (  0.000000   0.000000   0.000000)
  95:      1378.56    0.000000  (  0.000000   0.000000   0.000000)
  96:      1380.91    0.000000  (  0.000000   0.000000   0.000000)
  97:      1411.53    0.000000  (  0.000000   0.000000   0.000000)
  98:      1433.42    0.000000  (  0.000000   0.000000   0.000000)
  99:      1434.42    0.000000  (  0.000000   0.000000   0.000000)
 100:      1435.70    0.000000  (  0.000000   0.000000   0.000000)
 101:      1495.49    0.000000  (  0.000000   0.000000   0.000000)
 102:      1502.77    0.000000  (  0.000000   0.000000   0.000000)
 103:      1507.50    0.000000  (  0.000000   0.000000   0.000000)
 104:      1508.51    0.000000  (  0.000000   0.000000   0.000000)
 105:      1509.43    0.000000  (  0.000000   0.000000   0.000000)
 106:      1511.77    0.000000  (  0.000000   0.000000   0.000000)
 107:      1512.95    0.000000  (  0.000000   0.000000   0.000000)
 108:      1513.56    0.000000  (  0.000000   0.000000   0.000000)
 109:      1517.73    0.000000  (  0.000000   0.000000   0.000000)
 110:      1519.05    0.000000  (  0.000000   0.000000   0.000000)
 111:      1524.75    0.000000  (  0.000000   0.000000   0.000000)
 112:      1534.82    0.000000  (  0.000000   0.000000   0.000000)
 113:      1553.01    0.000000  (  0.000000   0.000000   0.000000)
 114:      1561.21    0.000000  (  0.000000   0.000000   0.000000)
 115:      1576.49    0.000000  (  0.000000   0.000000   0.000000)
 116:      1581.75    0.000000  (  0.000000   0.000000   0.000000)
 117:      2628.06    0.000000  (  0.000000   0.000000   0.000000)
 118:      2767.49    0.000000  (  0.000000   0.000000   0.000000)
 119:      2781.35    0.000000  (  0.000000   0.000000   0.000000)
 120:      2823.66    0.000000  (  0.000000   0.000000   0.000000)
 121:      2868.08    0.000000  (  0.000000   0.000000   0.000000)
 122:      2874.91    0.000000  (  0.000000   0.000000   0.000000)
 123:      2875.41    0.000000  (  0.000000   0.000000   0.000000)
 124:      2883.36    0.000000  (  0.000000   0.000000   0.000000)
 125:      2894.52    0.000000  (  0.000000   0.000000   0.000000)
 126:      2898.61    0.000000  (  0.000000   0.000000   0.000000)
 127:      2904.18    0.000000  (  0.000000   0.000000   0.000000)
 128:      2908.41    0.000000  (  0.000000   0.000000   0.000000)
 129:      2909.70    0.000000  (  0.000000   0.000000   0.000000)
 130:      2911.53    0.000000  (  0.000000   0.000000   0.000000)
 131:      2914.34    0.000000  (  0.000000   0.000000   0.000000)
 132:      2916.99    0.000000  (  0.000000   0.000000   0.000000)
 133:      2918.17    0.000000  (  0.000000   0.000000   0.000000)
 134:      2928.98    0.000000  (  0.000000   0.000000   0.000000)
 135:      2930.92    0.000000  (  0.000000   0.000000   0.000000)
 136:      2934.17    0.000000  (  0.000000   0.000000   0.000000)
 137:      2983.73    0.000000  (  0.000000   0.000000   0.000000)
 138:      2989.93    0.000000  (  0.000000   0.000000   0.000000)
 139:      2995.20    0.000000  (  0.000000   0.000000   0.000000)
 140:      3003.38    0.000000  (  0.000000   0.000000   0.000000)
 141:      3011.03    0.000000  (  0.000000   0.000000   0.000000)
 142:      3225.22    0.000000  (  0.000000   0.000000   0.000000)
 143:      3249.89    0.000000  (  0.000000   0.000000   0.000000)
 144:      3306.43    0.000000  (  0.000000   0.000000   0.000000)
 145:      3319.78    0.000000  (  0.000000   0.000000   0.000000)
 146:      3438.45    0.000000  (  0.000000   0.000000   0.000000)

The first frequency considered to be a vibration is 7
The total number of vibrations considered is 140


--------------------------
THERMOCHEMISTRY AT 298.15K
--------------------------

Temperature         ... 298.15 K
Pressure            ... 1.00 atm
Total Mass          ... 270.42 AMU

Throughout the following assumptions are being made:
  (1) The electronic state is orbitally nondegenerate
  (2) There are no thermally accessible electronically excited states
  (3) Hindered rotations indicated by low frequency modes are not
      treated as such but are treated as vibrations and this may
      cause some error
  (4) All equations used are the standard statistical mechanics
      equations for an ideal gas
  (5) All vibrations are strictly harmonic

freq.      41.12  E(vib)   ...       0.54 
freq.      52.91  E(vib)   ...       0.52 
freq.      57.05  E(vib)   ...       0.51 
freq.      60.49  E(vib)   ...       0.51 
freq.      68.78  E(vib)   ...       0.50 
freq.      74.64  E(vib)   ...       0.49 
freq.      79.50  E(vib)   ...       0.49 
freq.      81.22  E(vib)   ...       0.48 
freq.     103.16  E(vib)   ...       0.46 
freq.     112.98  E(vib)   ...       0.45 
freq.     126.84  E(vib)   ...       0.43 
freq.     162.33  E(vib)   ...       0.39 
freq.     164.77  E(vib)   ...       0.39 
freq.     184.29  E(vib)   ...       0.37 
freq.     189.36  E(vib)   ...       0.36 
freq.     194.30  E(vib)   ...       0.36 
freq.     199.88  E(vib)   ...       0.35 
freq.     210.69  E(vib)   ...       0.34 
freq.     229.35  E(vib)   ...       0.32 
freq.     231.96  E(vib)   ...       0.32 
freq.     239.70  E(vib)   ...       0.31 
freq.     265.81  E(vib)   ...       0.29 
freq.     335.08  E(vib)   ...       0.24 
freq.     356.05  E(vib)   ...       0.22 
freq.     356.26  E(vib)   ...       0.22 
freq.     390.70  E(vib)   ...       0.20 
freq.     392.61  E(vib)   ...       0.20 
freq.     405.97  E(vib)   ...       0.19 
freq.     426.87  E(vib)   ...       0.18 
freq.     427.21  E(vib)   ...       0.18 
freq.     430.07  E(vib)   ...       0.18 
freq.     446.39  E(vib)   ...       0.17 
freq.     466.01  E(vib)   ...       0.16 
freq.     474.89  E(vib)   ...       0.15 
freq.     484.03  E(vib)   ...       0.15 
freq.     588.22  E(vib)   ...       0.10 
freq.     627.49  E(vib)   ...       0.09 
freq.     628.41  E(vib)   ...       0.09 
freq.     672.16  E(vib)   ...       0.08 
freq.     781.16  E(vib)   ...       0.05 
freq.     796.16  E(vib)   ...       0.05 
freq.     798.80  E(vib)   ...       0.05 
freq.     816.70  E(vib)   ...       0.05 
freq.     839.47  E(vib)   ...       0.04 
freq.     852.13  E(vib)   ...       0.04 
freq.     856.92  E(vib)   ...       0.04 
freq.     905.36  E(vib)   ...       0.03 
freq.     914.19  E(vib)   ...       0.03 
freq.     934.07  E(vib)   ...       0.03 
freq.     936.16  E(vib)   ...       0.03 
freq.     943.84  E(vib)   ...       0.03 
freq.     953.30  E(vib)   ...       0.03 
freq.     955.21  E(vib)   ...       0.03 
freq.     958.39  E(vib)   ...       0.03 
freq.     962.55  E(vib)   ...       0.03 
freq.     974.03  E(vib)   ...       0.03 
freq.     987.06  E(vib)   ...       0.02 
freq.     990.05  E(vib)   ...       0.02 
freq.    1001.17  E(vib)   ...       0.02 
freq.    1024.44  E(vib)   ...       0.02 
freq.    1052.39  E(vib)   ...       0.02 
freq.    1056.07  E(vib)   ...       0.02 
freq.    1065.01  E(vib)   ...       0.02 
freq.    1070.04  E(vib)   ...       0.02 
freq.    1072.89  E(vib)   ...       0.02 
freq.    1105.49  E(vib)   ...       0.02 
freq.    1107.43  E(vib)   ...       0.02 
freq.    1108.32  E(vib)   ...       0.02 
freq.    1145.50  E(vib)   ...       0.01 
freq.    1150.43  E(vib)   ...       0.01 
freq.    1167.74  E(vib)   ...       0.01 
freq.    1184.13  E(vib)   ...       0.01 
freq.    1197.49  E(vib)   ...       0.01 
freq.    1206.34  E(vib)   ...       0.01 
freq.    1208.13  E(vib)   ...       0.01 
freq.    1238.80  E(vib)   ...       0.01 
freq.    1248.46  E(vib)   ...       0.01 
freq.    1252.62  E(vib)   ...       0.01 
freq.    1273.73  E(vib)   ...       0.01 
freq.    1281.49  E(vib)   ...       0.01 
freq.    1282.66  E(vib)   ...       0.01 
freq.    1283.68  E(vib)   ...       0.01 
freq.    1284.61  E(vib)   ...       0.01 
freq.    1298.00  E(vib)   ...       0.01 
freq.    1299.69  E(vib)   ...       0.01 
freq.    1350.39  E(vib)   ...       0.01 
freq.    1355.64  E(vib)   ...       0.01 
freq.    1357.77  E(vib)   ...       0.01 
freq.    1378.56  E(vib)   ...       0.01 
freq.    1380.91  E(vib)   ...       0.01 
freq.    1411.53  E(vib)   ...       0.00 
freq.    1433.42  E(vib)   ...       0.00 
freq.    1434.42  E(vib)   ...       0.00 
freq.    1435.70  E(vib)   ...       0.00 
freq.    1495.49  E(vib)   ...       0.00 
freq.    1502.77  E(vib)   ...       0.00 
freq.    1507.50  E(vib)   ...       0.00 
freq.    1508.51  E(vib)   ...       0.00 
freq.    1509.43  E(vib)   ...       0.00 
freq.    1511.77  E(vib)   ...       0.00 
freq.    1512.95  E(vib)   ...       0.00 
freq.    1513.56  E(vib)   ...       0.00 
freq.    1517.73  E(vib)   ...       0.00 
freq.    1519.05  E(vib)   ...       0.00 
freq.    1524.75  E(vib)   ...       0.00 
freq.    1534.82  E(vib)   ...       0.00 
freq.    1553.01  E(vib)   ...       0.00 
freq.    1561.21  E(vib)   ...       0.00 
freq.    1576.49  E(vib)   ...       0.00 
freq.    1581.75  E(vib)   ...       0.00 
freq.    2628.06  E(vib)   ...       0.00 
freq.    2767.49  E(vib)   ...       0.00 
freq.    2781.35  E(vib)   ...       0.00 
freq.    2823.66  E(vib)   ...       0.00 
freq.    2868.08  E(vib)   ...       0.00 
freq.    2874.91  E(vib)   ...       0.00 
freq.    2875.41  E(vib)   ...       0.00 
freq.    2883.36  E(vib)   ...       0.00 
freq.    2894.52  E(vib)   ...       0.00 
freq.    2898.61  E(vib)   ...       0.00 
freq.    2904.18  E(vib)   ...       0.00 
freq.    2908.41  E(vib)   ...       0.00 
freq.    2909.70  E(vib)   ...       0.00 
freq.    2911.53  E(vib)   ...       0.00 
freq.    2914.34  E(vib)   ...       0.00 
freq.    2916.99  E(vib)   ...       0.00 
freq.    2918.17  E(vib)   ...       0.00 
freq.    2928.98  E(vib)   ...       0.00 
freq.    2930.92  E(vib)   ...       0.00 
freq.    2934.17  E(vib)   ...       0.00 
freq.    2983.73  E(vib)   ...       0.00 
freq.    2989.93  E(vib)   ...       0.00 
freq.    2995.20  E(vib)   ...       0.00 
freq.    3003.38  E(vib)   ...       0.00 
freq.    3011.03  E(vib)   ...       0.00 
freq.    3225.22  E(vib)   ...       0.00 
freq.    3249.89  E(vib)   ...       0.00 
freq.    3306.43  E(vib)   ...       0.00 
freq.    3319.78  E(vib)   ...       0.00 
freq.    3438.45  E(vib)   ...       0.00 

------------
INNER ENERGY
------------

The inner energy is: U= E(el) + E(ZPE) + E(vib) + E(rot) + E(trans)
    E(el)   - is the total energy from the electronic structure calculation
              = E(kin-el) + E(nuc-el) + E(el-el) + E(nuc-nuc)
    E(ZPE)  - the the zero temperature vibrational energy from the frequency calculation
    E(vib)  - the the finite temperature correction to E(ZPE) due to population
              of excited vibrational states
    E(rot)  - is the rotational thermal energy
    E(trans)- is the translational thermal energy

Summary of contributions to the inner energy U:
Electronic energy                ...    -61.36159628 Eh
Zero point energy                ...      0.42334477 Eh     265.65 kcal/mol
Thermal vibrational correction   ...      0.02081929 Eh      13.06 kcal/mol
Thermal rotational correction    ...      0.00141627 Eh       0.89 kcal/mol
Thermal translational correction ...      0.00141627 Eh       0.89 kcal/mol
-----------------------------------------------------------------------
Total thermal energy                    -60.91459967 Eh


Summary of corrections to the electronic energy:
(perhaps to be used in another calculation)
Total thermal correction                  0.02365184 Eh      14.84 kcal/mol
Non-thermal (ZPE) correction              0.42334477 Eh     265.65 kcal/mol
-----------------------------------------------------------------------
Total correction                          0.44699661 Eh     280.49 kcal/mol


--------
ENTHALPY
--------

The enthalpy is H = U + kB*T
                kB is Boltzmann's constant
Total free energy                 ...    -60.91459967 Eh 
Thermal Enthalpy correction       ...      0.00094421 Eh       0.59 kcal/mol
-----------------------------------------------------------------------
Total Enthalpy                    ...    -60.91365546 Eh


Note: Only C1 symmetry has been detected, increase convergence thresholds 
      if your molecule has a higher symmetry. Symmetry factor of 1.0 is   
      used for the rotational entropy correction. 
 

Note: Rotational entropy computed according to Herzberg 
Infrared and Raman Spectra, Chapter V,1, Van Nostrand Reinhold, 1945 
Point Group:  C1, Symmetry Number:   1  
Rotational constants in cm-1:     0.013257     0.006688     0.005587 

Vibrational entropy computed according to the QRRHO of S. Grimme
Chem.Eur.J. 2012 18 9955


-------
ENTROPY
-------

The entropy contributions are T*S = T*(S(el)+S(vib)+S(rot)+S(trans))
     S(el)   - electronic entropy
     S(vib)  - vibrational entropy
     S(rot)  - rotational entropy
     S(trans)- translational entropy
The entropies will be listed as mutliplied by the temperature to get
units of energy

Electronic entropy                ...      0.00000000 Eh      0.00 kcal/mol
Vibrational entropy               ...      0.03701865 Eh     23.23 kcal/mol
Rotational entropy                ...      0.01636463 Eh     10.27 kcal/mol
Translational entropy             ...      0.02028014 Eh     12.73 kcal/mol
-----------------------------------------------------------------------
Final entropy term                ...      0.07366342 Eh     46.22 kcal/mol

In case the symmetry of your molecule has not been determined correctly
or in case you have a reason to use a different symmetry number we print 
out the resulting rotational entropy values for sn=1,12 :
 --------------------------------------------------------
|  sn= 1 | S(rot)=       0.01636463 Eh     10.27 kcal/mol|
|  sn= 2 | S(rot)=       0.01571017 Eh      9.86 kcal/mol|
|  sn= 3 | S(rot)=       0.01532734 Eh      9.62 kcal/mol|
|  sn= 4 | S(rot)=       0.01505572 Eh      9.45 kcal/mol|
|  sn= 5 | S(rot)=       0.01484503 Eh      9.32 kcal/mol|
|  sn= 6 | S(rot)=       0.01467288 Eh      9.21 kcal/mol|
|  sn= 7 | S(rot)=       0.01452734 Eh      9.12 kcal/mol|
|  sn= 8 | S(rot)=       0.01440126 Eh      9.04 kcal/mol|
|  sn= 9 | S(rot)=       0.01429005 Eh      8.97 kcal/mol|
|  sn=10 | S(rot)=       0.01419057 Eh      8.90 kcal/mol|
|  sn=11 | S(rot)=       0.01410058 Eh      8.85 kcal/mol|
|  sn=12 | S(rot)=       0.01401843 Eh      8.80 kcal/mol|
 --------------------------------------------------------


-------------------
GIBBS FREE ENERGY
-------------------

The Gibbs free energy is G = H - T*S

Total enthalpy                    ...    -60.91365546 Eh 
Total entropy correction          ...     -0.07366342 Eh    -46.22 kcal/mol
-----------------------------------------------------------------------
Final Gibbs free energy         ...    -60.98731889 Eh

For completeness - the Gibbs free energy minus the electronic energy
G-E(el)                           ...      0.37427739 Eh    234.86 kcal/mol


Total Time for Numerical Frequencies  :       202.933 sec
Time for Reference State(s)           :         0.192 sec
Time for Displacements                :       184.468 sec

Timings for individual modules:

Sum of individual times         ...        0.497 sec (=   0.008 min)
XTB module                      ...        0.497 sec (=   0.008 min) 100.0 %
                             ****ORCA TERMINATED NORMALLY****
TOTAL RUN TIME: 0 days 0 hours 3 minutes 24 seconds 324 msec
(SLURM) EXECUTION TIME: 205.043474862 seconds.
