
                                 *****************
                                 * O   R   C   A *
                                 *****************

           --- An Ab Initio, DFT and Semiempirical electronic structure package ---

                  #######################################################
                  #                        -***-                        #
                  #          Department of theory and spectroscopy      #
                  #               Directorship: Frank Neese             #
                  #        Max Planck Institute fuer Kohlenforschung    #
                  #                Kaiser Wilhelm Platz 1               #
                  #                 D-45470 Muelheim/Ruhr               #
                  #                      Germany                        #
                  #                                                     #
                  #                  All rights reserved                #
                  #                        -***-                        #
                  #######################################################


                         Program Version 4.2.1 -  RELEASE  -


 With contributions from (in alphabetic order):
   Daniel Aravena         : Magnetic Suceptibility
   Michael Atanasov       : Ab Initio Ligand Field Theory (pilot matlab implementation)
   Alexander A. Auer      : GIAO ZORA, VPT2
   Ute Becker             : Parallelization
   Giovanni Bistoni       : ED, misc. LED, open-shell LED, HFLD
   Martin Brehm           : Molecular dynamics
   Dmytro Bykov           : SCF Hessian
   Vijay G. Chilkuri      : MRCI spin determinant printing, contributions to CSF-ICE
   Dipayan Datta          : RHF DLPNO-CCSD density
   Achintya Kumar Dutta   : EOM-CC, STEOM-CC
   Dmitry Ganyushin       : Spin-Orbit,Spin-Spin,Magnetic field MRCI
   Miquel Garcia          : C-PCM Hessian, Gaussian charge scheme
   Yang Guo               : DLPNO-NEVPT2, CIM, IAO-localization
   Andreas Hansen         : Spin unrestricted coupled pair/coupled cluster methods
   Benjamin Helmich-Paris : CASSCF linear response (MC-RPA)
   Lee Huntington         : MR-EOM, pCC
   Robert Izsak           : Overlap fitted RIJCOSX, COSX-SCS-MP3, EOM
   Christian Kollmar      : KDIIS, OOCD, Brueckner-CCSD(T), CCSD density
   Simone Kossmann        : Meta GGA functionals, TD-DFT gradient, OOMP2, MP2 Hessian
   Martin Krupicka        : AUTO-CI
   Lucas Lang             : DCDCAS
   Dagmar Lenk            : GEPOL surface, SMD
   Dimitrios Liakos       : Extrapolation schemes; Compound Job, initial MDCI parallelization
   Dimitrios Manganas     : Further ROCIS development; embedding schemes
   Dimitrios Pantazis     : SARC Basis sets
   Taras Petrenko         : DFT Hessian,TD-DFT gradient, ASA, ECA, R-Raman, ABS, FL, XAS/XES, NRVS
   Peter Pinski           : DLPNO-MP2, DLPNO-MP2 Gradient
   Christoph Reimann      : Effective Core Potentials
   Marius Retegan         : Local ZFS, SOC
   Christoph Riplinger    : Optimizer, TS searches, QM/MM, DLPNO-CCSD(T), (RO)-DLPNO pert. Triples
   Tobias Risthaus        : Range-separated hybrids, TD-DFT gradient, RPA, STAB
   Michael Roemelt        : Original ROCIS implementation
   Masaaki Saitow         : Open-shell DLPNO-CCSD energy and density
   Barbara Sandhoefer     : DKH picture change effects
   Avijit Sen             : IP-ROCIS
   Kantharuban Sivalingam : CASSCF convergence, NEVPT2, FIC-MRCI
   Bernardo de Souza      : ESD, SOC TD-DFT
   Georgi Stoychev        : AutoAux, RI-MP2 NMR
   Willem Van den Heuvel  : Paramagnetic NMR
   Boris Wezisla          : Elementary symmetry handling
   Frank Wennmohs         : Technical directorship


 We gratefully acknowledge several colleagues who have allowed us to
 interface, adapt or use parts of their codes:
   Stefan Grimme, W. Hujo, H. Kruse,             : VdW corrections, initial TS optimization,
                  C. Bannwarth                     DFT functionals, gCP, sTDA/sTD-DF
   Ed Valeev, F. Pavosevic, A. Kumar             : LibInt (2-el integral package), F12 methods
   Garnet Chan, S. Sharma, J. Yang, R. Olivares  : DMRG
   Ulf Ekstrom                                   : XCFun DFT Library
   Mihaly Kallay                                 : mrcc  (arbitrary order and MRCC methods)
   Andreas Klamt, Michael Diedenhofen            : otool_cosmo (COSMO solvation model)
   Jiri Pittner, Ondrej Demel                    : Mk-CCSD
   Frank Weinhold                                : gennbo (NPA and NBO analysis)
   Christopher J. Cramer and Donald G. Truhlar   : smd solvation model
   Lars Goerigk                                  : TD-DFT with DH, B97 family of functionals
   V. Asgeirsson, H. Jonsson                     : NEB implementation
   FAccTs GmbH                                   : IRC, NEB, NEB-TS, Multilevel, MM, QM/MM, CI optimization
   S Lehtola, MJT Oliveira, MAL Marques          : LibXC Library


 Your calculation uses the libint2 library for the computation of 2-el integrals
 For citations please refer to: http://libint.valeyev.net

 Your ORCA version has been built with support for libXC version: 4.2.3
 For citations please refer to: https://tddft.org/programs/libxc/

 This ORCA versions uses:
   CBLAS   interface :  Fast vector & matrix operations
   LAPACKE interface :  Fast linear algebra routines
   SCALAPACK package :  Parallel linear algebra routines




***************************************
The coordinates will be read from file: init.xyz
***************************************


Your calculation utilizes the SMD solvation module
Please cite in your paper:
A.V. Marenich, C.J. Cramer, D.G. Truhlar J. Phys. Chem. B, 113, (2009), 6378 

Your calculation utilizes the semiempirical GFN2-xTB method
Please cite in your paper:
C. Bannwarth, Ehlert S., S. Grimme,  J. Chem. Theory Comput., 15, (2019), 1652.
   

----- Orbital basis set information -----
Your calculation utilizes the basis: def2-SVP
   F. Weigend and R. Ahlrichs, Phys. Chem. Chem. Phys. 7, 3297 (2005).

================================================================================
                                        WARNINGS
                       Please study these warnings very carefully!
================================================================================


WARNING: The environment variable RSH_COMMAND is not set!
  ===> : All Displacements for the Numerical Hessian calculation
         will be started on localhost

WARNING: Geometry Optimization
  ===> : Switching off AutoStart
         For restart on a previous wavefunction, please use MOREAD

WARNING: Found dipole moment calculation with XTB calculation
  ===> : Switching off dipole moment calculation


INFO   : the flag for use of LIBINT has been found!

================================================================================
                                       INPUT FILE
================================================================================
NAME = opt+numfreq.inp
|  1> ! xTB2 Opt NumFreq
|  2> 
|  3> *xyzfile -1 1 init.xyz
|  4> 
|  5> %cpcm
|  6>  smd true
|  7>  SMDsolvent "METHANOL"
|  8> end
|  9> 
| 10> %pal
| 11>  nprocs 6
| 12> end
| 13> 
| 14>                          ****END OF INPUT****
================================================================================

                       *****************************
                       * Geometry Optimization Run *
                       *****************************

Geometry optimization settings:
Update method            Update   .... BFGS
Choice of coordinates    CoordSys .... Z-matrix Internals
Initial Hessian          InHess   .... Almoef's Model

Convergence Tolerances:
Energy Change            TolE     ....  5.0000e-06 Eh
Max. Gradient            TolMAXG  ....  3.0000e-04 Eh/bohr
RMS Gradient             TolRMSG  ....  1.0000e-04 Eh/bohr
Max. Displacement        TolMAXD  ....  4.0000e-03 bohr
RMS Displacement         TolRMSD  ....  2.0000e-03 bohr
Strict Convergence                ....  False
------------------------------------------------------------------------------
                        ORCA OPTIMIZATION COORDINATE SETUP
------------------------------------------------------------------------------

The optimization will be done in new redundant internal coordinates
Making redundant internal coordinates   ...  (new redundants) done
Evaluating the initial hessian          ...  (Almloef) done
Evaluating the coordinates              ...  done
Calculating the B-matrix                .... done
Calculating the G-matrix                .... done
Diagonalizing the G-matrix              .... done
The first mode is                       ....   77
The number of degrees of freedom        ....   63

    -----------------------------------------------------------------
                    Redundant Internal Coordinates


    -----------------------------------------------------------------
         Definition                    Initial Value    Approx d2E/dq
    -----------------------------------------------------------------
      1. B(C   1,C   0)                  1.5271         0.377526   
      2. B(C   4,C   1)                  1.5267         0.378089   
      3. B(C   4,C   2)                  1.5242         0.381610   
      4. B(H   5,C   2)                  1.0918         0.357701   
      5. B(H   6,C   2)                  1.0916         0.358039   
      6. B(C   7,C   0)                  1.5243         0.381427   
      7. B(H   8,C   1)                  1.0928         0.356386   
      8. B(H   9,C   1)                  1.0920         0.357421   
      9. B(C  10,C   7)                  1.5332         0.369179   
     10. B(C  10,H   3)                  1.0982         0.349425   
     11. B(C  10,C   2)                  1.5298         0.373841   
     12. B(H  11,C   7)                  1.0919         0.357634   
     13. B(H  12,C   7)                  1.0926         0.356720   
     14. B(H  13,C   4)                  1.0904         0.359525   
     15. B(H  14,C   4)                  1.0915         0.358086   
     16. B(H  15,C   0)                  1.0911         0.358683   
     17. B(H  16,C   0)                  1.0917         0.357867   
     18. B(Br 17,H  11)                  3.1249         0.000686   
     19. B(Br 17,C  10)                  3.5584         0.000729   
     20. B(Br 17,H   6)                  3.1295         0.000675   
     21. B(Br 17,H   3)                  2.8618         0.001803   
     22. B(O  18,C  10)                  1.4264         0.489605   
     23. B(C  19,O  18)                  1.4015         0.536483   
     24. B(H  20,C  19)                  1.0973         0.350529   
     25. B(H  21,C  19)                  1.0894         0.360838   
     26. B(H  22,C  19)                  1.0957         0.352585   
     27. A(C   1,C   0,H  16)          110.5031         0.324548   
     28. A(H  15,C   0,H  16)          108.7923         0.290376   
     29. A(C   1,C   0,H  15)          109.2402         0.324669   
     30. A(C   1,C   0,C   7)          110.5085         0.365303   
     31. A(C   7,C   0,H  15)          107.4777         0.325218   
     32. A(C   7,C   0,H  16)          110.2457         0.325097   
     33. A(C   0,C   1,H   8)          109.2425         0.324327   
     34. A(H   8,C   1,H   9)          108.4094         0.290026   
     35. A(C   0,C   1,C   4)          110.9050         0.364754   
     36. A(C   4,C   1,H   8)          109.1624         0.324406   
     37. A(C   0,C   1,H   9)          109.5065         0.324481   
     38. A(C   4,C   1,H   9)          109.5720         0.324561   
     39. A(C   4,C   2,H   5)          111.3220         0.325098   
     40. A(C   4,C   2,C  10)          108.1552         0.364721   
     41. A(H   5,C   2,H   6)          107.7093         0.290273   
     42. A(H   6,C   2,C  10)          108.3343         0.324051   
     43. A(C   4,C   2,H   6)          111.1643         0.325148   
     44. A(H   5,C   2,C  10)          110.1189         0.324001   
     45. A(H  13,C   4,H  14)          108.8327         0.290511   
     46. A(C   1,C   4,H  14)          110.5510         0.324660   
     47. A(C   2,C   4,H  13)          107.3984         0.325370   
     48. A(C   1,C   4,H  13)          109.5235         0.324874   
     49. A(C   2,C   4,H  14)          110.1363         0.325155   
     50. A(C   1,C   4,C   2)          110.3289         0.365427   
     51. A(C   0,C   7,H  12)          111.3971         0.324925   
     52. A(C  10,C   7,H  11)          108.0018         0.323324   
     53. A(C  10,C   7,H  12)          110.8690         0.323189   
     54. A(C   0,C   7,H  11)          111.0738         0.325062   
     55. A(H  11,C   7,H  12)          107.3451         0.290096   
     56. A(C   0,C   7,C  10)          108.1169         0.363909   
     57. A(C   2,C  10,H   3)          110.3019         0.322759   
     58. A(C   7,C  10,Br 17)           85.6267         0.161317   
     59. A(H   3,C  10,Br 17)           43.4037         0.150773   
     60. A(C   2,C  10,Br 17)           85.7103         0.161523   
     61. A(Br 17,C  10,O  18)          153.0915         0.165455   
     62. A(H   3,C  10,C   7)          110.3975         0.322096   
     63. A(C   7,C  10,O  18)          111.0044         0.377498   
     64. A(H   3,C  10,O  18)          109.7325         0.335432   
     65. A(C   2,C  10,O  18)          107.7746         0.378319   
     66. A(C   2,C  10,C   7)          107.5736         0.362661   
     67. A(C  10,O  18,C  19)          116.9979         0.400382   
     68. A(H  21,C  19,H  22)          109.5937         0.289971   
     69. A(H  20,C  19,H  22)          108.8240         0.288657   
     70. A(O  18,C  19,H  22)          112.3030         0.341099   
     71. A(H  20,C  19,H  21)          109.6599         0.289705   
     72. A(O  18,C  19,H  21)          105.2530         0.342422   
     73. A(O  18,C  19,H  20)          111.1422         0.340765   
     74. D(C   4,C   1,C   0,C   7)    -55.3368         0.011367   
     75. D(C   4,C   1,C   0,H  16)   -177.6350         0.011367   
     76. D(H   9,C   1,C   0,H  15)    -58.3377         0.011367   
     77. D(H   9,C   1,C   0,H  16)     61.3180         0.011367   
     78. D(H   8,C   1,C   0,H  15)   -176.9262         0.011367   
     79. D(C   4,C   1,C   0,H  15)     62.7092         0.011367   
     80. D(H   8,C   1,C   0,C   7)     65.0278         0.011367   
     81. D(H   9,C   1,C   0,C   7)   -176.3837         0.011367   
     82. D(H   8,C   1,C   0,H  16)    -57.2705         0.011367   
     83. D(C   2,C   4,C   1,C   0)     55.4609         0.011399   
     84. D(H  13,C   4,C   2,H   6)    177.6772         0.011601   
     85. D(H  13,C   4,C   2,C  10)     58.8650         0.011601   
     86. D(H  13,C   4,C   1,C   0)    -62.5537         0.011399   
     87. D(H  13,C   4,C   1,H   8)    177.0342         0.011399   
     88. D(H  14,C   4,C   2,C  10)    177.2375         0.011601   
     89. D(C   1,C   4,C   2,H   6)     58.3648         0.011601   
     90. D(H  14,C   4,C   2,H   5)     56.1341         0.011601   
     91. D(C   1,C   4,C   2,H   5)    178.4492         0.011601   
     92. D(H  14,C   4,C   1,H   9)    -61.4600         0.011399   
     93. D(C   1,C   4,C   2,C  10)    -60.4475         0.011601   
     94. D(H  13,C   4,C   2,H   5)    -62.2384         0.011601   
     95. D(H  14,C   4,C   2,H   6)    -63.9503         0.011601   
     96. D(C   2,C   4,C   1,H   9)    176.4692         0.011399   
     97. D(H  14,C   4,C   1,H   8)     57.1196         0.011399   
     98. D(H  14,C   4,C   1,C   0)    177.5317         0.011399   
     99. D(C   2,C   4,C   1,H   8)    -64.9512         0.011399   
    100. D(H  13,C   4,C   1,H   9)     58.4546         0.011399   
    101. D(H  11,C   7,C   0,C   1)    -58.3271         0.011591   
    102. D(C  10,C   7,C   0,H  16)   -177.5480         0.011591   
    103. D(C  10,C   7,C   0,C   1)     60.0030         0.011591   
    104. D(C  10,C   7,C   0,H  15)    -59.1167         0.011591   
    105. D(H  12,C   7,C   0,H  16)    -55.4911         0.011591   
    106. D(H  12,C   7,C   0,H  15)     62.9403         0.011591   
    107. D(H  12,C   7,C   0,C   1)   -177.9401         0.011591   
    108. D(H  11,C   7,C   0,H  16)     64.1219         0.011591   
    109. D(H  11,C   7,C   0,H  15)   -177.4467         0.011591   
    110. D(Br 17,C  10,C   7,H  12)     88.5944         0.011551   
    111. D(Br 17,C  10,C   7,C   0)   -149.0247         0.011551   
    112. D(O  18,C  10,C   7,H  12)    -69.6274         0.011551   
    113. D(O  18,C  10,C   7,H  11)    173.0263         0.011551   
    114. D(H   3,C  10,C   7,H  12)     52.2853         0.011551   
    115. D(H   3,C  10,C   7,H  11)    -65.0610         0.011551   
    116. D(H   3,C  10,C   7,C   0)    174.6662         0.011551   
    117. D(C   2,C  10,C   7,H  12)    172.6875         0.011551   
    118. D(C   2,C  10,C   7,H  11)     55.3412         0.011551   
    119. D(C   2,C  10,C   7,C   0)    -64.9316         0.011551   
    120. D(Br 17,C  10,C   2,H   6)     28.6342         0.011829   
    121. D(Br 17,C  10,C   2,H   5)    -88.9255         0.011829   
    122. D(Br 17,C  10,C   2,C   4)    149.2277         0.011829   
    123. D(O  18,C  10,C   2,H   6)   -175.1579         0.011829   
    124. D(O  18,C  10,C   2,H   5)     67.2824         0.011829   
    125. D(O  18,C  10,C   2,C   4)    -54.5643         0.011829   
    126. D(C   7,C  10,C   2,H   6)    -55.3981         0.011829   
    127. D(O  18,C  10,C   7,C   0)     52.7535         0.011551   
    128. D(C   7,C  10,C   2,H   5)   -172.9578         0.011829   
    129. D(C   7,C  10,C   2,C   4)     65.1955         0.011829   
    130. D(H   3,C  10,C   2,H   6)     65.0645         0.011829   
    131. D(Br 17,C  10,C   7,H  11)    -28.7519         0.011551   
    132. D(H   3,C  10,C   2,H   5)    -52.4951         0.011829   
    133. D(H   3,C  10,C   2,C   4)   -174.3419         0.011829   
    134. D(C  19,O  18,C  10,C   7)    100.7138         0.020529   
    135. D(C  19,O  18,C  10,H   3)    -21.5860         0.020529   
    136. D(C  19,O  18,C  10,C   2)   -141.7235         0.020529   
    137. D(C  19,O  18,C  10,Br 17)    -24.4594         0.020529   
    138. D(H  22,C  19,O  18,C  10)    -55.2337         0.022882   
    139. D(H  21,C  19,O  18,C  10)   -174.4135         0.022882   
    140. D(H  20,C  19,O  18,C  10)     66.9442         0.022882   
    -----------------------------------------------------------------

Number of atoms                         .... 23
Number of degrees of freedom            .... 140

         *************************************************************
         *                GEOMETRY OPTIMIZATION CYCLE   1            *
         *************************************************************
      -----------------------------------------------------------      
     |                   =====================                   |     
     |                           x T B                           |     
     |                   =====================                   |     
     |                         S. Grimme                         |     
     |          Mulliken Center for Theoretical Chemistry        |     
     |                    University of Bonn                     |     
      -----------------------------------------------------------      

   * xtb version 6.3.2 (30e43eb) compiled by 'schneider@apollo14' on 2020-08-08

   xtb is free software: you can redistribute it and/or modify it under
   the terms of the GNU Lesser General Public License as published by
   the Free Software Foundation, either version 3 of the License, or
   (at your option) any later version.
   
   xtb is distributed in the hope that it will be useful,
   but WITHOUT ANY WARRANTY; without even the implied warranty of
   MERCHANTABILITY or FITNESS FOR A PARTICULAR PURPOSE.  See the
   GNU Lesser General Public License for more details.
   
   Cite this work as:
   * S. Grimme, C. Bannwarth, P. Shushkov, J. Chem. Theory Comput., 2017,
     13, 1989-2009. DOI: 10.1021/acs.jctc.7b00118
   * C. Bannwarth, S. Ehlert and S. Grimme., J. Chem. Theory Comput., 2019,
     15, 1652-1671. DOI: 10.1021/acs.jctc.8b01176
   * P. Pracht, E. Caldeweyher, S. Ehlert, S. Grimme, ChemRxiv, 2019, preprint.
     DOI: 10.26434/chemrxiv.8326202.v1
   
   for GFN-FF:
   * S. Spicher and S. Grimme, Angew. Chem. Int. Ed., 2020,
     DOI: 10.1002/anie.202004239
   
   for DFT-D4:
   * E. Caldeweyher, C. Bannwarth and S. Grimme, J. Chem. Phys., 2017,
     147, 034112. DOI: 10.1063/1.4993215
   * E. Caldeweyher, S. Ehlert, A. Hansen, H. Neugebauer, S. Spicher,
     C. Bannwarth and S. Grimme, J. Chem. Phys., 2019, 150, 154122.
     DOI: 10.1063/1.5090222
   
   for sTDA-xTB:
   * S. Grimme and C. Bannwarth, J. Chem. Phys., 2016, 145, 054103.
     DOI: 10.1063/1.4959605
   
   in the mass-spec context:
   * V. Asgeirsson, C. Bauer and S. Grimme, Chem. Sci., 2017, 8, 4879.
     DOI: 10.1039/c7sc00601b
   * J. Koopman and S. Grimme, ACS Omega 2019, 4, 12, 15120-15133.
     DOI: 10.1021/acsomega.9b02011
   
   for metadynamics refer to:
   * S. Grimme, J. Chem. Theory Comput., 2019, 155, 2847-2862
     DOI: 10.1021/acs.jctc.9b00143
   
   with help from (in alphabetical order)
   C. Bannwarth, F. Bohle, G. Brandenburg, E. Caldeweyher, M. Checinski,
   S. Dohm, S. Ehlert, S. Ehrlich, F. März, H. Neugebauer, J. Pisarek,
   P. Pracht, P. Shushkov, and S. Spicher.
   
 * started run on 2021/11/10 at 03:05:41.554     

           -------------------------------------------------
          |                Calculation Setup                |
           -------------------------------------------------

          program call               : /opt/orca/otool_xtb opt+numfreq_XTB.xyz --grad -c -1 -u 0 -P 6 --namespace opt+numfreq --gbsa methanol
          calculation namespace      : opt+numfreq
          coordinate file            : opt+numfreq_XTB.xyz
          omp threads                :                     6
          number of atoms            :                    23
          number of electrons        :                    56
          charge                     :                    -1
          spin                       :                   0.0
          first test random number   :      0.24643212422948

   ID    Z sym.   atoms
    1    6 C      1-3, 5, 8, 11, 20
    2    1 H      4, 6, 7, 9, 10, 12-17, 21-23
    3   35 Br     18
    4    8 O      19

molecular fragmentation (1/2 indicates fragments):
11111111111111111211111
# atoms in fragment 1/2:    22     1
 fragment masses (1/2) :      114.19       79.90
CMA distance (Bohr)    :   8.178
constraining FC (au)   :  0.0500
########################################################################
[WARNING] Please study the warnings concerning your input carefully
-1- prog_main_parseArguments: Process number higher than OMP_NUM_THREADS, I hope you know what you are doing.
########################################################################

           -------------------------------------------------
          |                 G F N 2 - x T B                 |
           -------------------------------------------------

        Reference                      10.1021/acs.jctc.8b01176
      * Hamiltonian:
        H0-scaling (s, p, d)           1.850000    2.230000    2.230000
        zeta-weighting                 0.500000
      * Dispersion:
        s8                             2.700000
        a1                             0.520000
        a2                             5.000000
        s9                             5.000000
      * Repulsion:
        kExp                           1.500000    1.000000
        rExp                           1.000000
      * Coulomb:
        alpha                          2.000000
        third order                    shell-resolved
        anisotropic                    true
        a3                             3.000000
        a5                             4.000000
        cn-shift                       1.200000
        cn-exp                         4.000000
        max-rad                        5.000000

      * Solvation model:               GBSA
        Solvent                        methanol
        Parameter file                 internal GFN2-xTB/GBSA
        Dielectric constant                3.2700E+01
        Reference state                gsolv [1 M gas/solution]
        Free energy shift                  3.3569E-03 Eh       2.1065E+00 kcal/mol
        Temperature                        2.9815E+02 K
        Density                            7.9200E-01 kg/L
        Solvent mass                       3.2040E+01 g/mol
        Interaction kernel             Still
        Born radius scaling (c1)           1.6087E+00
        Born radii integrator          GBOBC
        Born offset                        5.6550E-04 a0       1.0686E-03 AA
        H-bond correction              true
        Ion screening                  false
        Surface tension                    1.0000E-05 Eh       1.5569E+01 dyn/cm
        Grid points                               230 per atom

          ...................................................
          :                      SETUP                      :
          :.................................................:
          :  # basis functions                  56          :
          :  # atomic orbitals                  55          :
          :  # shells                           33          :
          :  # electrons                        56          :
          :  max. iterations                   250          :
          :  Hamiltonian                  GFN2-xTB          :
          :  restarted?                      false          :
          :  GBSA solvation                   true          :
          :  PC potential                    false          :
          :  electronic temp.          300.0000000     K    :
          :  accuracy                    1.0000000          :
          :  -> integral cutoff          0.2500000E+02      :
          :  -> integral neglect         0.1000000E-07      :
          :  -> SCF convergence          0.1000000E-05 Eh   :
          :  -> wf. convergence          0.1000000E-03 e    :
          :  Broyden damping             0.4000000          :
          ...................................................

 iter      E             dE          RMSdq      gap      omega  full diag
   1    -30.8932671 -0.308933E+02  0.349E+00   10.71       0.0  T
   2    -30.9748720 -0.816049E-01  0.180E+00    9.54       1.0  T
   3    -30.9756582 -0.786182E-03  0.873E-01    9.52       1.0  T
   4    -30.9758627 -0.204451E-03  0.117E-01    9.54       1.0  T
   5    -30.9759517 -0.890033E-04  0.639E-02    9.56       1.0  T
   6    -30.9759551 -0.344588E-05  0.952E-03    9.55       2.2  T
   7    -30.9759553 -0.153746E-06  0.565E-03    9.56       3.7  T
   8    -30.9759553 -0.412811E-07  0.134E-03    9.56      15.6  T
   9    -30.9759553 -0.384683E-08  0.861E-04    9.56      24.2  T
  10    -30.9759553 -0.134552E-08  0.429E-04    9.56      48.6  T

   *** convergence criteria satisfied after 10 iterations ***

         #    Occupation            Energy/Eh            Energy/eV
      -------------------------------------------------------------
         1        2.0000           -0.7377291             -20.0746
       ...           ...                  ...                  ...
        22        2.0000           -0.4167789             -11.3411
        23        2.0000           -0.4112785             -11.1915
        24        2.0000           -0.4047428             -11.0136
        25        2.0000           -0.3835971             -10.4382
        26        2.0000           -0.3306772              -8.9982
        27        2.0000           -0.3301766              -8.9846
        28        2.0000           -0.3301323              -8.9834 (HOMO)
        29                          0.0210293               0.5722 (LUMO)
        30                          0.0879179               2.3924
        31                          0.1016315               2.7655
        32                          0.1051591               2.8615
        33                          0.1104870               3.0065
       ...                                ...                  ...
        55                          0.3211939               8.7401
      -------------------------------------------------------------
                  HL-Gap            0.3511616 Eh            9.5556 eV
             Fermi-level           -0.1545515 Eh           -4.2056 eV

 SCC (total)                   0 d,  0 h,  0 min,  0.036 sec
 SCC setup                      ...        0 min,  0.001 sec (  2.851%)
 Dispersion                     ...        0 min,  0.000 sec (  0.437%)
 classical contributions        ...        0 min,  0.000 sec (  0.414%)
 integral evaluation            ...        0 min,  0.005 sec ( 14.717%)
 iterations                     ...        0 min,  0.014 sec ( 37.902%)
 molecular gradient             ...        0 min,  0.015 sec ( 41.235%)
 printout                       ...        0 min,  0.001 sec (  2.393%)

         :::::::::::::::::::::::::::::::::::::::::::::::::::::
         ::                     SUMMARY                     ::
         :::::::::::::::::::::::::::::::::::::::::::::::::::::
         :: total energy             -30.648981168953 Eh    ::
         :: total w/o Gsasa/hb       -30.634231439371 Eh    ::
         :: gradient norm              0.006563818402 Eh/a0 ::
         :: HOMO-LUMO gap              9.555593251127 eV    ::
         ::.................................................::
         :: SCC energy               -30.975955307356 Eh    ::
         :: -> isotropic ES            0.197809050490 Eh    ::
         :: -> anisotropic ES          0.002167172077 Eh    ::
         :: -> anisotropic XC          0.009273602198 Eh    ::
         :: -> dispersion             -0.018323024884 Eh    ::
         :: -> Gsolv                  -0.108537294837 Eh    ::
         ::    -> Gborn               -0.093787565256 Eh    ::
         ::    -> Gsasa               -0.012725537723 Eh    ::
         ::    -> Ghb                 -0.005381121381 Eh    ::
         ::    -> Gshift               0.003356929523 Eh    ::
         :: repulsion energy           0.326814682732 Eh    ::
         :: add. restraining           0.000000000000 Eh    ::
         :: total charge              -1.000000000000 e     ::
         :::::::::::::::::::::::::::::::::::::::::::::::::::::

           -------------------------------------------------
          |                Property Printout                |
           -------------------------------------------------

    * Orbital Energies and Occupations

         #    Occupation            Energy/Eh            Energy/eV
      -------------------------------------------------------------
         1        2.0000           -0.7377291             -20.0746
       ...           ...                  ...                  ...
        16        2.0000           -0.4682695             -12.7423
        17        2.0000           -0.4651804             -12.6582
        18        2.0000           -0.4585899             -12.4789
        19        2.0000           -0.4516083             -12.2889
        20        2.0000           -0.4436595             -12.0726
        21        2.0000           -0.4293587             -11.6834
        22        2.0000           -0.4167789             -11.3411
        23        2.0000           -0.4112785             -11.1915
        24        2.0000           -0.4047428             -11.0136
        25        2.0000           -0.3835971             -10.4382
        26        2.0000           -0.3306772              -8.9982
        27        2.0000           -0.3301766              -8.9846
        28        2.0000           -0.3301323              -8.9834 (HOMO)
        29                          0.0210293               0.5722 (LUMO)
        30                          0.0879179               2.3924
        31                          0.1016315               2.7655
        32                          0.1051591               2.8615
        33                          0.1104870               3.0065
        34                          0.1186577               3.2288
        35                          0.1236704               3.3652
        36                          0.1415263               3.8511
        37                          0.1448118               3.9405
        38                          0.1563898               4.2556
        39                          0.1646495               4.4803
       ...                                ...                  ...
        55                          0.3211939               8.7401
      -------------------------------------------------------------
                  HL-Gap            0.3511616 Eh            9.5556 eV
             Fermi-level           -0.1545515 Eh           -4.2056 eV

     #   Z          covCN         q      C6AA      α(0)
     1   6 C        3.808    -0.058    21.603     6.616
     2   6 C        3.805    -0.057    21.594     6.615
     3   6 C        3.809    -0.051    21.473     6.596
     4   1 H        0.923     0.004     2.994     2.706
     5   6 C        3.808    -0.060    21.641     6.622
     6   1 H        0.924     0.021     2.719     2.579
     7   1 H        0.924     0.030     2.583     2.513
     8   6 C        3.808    -0.052    21.498     6.600
     9   1 H        0.924     0.028     2.611     2.527
    10   1 H        0.924     0.039     2.458     2.452
    11   6 C        3.747     0.124    18.623     6.155
    12   1 H        0.924     0.029     2.606     2.524
    13   1 H        0.924     0.015     2.815     2.624
    14   1 H        0.924     0.051     2.307     2.375
    15   1 H        0.924     0.032     2.559     2.502
    16   1 H        0.924     0.048     2.351     2.398
    17   1 H        0.924     0.030     2.583     2.513
    18  35 Br       0.000    -0.995   195.140    22.448
    19   8 O        1.700    -0.341    19.718     5.995
    20   6 C        3.637     0.046    20.174     6.462
    21   1 H        0.924     0.022     2.700     2.570
    22   1 H        0.925     0.068     2.104     2.268
    23   1 H        0.924     0.025     2.659     2.550

 Mol. C6AA /au·bohr⁶  :       5289.126442
 Mol. C8AA /au·bohr⁸  :     144778.169446
 Mol. α(0) /au        :        109.211556


Wiberg/Mayer (AO) data.
largest (>0.10) Wiberg bond orders for each atom

 ---------------------------------------------------------------------------
     #   Z sym  total        # sym  WBO       # sym  WBO       # sym  WBO
 ---------------------------------------------------------------------------
     1   6 C    3.997 --     2 C    1.009     8 C    1.009    17 H    0.978
                            16 H    0.975
     2   6 C    3.999 --     5 C    1.009     1 C    1.009     9 H    0.978
                            10 H    0.977
     3   6 C    3.997 --     5 C    1.008    11 C    0.990     6 H    0.978
                             7 H    0.975
     4   1 H    1.000 --    11 C    0.964
     5   6 C    3.997 --     2 C    1.009     3 C    1.008    15 H    0.978
                            14 H    0.974
     6   1 H    1.000 --     3 C    0.978
     7   1 H    0.999 --     3 C    0.975
     8   6 C    3.997 --     1 C    1.009    11 C    0.987    13 H    0.978
                            12 H    0.975
     9   1 H    0.999 --     2 C    0.978
    10   1 H    0.998 --     2 C    0.977
    11   6 C    3.949 --     3 C    0.990     8 C    0.987     4 H    0.964
                            19 O    0.959
    12   1 H    0.999 --     8 C    0.975
    13   1 H    1.000 --     8 C    0.978
    14   1 H    0.997 --     5 C    0.974
    15   1 H    0.999 --     5 C    0.978
    16   1 H    0.998 --     1 C    0.975
    17   1 H    0.999 --     1 C    0.978
    18  35 Br   0.008 --    19   8 O    2.061 --    20 C    0.998    11 C    0.959
    20   6 C    3.954 --    19 O    0.998    23 H    0.979    21 H    0.978
                            22 H    0.978
    21   1 H    0.999 --    20 C    0.978
    22   1 H    0.995 --    20 C    0.978
    23   1 H    0.999 --    20 C    0.979
 ---------------------------------------------------------------------------

Topologies differ in total number of bonds
Writing topology from bond orders to xtbtopo.mol

molecular dipole:
                 x           y           z       tot (Debye)
 q only:        7.516       0.202       0.990
   full:        7.227       0.136       0.787      18.481
molecular quadrupole (traceless):
                xx          xy          yy          xz          yz          zz
 q only:      -59.082      -4.242      28.035     -11.695       0.422      31.047
  q+dip:      -59.486      -4.518      28.579     -11.632       0.108      30.907
   full:      -59.667      -4.514      28.318     -11.501       0.375      31.350


           -------------------------------------------------
          | TOTAL ENERGY              -30.648981168953 Eh   |
          | GRADIENT NORM               0.006563818402 Eh/α |
          | HOMO-LUMO GAP               9.555593251127 eV   |
           -------------------------------------------------

------------------------------------------------------------------------
 * finished run on 2021/11/10 at 03:05:41.607     
------------------------------------------------------------------------
 total:
 * wall-time:     0 d,  0 h,  0 min,  0.053 sec
 *  cpu-time:     0 d,  0 h,  0 min,  0.414 sec
 * ratio c/w:     7.818 speedup
 SCF:
 * wall-time:     0 d,  0 h,  0 min,  0.038 sec
 *  cpu-time:     0 d,  0 h,  0 min,  0.289 sec
 * ratio c/w:     7.648 speedup


-------------------------   --------------------
FINAL SINGLE POINT ENERGY       -30.648981168950
-------------------------   --------------------

------------------------------------------------------------------------------
                         ORCA GEOMETRY RELAXATION STEP
------------------------------------------------------------------------------

Reading the OPT-File                    .... done
Getting information on internals        .... done
Copying old internal coords+grads       .... done
Making the new internal coordinates     .... (new redundants).... done
Validating the new internal coordinates .... (new redundants).... done
Calculating the B-matrix                .... done
Calculating the G,G- and P matrices     .... done
Transforming gradient to internals      .... done
Projecting the internal gradient        .... done
Number of atoms                         ....  23
Number of internal coordinates          .... 140
Current Energy                          ....   -30.648981169 Eh
Current gradient norm                   ....     0.006563818 Eh/bohr
Maximum allowed component of the step   ....  0.300
Current trust radius                    ....  0.300
Evaluating the initial hessian          ....  (Almloef) done
Projecting the Hessian                  .... done
Forming the augmented Hessian           .... done
Diagonalizing the augmented Hessian     .... done
Last element of RFO vector              ....  0.861064326
Lowest eigenvalues of augmented Hessian:
 -0.003653545  0.002066937  0.013240108  0.013554875  0.015349265
Length of the computed step             ....  0.590543620
Warning: the length of the step is outside the trust region - taking restricted step instead
The input lambda is                     ....    -0.003654
   iter:   1  x=   -0.005819  g=  119.477591 f(x)=     0.258742
   iter:   2  x=   -0.008313  g=   41.856836 f(x)=     0.104390
   iter:   3  x=   -0.010172  g=   18.611078 f(x)=     0.034592
   iter:   4  x=   -0.010764  g=   11.824580 f(x)=     0.007004
   iter:   5  x=   -0.010805  g=   10.421074 f(x)=     0.000429
   iter:   6  x=   -0.010805  g=   10.332886 f(x)=     0.000002
   iter:   7  x=   -0.010805  g=   10.332512 f(x)=     0.000000
   iter:   8  x=   -0.010805  g=   10.332512 f(x)=     0.000000
The output lambda is                    ....    -0.010805 (8 iterations)
The final length of the internal step   ....  0.300000000
Converting the step to cartesian space:
 Initial RMS(Int)=    0.0253546276
Transforming coordinates:
 Iter   0:  RMS(Cart)=    0.0666867956 RMS(Int)=    0.0254640260
 Iter   1:  RMS(Cart)=    0.0016817743 RMS(Int)=    0.0007625954
 Iter   2:  RMS(Cart)=    0.0000720628 RMS(Int)=    0.0000175625
 Iter   3:  RMS(Cart)=    0.0000041890 RMS(Int)=    0.0000021215
 Iter   4:  RMS(Cart)=    0.0000002118 RMS(Int)=    0.0000000657
 Iter   5:  RMS(Cart)=    0.0000000128 RMS(Int)=    0.0000000071
done
Storing new coordinates                 .... done

                                .--------------------.
          ----------------------|Geometry convergence|-------------------------
          Item                value                   Tolerance       Converged
          ---------------------------------------------------------------------
          RMS gradient        0.0012896531            0.0001000000      NO
          MAX gradient        0.0099883034            0.0003000000      NO
          RMS step            0.0253546276            0.0020000000      NO
          MAX step            0.1347600782            0.0040000000      NO
          ........................................................
          Max(Bonds)      0.0713      Max(Angles)    1.39
          Max(Dihed)        3.36      Max(Improp)    0.00
          ---------------------------------------------------------------------

The optimization has not yet converged - more geometry cycles are needed


    ---------------------------------------------------------------------------
                         Redundant Internal Coordinates
                            (Angstroem and degrees)

        Definition                    Value    dE/dq     Step     New-Value
    ----------------------------------------------------------------------------
     1. B(C   1,C   0)                1.5271 -0.001035 -0.0002    1.5269   
     2. B(C   4,C   1)                1.5267 -0.001166  0.0002    1.5270   
     3. B(C   4,C   2)                1.5242 -0.001725  0.0024    1.5266   
     4. B(H   5,C   2)                1.0918 -0.000272  0.0004    1.0922   
     5. B(H   6,C   2)                1.0916  0.000168 -0.0002    1.0914   
     6. B(C   7,C   0)                1.5243 -0.001576  0.0021    1.5265   
     7. B(H   8,C   1)                1.0928 -0.000300  0.0004    1.0933   
     8. B(H   9,C   1)                1.0920 -0.000117  0.0002    1.0922   
     9. B(C  10,C   7)                1.5332  0.000168  0.0014    1.5346   
    10. B(C  10,H   3)                1.0982  0.000334 -0.0003    1.0978   
    11. B(C  10,C   2)                1.5298 -0.000941  0.0029    1.5327   
    12. B(H  11,C   7)                1.0919  0.000311 -0.0007    1.0912   
    13. B(H  12,C   7)                1.0926 -0.000294  0.0004    1.0930   
    14. B(H  13,C   4)                1.0904 -0.000112  0.0002    1.0906   
    15. B(H  14,C   4)                1.0915 -0.000177  0.0003    1.0918   
    16. B(H  15,C   0)                1.0911 -0.000275  0.0004    1.0915   
    17. B(H  16,C   0)                1.0917 -0.000100  0.0001    1.0918   
    18. B(Br 17,H  11)                3.1249 -0.001133  0.0358    3.1607   
    19. B(Br 17,C  10)                3.5584 -0.001511  0.0713    3.6298   
    20. B(Br 17,H   6)                3.1295 -0.000778  0.0394    3.1689   
    21. B(Br 17,H   3)                2.8618 -0.001287  0.0619    2.9237   
    22. B(O  18,C  10)                1.4264  0.000876 -0.0009    1.4254   
    23. B(C  19,O  18)                1.4015 -0.001786  0.0017    1.4032   
    24. B(H  20,C  19)                1.0973 -0.000327  0.0005    1.0978   
    25. B(H  21,C  19)                1.0894  0.000108 -0.0002    1.0893   
    26. B(H  22,C  19)                1.0957 -0.000149  0.0002    1.0960   
    27. A(C   1,C   0,H  16)          110.50 -0.000062   -0.16    110.34   
    28. A(H  15,C   0,H  16)          108.79  0.000368   -0.05    108.75   
    29. A(C   1,C   0,H  15)          109.24 -0.000230    0.02    109.26   
    30. A(C   1,C   0,C   7)          110.51  0.001513   -0.09    110.41   
    31. A(C   7,C   0,H  15)          107.48 -0.001402    0.48    107.96   
    32. A(C   7,C   0,H  16)          110.25 -0.000239   -0.18    110.07   
    33. A(C   0,C   1,H   8)          109.24  0.000393    0.02    109.26   
    34. A(H   8,C   1,H   9)          108.41  0.000048   -0.06    108.35   
    35. A(C   0,C   1,C   4)          110.90 -0.000720   -0.13    110.77   
    36. A(C   4,C   1,H   8)          109.16  0.000318    0.07    109.24   
    37. A(C   0,C   1,H   9)          109.51  0.000037    0.05    109.56   
    38. A(C   4,C   1,H   9)          109.57 -0.000058    0.05    109.62   
    39. A(C   4,C   2,H   5)          111.32 -0.000128    0.02    111.35   
    40. A(C   4,C   2,C  10)          108.16 -0.002404    1.03    109.18   
    41. A(H   5,C   2,H   6)          107.71 -0.000576   -0.08    107.63   
    42. A(H   6,C   2,C  10)          108.33  0.000870   -0.46    107.88   
    43. A(C   4,C   2,H   6)          111.16  0.001481   -0.45    110.71   
    44. A(H   5,C   2,C  10)          110.12  0.000830   -0.09    110.03   
    45. A(H  13,C   4,H  14)          108.83  0.000288   -0.04    108.79   
    46. A(C   1,C   4,H  14)          110.55 -0.000047   -0.18    110.37   
    47. A(C   2,C   4,H  13)          107.40 -0.001326    0.41    107.81   
    48. A(C   1,C   4,H  13)          109.52 -0.000059   -0.02    109.51   
    49. A(C   2,C   4,H  14)          110.14 -0.000178   -0.15    109.98   
    50. A(C   1,C   4,C   2)          110.33  0.001277   -0.00    110.33   
    51. A(C   0,C   7,H  12)          111.40 -0.000136   -0.01    111.39   
    52. A(C  10,C   7,H  11)          108.00  0.000925   -0.39    107.61   
    53. A(C  10,C   7,H  12)          110.87  0.001384   -0.24    110.63   
    54. A(C   0,C   7,H  11)          111.07  0.001395   -0.38    110.69   
    55. A(H  11,C   7,H  12)          107.35 -0.000722   -0.03    107.32   
    56. A(C   0,C   7,C  10)          108.12 -0.002735    1.01    109.13   
    57. A(C   2,C  10,H   3)          110.30 -0.000659   -0.18    110.12   
    58. A(C   7,C  10,Br 17)           85.63 -0.000431    0.04     85.67   
    59. A(H   3,C  10,Br 17)           43.40  0.000194   -0.43     42.97   
    60. A(C   2,C  10,Br 17)           85.71 -0.000157    0.20     85.91   
    61. A(Br 17,C  10,O  18)          153.09  0.002012   -1.08    152.01   
    62. A(H   3,C  10,C   7)          110.40 -0.000608   -0.27    110.13   
    63. A(C   7,C  10,O  18)          111.00 -0.000342    0.05    111.05   
    64. A(H   3,C  10,O  18)          109.73  0.001855   -0.68    109.06   
    65. A(C   2,C  10,O  18)          107.77 -0.001906    0.76    108.54   
    66. A(C   2,C  10,C   7)          107.57  0.001602    0.36    107.93   
    67. A(C  10,O  18,C  19)          117.00  0.009988   -1.39    115.61   
    68. A(H  21,C  19,H  22)          109.59  0.000133    0.01    109.60   
    69. A(H  20,C  19,H  22)          108.82  0.000696   -0.22    108.60   
    70. A(O  18,C  19,H  22)          112.30  0.001398   -0.26    112.05   
    71. A(H  20,C  19,H  21)          109.66  0.000252    0.04    109.70   
    72. A(O  18,C  19,H  21)          105.25 -0.002005    0.38    105.63   
    73. A(O  18,C  19,H  20)          111.14 -0.000551    0.08    111.22   
    74. D(C   4,C   1,C   0,C   7)    -55.34  0.000274   -0.73    -56.06   
    75. D(C   4,C   1,C   0,H  16)   -177.64 -0.000410   -0.33   -177.96   
    76. D(H   9,C   1,C   0,H  15)    -58.34 -0.000169   -0.20    -58.53   
    77. D(H   9,C   1,C   0,H  16)     61.32  0.000101   -0.34     60.98   
    78. D(H   8,C   1,C   0,H  15)   -176.93 -0.000483   -0.16   -177.09   
    79. D(C   4,C   1,C   0,H  15)     62.71 -0.000680   -0.18     62.53   
    80. D(H   8,C   1,C   0,C   7)     65.03  0.000471   -0.71     64.32   
    81. D(H   9,C   1,C   0,C   7)   -176.38  0.000785   -0.74   -177.12   
    82. D(H   8,C   1,C   0,H  16)    -57.27 -0.000213   -0.31    -57.58   
    83. D(C   2,C   4,C   1,C   0)     55.46 -0.000304    0.62     56.08   
    84. D(H  13,C   4,C   2,H   6)    177.68  0.000095    0.72    178.40   
    85. D(H  13,C   4,C   2,C  10)     58.86 -0.000343    0.91     59.78   
    86. D(H  13,C   4,C   1,C   0)    -62.55  0.000589    0.12    -62.43   
    87. D(H  13,C   4,C   1,H   8)    177.03  0.000347    0.13    177.17   
    88. D(H  14,C   4,C   2,C  10)    177.24 -0.000874    1.02    178.26   
    89. D(C   1,C   4,C   2,H   6)     58.36  0.000239    0.50     58.86   
    90. D(H  14,C   4,C   2,H   5)     56.13 -0.000251    0.45     56.58   
    91. D(C   1,C   4,C   2,H   5)    178.45  0.000424    0.11    178.56   
    92. D(H  14,C   4,C   1,H   9)    -61.46 -0.000155    0.31    -61.15   
    93. D(C   1,C   4,C   2,C  10)    -60.45 -0.000199    0.69    -59.76   
    94. D(H  13,C   4,C   2,H   5)    -62.24  0.000280    0.34    -61.90   
    95. D(H  14,C   4,C   2,H   6)    -63.95 -0.000436    0.83    -63.12   
    96. D(C   2,C   4,C   1,H   9)    176.47 -0.000760    0.63    177.10   
    97. D(H  14,C   4,C   1,H   8)     57.12  0.000058    0.31     57.43   
    98. D(H  14,C   4,C   1,C   0)    177.53  0.000300    0.30    177.83   
    99. D(C   2,C   4,C   1,H   8)    -64.95 -0.000546    0.63    -64.32   
   100. D(H  13,C   4,C   1,H   9)     58.45  0.000134    0.13     58.59   
   101. D(H  11,C   7,C   0,C   1)    -58.33 -0.000504   -0.31    -58.64   
   102. D(C  10,C   7,C   0,H  16)   -177.55  0.000533   -0.78   -178.32   
   103. D(C  10,C   7,C   0,C   1)     60.00 -0.000249   -0.39     59.62   
   104. D(C  10,C   7,C   0,H  15)    -59.12  0.000015   -0.65    -59.76   
   105. D(H  12,C   7,C   0,H  16)    -55.49  0.000346   -0.40    -55.89   
   106. D(H  12,C   7,C   0,H  15)     62.94 -0.000172   -0.27     62.67   
   107. D(H  12,C   7,C   0,C   1)   -177.94 -0.000435   -0.01   -177.95   
   108. D(H  11,C   7,C   0,H  16)     64.12  0.000278   -0.70     63.42   
   109. D(H  11,C   7,C   0,H  15)   -177.45 -0.000240   -0.57   -178.02   
   110. D(Br 17,C  10,C   7,H  12)     88.59  0.000005    1.51     90.10   
   111. D(Br 17,C  10,C   7,C   0)   -149.02 -0.001095    2.01   -147.01   
   112. D(O  18,C  10,C   7,H  12)    -69.63 -0.002010    2.85    -66.77   
   113. D(O  18,C  10,C   7,H  11)    173.03 -0.002469    3.25    176.28   
   114. D(H   3,C  10,C   7,H  12)     52.29 -0.000307    1.85     54.13   
   115. D(H   3,C  10,C   7,H  11)    -65.06 -0.000766    2.25    -62.81   
   116. D(H   3,C  10,C   7,C   0)    174.67 -0.001407    2.35    177.02   
   117. D(C   2,C  10,C   7,H  12)    172.69 -0.000477    1.69    174.38   
   118. D(C   2,C  10,C   7,H  11)     55.34 -0.000935    2.09     57.43   
   119. D(C   2,C  10,C   7,C   0)    -64.93 -0.001577    2.20    -62.73   
   120. D(Br 17,C  10,C   2,H   6)     28.63  0.000331   -2.07     26.56   
   121. D(Br 17,C  10,C   2,H   5)    -88.93  0.000046   -1.66    -90.59   
   122. D(Br 17,C  10,C   2,C   4)    149.23  0.001220   -2.29    146.94   
   123. D(O  18,C  10,C   2,H   6)   -175.16  0.001578   -2.82   -177.97   
   124. D(O  18,C  10,C   2,H   5)     67.28  0.001293   -2.41     64.88   
   125. D(O  18,C  10,C   2,C   4)    -54.56  0.002467   -3.03    -57.60   
   126. D(C   7,C  10,C   2,H   6)    -55.40  0.001010   -2.15    -57.54   
   127. D(O  18,C  10,C   7,C   0)     52.75 -0.003111    3.36     56.11   
   128. D(C   7,C  10,C   2,H   5)   -172.96  0.000725   -1.74   -174.69   
   129. D(C   7,C  10,C   2,C   4)     65.20  0.001899   -2.36     62.83   
   130. D(H   3,C  10,C   2,H   6)     65.06  0.000871   -2.35     62.71   
   131. D(Br 17,C  10,C   7,H  11)    -28.75 -0.000454    1.91    -26.84   
   132. D(H   3,C  10,C   2,H   5)    -52.50  0.000586   -1.94    -54.44   
   133. D(H   3,C  10,C   2,C   4)   -174.34  0.001760   -2.57   -176.91   
   134. D(C  19,O  18,C  10,C   7)    100.71  0.000905   -1.95     98.77   
   135. D(C  19,O  18,C  10,H   3)    -21.59  0.000637   -1.18    -22.77   
   136. D(C  19,O  18,C  10,C   2)   -141.72  0.001505   -1.03   -142.75   
   137. D(C  19,O  18,C  10,Br 17)    -24.46 -0.000674   -0.19    -24.65   
   138. D(H  22,C  19,O  18,C  10)    -55.23 -0.000076   -0.73    -55.97   
   139. D(H  21,C  19,O  18,C  10)   -174.41  0.000254   -0.84   -175.25   
   140. D(H  20,C  19,O  18,C  10)     66.94  0.001424   -1.15     65.79   
    ----------------------------------------------------------------------------

         *************************************************************
         *                GEOMETRY OPTIMIZATION CYCLE   2            *
         *************************************************************
      -----------------------------------------------------------      
     |                   =====================                   |     
     |                           x T B                           |     
     |                   =====================                   |     
     |                         S. Grimme                         |     
     |          Mulliken Center for Theoretical Chemistry        |     
     |                    University of Bonn                     |     
      -----------------------------------------------------------      

   * xtb version 6.3.2 (30e43eb) compiled by 'schneider@apollo14' on 2020-08-08

   xtb is free software: you can redistribute it and/or modify it under
   the terms of the GNU Lesser General Public License as published by
   the Free Software Foundation, either version 3 of the License, or
   (at your option) any later version.
   
   xtb is distributed in the hope that it will be useful,
   but WITHOUT ANY WARRANTY; without even the implied warranty of
   MERCHANTABILITY or FITNESS FOR A PARTICULAR PURPOSE.  See the
   GNU Lesser General Public License for more details.
   
   Cite this work as:
   * S. Grimme, C. Bannwarth, P. Shushkov, J. Chem. Theory Comput., 2017,
     13, 1989-2009. DOI: 10.1021/acs.jctc.7b00118
   * C. Bannwarth, S. Ehlert and S. Grimme., J. Chem. Theory Comput., 2019,
     15, 1652-1671. DOI: 10.1021/acs.jctc.8b01176
   * P. Pracht, E. Caldeweyher, S. Ehlert, S. Grimme, ChemRxiv, 2019, preprint.
     DOI: 10.26434/chemrxiv.8326202.v1
   
   for GFN-FF:
   * S. Spicher and S. Grimme, Angew. Chem. Int. Ed., 2020,
     DOI: 10.1002/anie.202004239
   
   for DFT-D4:
   * E. Caldeweyher, C. Bannwarth and S. Grimme, J. Chem. Phys., 2017,
     147, 034112. DOI: 10.1063/1.4993215
   * E. Caldeweyher, S. Ehlert, A. Hansen, H. Neugebauer, S. Spicher,
     C. Bannwarth and S. Grimme, J. Chem. Phys., 2019, 150, 154122.
     DOI: 10.1063/1.5090222
   
   for sTDA-xTB:
   * S. Grimme and C. Bannwarth, J. Chem. Phys., 2016, 145, 054103.
     DOI: 10.1063/1.4959605
   
   in the mass-spec context:
   * V. Asgeirsson, C. Bauer and S. Grimme, Chem. Sci., 2017, 8, 4879.
     DOI: 10.1039/c7sc00601b
   * J. Koopman and S. Grimme, ACS Omega 2019, 4, 12, 15120-15133.
     DOI: 10.1021/acsomega.9b02011
   
   for metadynamics refer to:
   * S. Grimme, J. Chem. Theory Comput., 2019, 155, 2847-2862
     DOI: 10.1021/acs.jctc.9b00143
   
   with help from (in alphabetical order)
   C. Bannwarth, F. Bohle, G. Brandenburg, E. Caldeweyher, M. Checinski,
   S. Dohm, S. Ehlert, S. Ehrlich, F. März, H. Neugebauer, J. Pisarek,
   P. Pracht, P. Shushkov, and S. Spicher.
   
 * started run on 2021/11/10 at 03:05:41.908     

           -------------------------------------------------
          |                Calculation Setup                |
           -------------------------------------------------

          program call               : /opt/orca/otool_xtb opt+numfreq_XTB.xyz --grad -c -1 -u 0 -P 6 --namespace opt+numfreq --gbsa methanol
          calculation namespace      : opt+numfreq
          coordinate file            : opt+numfreq_XTB.xyz
          omp threads                :                     6
          number of atoms            :                    23
          number of electrons        :                    56
          charge                     :                    -1
          spin                       :                   0.0
          first test random number   :      0.09793386925310

   ID    Z sym.   atoms
    1    6 C      1-3, 5, 8, 11, 20
    2    1 H      4, 6, 7, 9, 10, 12-17, 21-23
    3   35 Br     18
    4    8 O      19

molecular fragmentation (1/2 indicates fragments):
11111111111111111211111
# atoms in fragment 1/2:    22     1
 fragment masses (1/2) :      114.19       79.90
CMA distance (Bohr)    :   8.262
constraining FC (au)   :  0.0500
########################################################################
[WARNING] Please study the warnings concerning your input carefully
-1- prog_main_parseArguments: Process number higher than OMP_NUM_THREADS, I hope you know what you are doing.
########################################################################

           -------------------------------------------------
          |                 G F N 2 - x T B                 |
           -------------------------------------------------

        Reference                      10.1021/acs.jctc.8b01176
      * Hamiltonian:
        H0-scaling (s, p, d)           1.850000    2.230000    2.230000
        zeta-weighting                 0.500000
      * Dispersion:
        s8                             2.700000
        a1                             0.520000
        a2                             5.000000
        s9                             5.000000
      * Repulsion:
        kExp                           1.500000    1.000000
        rExp                           1.000000
      * Coulomb:
        alpha                          2.000000
        third order                    shell-resolved
        anisotropic                    true
        a3                             3.000000
        a5                             4.000000
        cn-shift                       1.200000
        cn-exp                         4.000000
        max-rad                        5.000000

      * Solvation model:               GBSA
        Solvent                        methanol
        Parameter file                 internal GFN2-xTB/GBSA
        Dielectric constant                3.2700E+01
        Reference state                gsolv [1 M gas/solution]
        Free energy shift                  3.3569E-03 Eh       2.1065E+00 kcal/mol
        Temperature                        2.9815E+02 K
        Density                            7.9200E-01 kg/L
        Solvent mass                       3.2040E+01 g/mol
        Interaction kernel             Still
        Born radius scaling (c1)           1.6087E+00
        Born radii integrator          GBOBC
        Born offset                        5.6550E-04 a0       1.0686E-03 AA
        H-bond correction              true
        Ion screening                  false
        Surface tension                    1.0000E-05 Eh       1.5569E+01 dyn/cm
        Grid points                               230 per atom

          ...................................................
          :                      SETUP                      :
          :.................................................:
          :  # basis functions                  56          :
          :  # atomic orbitals                  55          :
          :  # shells                           33          :
          :  # electrons                        56          :
          :  max. iterations                   250          :
          :  Hamiltonian                  GFN2-xTB          :
          :  restarted?                      false          :
          :  GBSA solvation                   true          :
          :  PC potential                    false          :
          :  electronic temp.          300.0000000     K    :
          :  accuracy                    1.0000000          :
          :  -> integral cutoff          0.2500000E+02      :
          :  -> integral neglect         0.1000000E-07      :
          :  -> SCF convergence          0.1000000E-05 Eh   :
          :  -> wf. convergence          0.1000000E-03 e    :
          :  Broyden damping             0.4000000          :
          ...................................................

 iter      E             dE          RMSdq      gap      omega  full diag
   1    -30.8941886 -0.308942E+02  0.348E+00   10.77       0.0  T
   2    -30.9757848 -0.815962E-01  0.180E+00    9.60       1.0  T
   3    -30.9765650 -0.780219E-03  0.871E-01    9.57       1.0  T
   4    -30.9767694 -0.204436E-03  0.117E-01    9.59       1.0  T
   5    -30.9768578 -0.883880E-04  0.637E-02    9.61       1.0  T
   6    -30.9768612 -0.341661E-05  0.949E-03    9.61       2.2  T
   7    -30.9768614 -0.151501E-06  0.553E-03    9.61       3.8  T
   8    -30.9768614 -0.352636E-07  0.103E-03    9.61      20.3  T
   9    -30.9768614 -0.252531E-08  0.624E-04    9.61      33.4  T
  10    -30.9768614 -0.667534E-09  0.316E-04    9.61      66.0  T

   *** convergence criteria satisfied after 10 iterations ***

         #    Occupation            Energy/Eh            Energy/eV
      -------------------------------------------------------------
         1        2.0000           -0.7378959             -20.0792
       ...           ...                  ...                  ...
        22        2.0000           -0.4175236             -11.3614
        23        2.0000           -0.4126986             -11.2301
        24        2.0000           -0.4054668             -11.0333
        25        2.0000           -0.3841231             -10.4525
        26        2.0000           -0.3309495              -9.0056
        27        2.0000           -0.3304975              -8.9933
        28        2.0000           -0.3304511              -8.9920 (HOMO)
        29                          0.0226867               0.6173 (LUMO)
        30                          0.0877549               2.3879
        31                          0.1013277               2.7573
        32                          0.1033740               2.8129
        33                          0.1105442               3.0081
       ...                                ...                  ...
        55                          0.3164529               8.6111
      -------------------------------------------------------------
                  HL-Gap            0.3531377 Eh            9.6094 eV
             Fermi-level           -0.1538822 Eh           -4.1873 eV

 SCC (total)                   0 d,  0 h,  0 min,  0.035 sec
 SCC setup                      ...        0 min,  0.002 sec (  4.514%)
 Dispersion                     ...        0 min,  0.000 sec (  0.528%)
 classical contributions        ...        0 min,  0.001 sec (  1.980%)
 integral evaluation            ...        0 min,  0.006 sec ( 17.260%)
 iterations                     ...        0 min,  0.016 sec ( 44.171%)
 molecular gradient             ...        0 min,  0.011 sec ( 31.005%)
 printout                       ...        0 min,  0.000 sec (  0.489%)

         :::::::::::::::::::::::::::::::::::::::::::::::::::::
         ::                     SUMMARY                     ::
         :::::::::::::::::::::::::::::::::::::::::::::::::::::
         :: total energy             -30.650950931113 Eh    ::
         :: total w/o Gsasa/hb       -30.636080805466 Eh    ::
         :: gradient norm              0.006042080607 Eh/a0 ::
         :: HOMO-LUMO gap              9.609367081872 eV    ::
         ::.................................................::
         :: SCC energy               -30.976861437920 Eh    ::
         :: -> isotropic ES            0.197929997911 Eh    ::
         :: -> anisotropic ES          0.002300975943 Eh    ::
         :: -> anisotropic XC          0.009256306991 Eh    ::
         :: -> dispersion             -0.018166476121 Eh    ::
         :: -> Gsolv                  -0.108744560869 Eh    ::
         ::    -> Gborn               -0.093874435222 Eh    ::
         ::    -> Gsasa               -0.012766420123 Eh    ::
         ::    -> Ghb                 -0.005460635047 Eh    ::
         ::    -> Gshift               0.003356929523 Eh    ::
         :: repulsion energy           0.325751514469 Eh    ::
         :: add. restraining           0.000000000000 Eh    ::
         :: total charge              -1.000000000000 e     ::
         :::::::::::::::::::::::::::::::::::::::::::::::::::::

           -------------------------------------------------
          |                Property Printout                |
           -------------------------------------------------

    * Orbital Energies and Occupations

         #    Occupation            Energy/Eh            Energy/eV
      -------------------------------------------------------------
         1        2.0000           -0.7378959             -20.0792
       ...           ...                  ...                  ...
        16        2.0000           -0.4684322             -12.7467
        17        2.0000           -0.4660802             -12.6827
        18        2.0000           -0.4590513             -12.4914
        19        2.0000           -0.4525518             -12.3146
        20        2.0000           -0.4437621             -12.0754
        21        2.0000           -0.4301865             -11.7060
        22        2.0000           -0.4175236             -11.3614
        23        2.0000           -0.4126986             -11.2301
        24        2.0000           -0.4054668             -11.0333
        25        2.0000           -0.3841231             -10.4525
        26        2.0000           -0.3309495              -9.0056
        27        2.0000           -0.3304975              -8.9933
        28        2.0000           -0.3304511              -8.9920 (HOMO)
        29                          0.0226867               0.6173 (LUMO)
        30                          0.0877549               2.3879
        31                          0.1013277               2.7573
        32                          0.1033740               2.8129
        33                          0.1105442               3.0081
        34                          0.1158297               3.1519
        35                          0.1210566               3.2941
        36                          0.1384457               3.7673
        37                          0.1455648               3.9610
        38                          0.1559602               4.2439
        39                          0.1642743               4.4701
       ...                                ...                  ...
        55                          0.3164529               8.6111
      -------------------------------------------------------------
                  HL-Gap            0.3531377 Eh            9.6094 eV
             Fermi-level           -0.1538822 Eh           -4.1873 eV

     #   Z          covCN         q      C6AA      α(0)
     1   6 C        3.806    -0.057    21.595     6.615
     2   6 C        3.805    -0.057    21.597     6.616
     3   6 C        3.807    -0.052    21.497     6.600
     4   1 H        0.924     0.004     2.993     2.705
     5   6 C        3.806    -0.059    21.629     6.621
     6   1 H        0.924     0.023     2.693     2.566
     7   1 H        0.924     0.031     2.573     2.508
     8   6 C        3.807    -0.053    21.514     6.603
     9   1 H        0.924     0.028     2.610     2.527
    10   1 H        0.924     0.039     2.456     2.451
    11   6 C        3.747     0.123    18.634     6.157
    12   1 H        0.924     0.029     2.602     2.523
    13   1 H        0.924     0.016     2.798     2.616
    14   1 H        0.924     0.049     2.330     2.387
    15   1 H        0.924     0.033     2.546     2.495
    16   1 H        0.924     0.046     2.366     2.405
    17   1 H        0.924     0.031     2.571     2.507
    18  35 Br       0.000    -0.996   195.167    22.450
    19   8 O        1.700    -0.341    19.719     5.995
    20   6 C        3.641     0.046    20.158     6.456
    21   1 H        0.924     0.022     2.703     2.571
    22   1 H        0.925     0.068     2.106     2.269
    23   1 H        0.924     0.025     2.656     2.548

 Mol. C6AA /au·bohr⁶  :       5287.652990
 Mol. C8AA /au·bohr⁸  :     144757.492941
 Mol. α(0) /au        :        109.193508


Wiberg/Mayer (AO) data.
largest (>0.10) Wiberg bond orders for each atom

 ---------------------------------------------------------------------------
     #   Z sym  total        # sym  WBO       # sym  WBO       # sym  WBO
 ---------------------------------------------------------------------------
     1   6 C    3.997 --     2 C    1.009     8 C    1.009    17 H    0.978
                            16 H    0.976
     2   6 C    3.998 --     5 C    1.009     1 C    1.009     9 H    0.978
                            10 H    0.977
     3   6 C    3.997 --     5 C    1.008    11 C    0.990     6 H    0.978
                             7 H    0.975
     4   1 H    1.000 --    11 C    0.963
     5   6 C    3.997 --     2 C    1.009     3 C    1.008    15 H    0.978
                            14 H    0.975
     6   1 H    0.999 --     3 C    0.978
     7   1 H    0.999 --     3 C    0.975
     8   6 C    3.997 --     1 C    1.009    11 C    0.987    13 H    0.977
                            12 H    0.975
     9   1 H    0.999 --     2 C    0.978
    10   1 H    0.998 --     2 C    0.977
    11   6 C    3.949 --     3 C    0.990     8 C    0.987     4 H    0.963
                            19 O    0.960
    12   1 H    0.999 --     8 C    0.975
    13   1 H    1.000 --     8 C    0.977
    14   1 H    0.998 --     5 C    0.975
    15   1 H    0.999 --     5 C    0.978
    16   1 H    0.998 --     1 C    0.976
    17   1 H    0.999 --     1 C    0.978
    18  35 Br   0.007 --    19   8 O    2.059 --    20 C    0.998    11 C    0.960
    20   6 C    3.953 --    19 O    0.998    23 H    0.979    22 H    0.978
                            21 H    0.978
    21   1 H    0.999 --    20 C    0.978
    22   1 H    0.995 --    20 C    0.978
    23   1 H    0.999 --    20 C    0.979
 ---------------------------------------------------------------------------

Topologies differ in total number of bonds
Writing topology from bond orders to xtbtopo.mol

molecular dipole:
                 x           y           z       tot (Debye)
 q only:        7.563       0.203       1.005
   full:        7.263       0.135       0.808      18.577
molecular quadrupole (traceless):
                xx          xy          yy          xz          yz          zz
 q only:      -60.398      -4.497      28.641     -11.502       0.534      31.757
  q+dip:      -60.479      -4.777      29.060     -11.358       0.204      31.419
   full:      -60.720      -4.769      28.819     -11.238       0.490      31.901


           -------------------------------------------------
          | TOTAL ENERGY              -30.650950931113 Eh   |
          | GRADIENT NORM               0.006042080607 Eh/α |
          | HOMO-LUMO GAP               9.609367081872 eV   |
           -------------------------------------------------

------------------------------------------------------------------------
 * finished run on 2021/11/10 at 03:05:41.958     
------------------------------------------------------------------------
 total:
 * wall-time:     0 d,  0 h,  0 min,  0.050 sec
 *  cpu-time:     0 d,  0 h,  0 min,  0.377 sec
 * ratio c/w:     7.563 speedup
 SCF:
 * wall-time:     0 d,  0 h,  0 min,  0.035 sec
 *  cpu-time:     0 d,  0 h,  0 min,  0.260 sec
 * ratio c/w:     7.335 speedup


-------------------------   --------------------
FINAL SINGLE POINT ENERGY       -30.650950931110
-------------------------   --------------------

------------------------------------------------------------------------------
                         ORCA GEOMETRY RELAXATION STEP
------------------------------------------------------------------------------

Reading the OPT-File                    .... done
Getting information on internals        .... done
Copying old internal coords+grads       .... done
Making the new internal coordinates     .... (new redundants).... done
Validating the new internal coordinates .... (new redundants).... done
Calculating the B-matrix                .... done
Calculating the G,G- and P matrices     .... done
Transforming gradient to internals      .... done
Projecting the internal gradient        .... done
Number of atoms                         ....  23
Number of internal coordinates          .... 140
Current Energy                          ....   -30.650950931 Eh
Current gradient norm                   ....     0.006042081 Eh/bohr
Maximum allowed component of the step   ....  0.300
Current trust radius                    ....  0.300
Updating the Hessian (BFGS)             .... done
Forming the augmented Hessian           .... done
Diagonalizing the augmented Hessian     .... done
Last element of RFO vector              ....  0.870472486
Lowest eigenvalues of augmented Hessian:
 -0.002633636  0.001682325  0.010938971  0.013268744  0.015382766
Length of the computed step             ....  0.565459660
Warning: the length of the step is outside the trust region - taking restricted step instead
The input lambda is                     ....    -0.002634
   iter:   1  x=   -0.004633  g=  114.920315 f(x)=     0.229745
   iter:   2  x=   -0.006923  g=   40.655482 f(x)=     0.093096
   iter:   3  x=   -0.008465  g=   19.056272 f(x)=     0.029387
   iter:   4  x=   -0.008862  g=   12.960728 f(x)=     0.005147
   iter:   5  x=   -0.008881  g=   11.859938 f(x)=     0.000223
   iter:   6  x=   -0.008881  g=   11.811193 f(x)=     0.000000
   iter:   7  x=   -0.008881  g=   11.811092 f(x)=     0.000000
   iter:   8  x=   -0.008881  g=   11.811092 f(x)=     0.000000
The output lambda is                    ....    -0.008881 (8 iterations)
The final length of the internal step   ....  0.300000000
Converting the step to cartesian space:
 Initial RMS(Int)=    0.0253546276
Transforming coordinates:
 Iter   0:  RMS(Cart)=    0.0651100090 RMS(Int)=    0.5272664567
 Iter   1:  RMS(Cart)=    0.0019199348 RMS(Int)=    0.0009386249
 Iter   2:  RMS(Cart)=    0.0000997857 RMS(Int)=    0.0000285981
 Iter   3:  RMS(Cart)=    0.0000071261 RMS(Int)=    0.0000040899
 Iter   4:  RMS(Cart)=    0.0000004657 RMS(Int)=    0.0000001677
 Iter   5:  RMS(Cart)=    0.0000000341 RMS(Int)=    0.0000000207
done
Storing new coordinates                 .... done

                                .--------------------.
          ----------------------|Geometry convergence|-------------------------
          Item                value                   Tolerance       Converged
          ---------------------------------------------------------------------
          Energy change      -0.0019697622            0.0000050000      NO
          RMS gradient        0.0006544317            0.0001000000      NO
          MAX gradient        0.0043333957            0.0003000000      NO
          RMS step            0.0253546276            0.0020000000      NO
          MAX step            0.1192246965            0.0040000000      NO
          ........................................................
          Max(Bonds)      0.0631      Max(Angles)    1.27
          Max(Dihed)        3.29      Max(Improp)    0.00
          ---------------------------------------------------------------------

The optimization has not yet converged - more geometry cycles are needed


    ---------------------------------------------------------------------------
                         Redundant Internal Coordinates
                            (Angstroem and degrees)

        Definition                    Value    dE/dq     Step     New-Value
    ----------------------------------------------------------------------------
     1. B(C   1,C   0)                1.5270 -0.000215 -0.0009    1.5261   
     2. B(C   4,C   1)                1.5270 -0.000271 -0.0007    1.5263   
     3. B(C   4,C   2)                1.5266  0.000584 -0.0010    1.5255   
     4. B(H   5,C   2)                1.0922  0.000117 -0.0003    1.0920   
     5. B(H   6,C   2)                1.0914 -0.000176  0.0006    1.0920   
     6. B(C   7,C   0)                1.5265  0.000530 -0.0011    1.5254   
     7. B(H   8,C   1)                1.0933  0.000030 -0.0000    1.0932   
     8. B(H   9,C   1)                1.0922 -0.000021  0.0001    1.0923   
     9. B(C  10,C   7)                1.5345  0.001167 -0.0013    1.5332   
    10. B(C  10,H   3)                1.0979  0.000055  0.0004    1.0983   
    11. B(C  10,C   2)                1.5326  0.001629 -0.0025    1.5301   
    12. B(H  11,C   7)                1.0912 -0.000246  0.0004    1.0916   
    13. B(H  12,C   7)                1.0930  0.000065 -0.0001    1.0929   
    14. B(H  13,C   4)                1.0906 -0.000209  0.0006    1.0912   
    15. B(H  14,C   4)                1.0918  0.000067 -0.0001    1.0916   
    16. B(H  15,C   0)                1.0915 -0.000112  0.0003    1.0918   
    17. B(H  16,C   0)                1.0918  0.000045 -0.0001    1.0917   
    18. B(Br 17,H  11)                3.1607 -0.000753  0.0308    3.1915   
    19. B(Br 17,C  10)                3.6295 -0.001618  0.0631    3.6926   
    20. B(Br 17,H   6)                3.1690 -0.000709  0.0398    3.2089   
    21. B(Br 17,H   3)                2.9238 -0.000648  0.0465    2.9702   
    22. B(O  18,C  10)                1.4254 -0.000417  0.0007    1.4261   
    23. B(C  19,O  18)                1.4032 -0.000752  0.0015    1.4048   
    24. B(H  20,C  19)                1.0978  0.000030 -0.0000    1.0978   
    25. B(H  21,C  19)                1.0893  0.000152 -0.0004    1.0889   
    26. B(H  22,C  19)                1.0960 -0.000052  0.0002    1.0961   
    27. A(C   1,C   0,H  16)          110.35 -0.000252   -0.07    110.28   
    28. A(H  15,C   0,H  16)          108.75  0.000127   -0.02    108.73   
    29. A(C   1,C   0,H  15)          109.26  0.000050    0.00    109.26   
    30. A(C   1,C   0,C   7)          110.41  0.000602   -0.09    110.31   
    31. A(C   7,C   0,H  15)          107.96 -0.000746    0.47    108.43   
    32. A(C   7,C   0,H  16)          110.07  0.000201   -0.28    109.79   
    33. A(C   0,C   1,H   8)          109.26  0.000036    0.04    109.31   
    34. A(H   8,C   1,H   9)          108.35  0.000134   -0.05    108.30   
    35. A(C   0,C   1,C   4)          110.76  0.000249   -0.31    110.45   
    36. A(C   4,C   1,H   8)          109.24 -0.000062    0.10    109.34   
    37. A(C   0,C   1,H   9)          109.56 -0.000206    0.13    109.68   
    38. A(C   4,C   1,H   9)          109.63 -0.000152    0.10    109.73   
    39. A(C   4,C   2,H   5)          111.35  0.000046   -0.14    111.21   
    40. A(C   4,C   2,C  10)          109.17 -0.001012    0.89    110.06   
    41. A(H   5,C   2,H   6)          107.63 -0.000405    0.11    107.75   
    42. A(H   6,C   2,C  10)          107.87  0.000505   -0.44    107.43   
    43. A(C   4,C   2,H   6)          110.72  0.000454   -0.22    110.50   
    44. A(H   5,C   2,C  10)          110.03  0.000450   -0.24    109.80   
    45. A(H  13,C   4,H  14)          108.79  0.000063    0.00    108.79   
    46. A(C   1,C   4,H  14)          110.37 -0.000117   -0.13    110.24   
    47. A(C   2,C   4,H  13)          107.81 -0.000659    0.42    108.23   
[...]
     20      -0.009974  -0.378042  -0.353959   0.022984   0.026940  -0.064151
     21       0.006697  -0.000153   0.001760   0.023463  -0.041502   0.010615
     22       0.014545   0.005180   0.004415   0.021036  -0.021024   0.016912
     23       0.012183   0.004748   0.003297   0.002113   0.010431   0.007734
     24       0.194612   0.037929  -0.092367   0.304130   0.159524  -0.093119
     25       0.003704  -0.000163   0.002509   0.000114   0.001246   0.002815
     26      -0.173098  -0.017179   0.055657  -0.220367  -0.126575   0.059690
     27       0.244331  -0.278866   0.323663  -0.501805  -0.077593   0.342013
     28      -0.038616   0.041995  -0.049112   0.075579   0.010521  -0.049862
     29       0.154579  -0.161467   0.184871  -0.277732  -0.037059   0.196281
     30       0.000336  -0.001557  -0.001406   0.001316  -0.002027   0.000215
     31       0.001151  -0.000063  -0.001220  -0.000182  -0.001219   0.000763
     32       0.000246   0.001198   0.001146   0.000494   0.000181   0.000335
     33      -0.058460   0.010154  -0.007373  -0.274398   0.484973  -0.119531
     34       0.009095   0.003171   0.003711   0.012327  -0.013612   0.009015
     35       0.054922  -0.005894   0.008837   0.226235  -0.393528   0.100423
     36      -0.027350  -0.009106  -0.008273  -0.027178   0.020098  -0.027254
     37      -0.210244  -0.064025  -0.060510  -0.270962   0.275875  -0.212345
     38      -0.192636  -0.056996  -0.054789  -0.253611   0.265725  -0.198253
     39      -0.088867  -0.188461  -0.049746   0.064852  -0.085320  -0.072573
     40      -0.004830  -0.019763   0.014978   0.009718   0.003733   0.000326
     41       0.068169   0.133620   0.052981  -0.042741   0.073886   0.058039
     42       0.019547   0.065690  -0.045587  -0.035686  -0.006978   0.004436
     43       0.124990   0.474698  -0.386733  -0.274661  -0.088181   0.017011
     44       0.109924   0.415994  -0.346628  -0.241110  -0.080663   0.010829
     45       0.194562   0.018034  -0.124135   0.196076   0.416024   0.485026
     46      -0.025150   0.004675  -0.003383   0.004428   0.006013   0.020237
     47      -0.145050  -0.016194   0.102776  -0.160412  -0.345485  -0.407039
     48       0.027867  -0.005493   0.006378  -0.009069  -0.016517  -0.038739
     49       0.709362  -0.089296   0.023160  -0.046730   0.007595  -0.399306
     50      -0.381005   0.048622  -0.016268   0.033930   0.009212   0.233230
     51      -0.000001  -0.000001  -0.000000  -0.000000  -0.000000  -0.000001
     52       0.000001   0.000000  -0.000000   0.000001  -0.000002   0.000002
     53       0.000001   0.000000   0.000000   0.000002  -0.000001  -0.000001
     54       0.000060   0.000152   0.000145   0.000126   0.000010   0.000227
     55       0.000080   0.000171   0.000137   0.000138  -0.000242   0.000049
     56       0.000085   0.000027  -0.000051   0.000009  -0.000048   0.000043
     57      -0.000098   0.000101  -0.000206  -0.000584  -0.000758   0.000086
     58       0.001265  -0.000055  -0.000220   0.000820  -0.001753   0.001001
     59      -0.000327  -0.000098  -0.000247   0.000219   0.000228   0.000187
     60       0.000245  -0.000318   0.004937   0.000044   0.009119  -0.005831
     61       0.000850   0.000034  -0.001338   0.000566  -0.003673   0.001900
     62      -0.000428  -0.000238   0.002277  -0.000167   0.004905  -0.002988
     63      -0.000729  -0.001806  -0.002369   0.005818   0.003486   0.002662
     64       0.000669  -0.000651  -0.000755   0.002927   0.000480   0.001472
     65       0.000039   0.001814   0.002092  -0.005536  -0.002477  -0.002469
     66       0.000635  -0.000008  -0.000528   0.000117  -0.001555   0.000628
     67      -0.018651   0.000598   0.004744  -0.014928   0.026362  -0.016887
     68       0.003538  -0.000153  -0.000628   0.003258  -0.005622   0.003013
                  66         67         68    
      0      -0.000371  -0.006464  -0.000541
      1      -0.008846   0.001737  -0.000009
      2       0.004726   0.004373   0.000456
      3       0.003215  -0.015127   0.000171
      4      -0.002199   0.000896  -0.000047
      5       0.016046  -0.000031   0.000347
      6      -0.025150  -0.009858   0.000034
      7       0.048605  -0.012106   0.000196
      8      -0.005616   0.013427  -0.000102
      9       0.022539   0.000449  -0.006914
     10      -0.002425  -0.000425   0.001108
     11       0.012685   0.000947  -0.001825
     12      -0.008723  -0.056752  -0.000246
     13       0.017101  -0.013588   0.000226
     14       0.022539   0.033711   0.000445
     15      -0.059994   0.007552  -0.000063
     16      -0.615748   0.159053  -0.001847
     17       0.376592  -0.092769   0.001044
     18       0.372758   0.093530  -0.000446
     19       0.014697  -0.008054  -0.000073
     20      -0.301859  -0.071664   0.000287
     21      -0.011790  -0.001988   0.000206
     22      -0.008464   0.000630  -0.000065
     23       0.001360   0.002030  -0.000156
     24       0.128861   0.059403   0.001895
     25      -0.000139  -0.000429   0.000010
     26      -0.096462  -0.052850  -0.001153
     27      -0.173008   0.113394  -0.004566
     28       0.026547  -0.018806   0.000670
     29      -0.095309   0.069929  -0.002633
     30      -0.002272  -0.000615  -0.000118
     31       0.001431  -0.000265   0.000030
     32      -0.001030   0.000560   0.000374
     33       0.137963   0.025687  -0.002866
     34      -0.004973   0.000798  -0.000078
     35      -0.112735  -0.019614   0.002282
     36       0.009893  -0.002377  -0.000091
     37       0.106729  -0.008602  -0.000300
     38       0.100108  -0.006943   0.001022
     39       0.128677   0.708685   0.003892
     40       0.007799  -0.004067   0.000147
     41      -0.100837  -0.589576  -0.003200
     42      -0.031264  -0.006102  -0.000612
     43      -0.208334   0.170520  -0.003034
     44      -0.181549   0.173774  -0.002584
     45      -0.004273   0.081753   0.007508
     46      -0.004245   0.000434   0.000112
     47       0.004960  -0.068729  -0.006383
     48       0.005817  -0.004023  -0.000361
     49       0.113580  -0.020862  -0.000199
     50      -0.061426   0.013374   0.000443
     51      -0.000000   0.000000  -0.000001
     52      -0.000001  -0.000000  -0.000001
     53       0.000001  -0.000001   0.000002
     54      -0.000009   0.000187   0.001082
     55      -0.000028  -0.000038  -0.000832
     56       0.000311  -0.000122  -0.002606
     57      -0.000795  -0.000230   0.054936
     58      -0.000774  -0.000102   0.019255
     59      -0.000073   0.000263  -0.045394
     60       0.006560   0.001447   0.031388
     61      -0.002126  -0.000608   0.012602
     62       0.003035   0.001086  -0.016499
     63       0.003130   0.002828  -0.724185
     64       0.001163   0.001114  -0.280525
     65      -0.002461  -0.002200   0.620941
     66      -0.000732  -0.000483   0.029600
     67       0.009676   0.002190   0.051266
     68      -0.001983  -0.000158  -0.025887


-----------
IR SPECTRUM  
-----------

 Mode    freq (cm**-1)   T**2         TX         TY         TZ
-------------------------------------------------------------------
   6:         7.33    0.000000  (  0.000000   0.000000   0.000000)
   7:        17.99    0.000000  (  0.000000   0.000000   0.000000)
   8:        38.31    0.000000  (  0.000000   0.000000   0.000000)
   9:        74.87    0.000000  (  0.000000   0.000000   0.000000)
  10:       134.79    0.000000  (  0.000000   0.000000   0.000000)
  11:       167.00    0.000000  (  0.000000   0.000000   0.000000)
  12:       224.14    0.000000  (  0.000000   0.000000   0.000000)
  13:       287.98    0.000000  (  0.000000   0.000000   0.000000)
  14:       309.50    0.000000  (  0.000000   0.000000   0.000000)
  15:       371.48    0.000000  (  0.000000   0.000000   0.000000)
  16:       394.76    0.000000  (  0.000000   0.000000   0.000000)
  17:       480.30    0.000000  (  0.000000   0.000000   0.000000)
  18:       493.86    0.000000  (  0.000000   0.000000   0.000000)
  19:       651.19    0.000000  (  0.000000   0.000000   0.000000)
  20:       807.29    0.000000  (  0.000000   0.000000   0.000000)
  21:       843.30    0.000000  (  0.000000   0.000000   0.000000)
  22:       866.40    0.000000  (  0.000000   0.000000   0.000000)
  23:       912.07    0.000000  (  0.000000   0.000000   0.000000)
  24:       935.67    0.000000  (  0.000000   0.000000   0.000000)
  25:       950.01    0.000000  (  0.000000   0.000000   0.000000)
  26:       962.37    0.000000  (  0.000000   0.000000   0.000000)
  27:      1002.69    0.000000  (  0.000000   0.000000   0.000000)
  28:      1070.04    0.000000  (  0.000000   0.000000   0.000000)
  29:      1080.15    0.000000  (  0.000000   0.000000   0.000000)
  30:      1093.55    0.000000  (  0.000000   0.000000   0.000000)
  31:      1107.16    0.000000  (  0.000000   0.000000   0.000000)
  32:      1126.93    0.000000  (  0.000000   0.000000   0.000000)
  33:      1130.78    0.000000  (  0.000000   0.000000   0.000000)
  34:      1144.43    0.000000  (  0.000000   0.000000   0.000000)
  35:      1161.43    0.000000  (  0.000000   0.000000   0.000000)
  36:      1186.62    0.000000  (  0.000000   0.000000   0.000000)
  37:      1237.15    0.000000  (  0.000000   0.000000   0.000000)
  38:      1243.09    0.000000  (  0.000000   0.000000   0.000000)
  39:      1248.59    0.000000  (  0.000000   0.000000   0.000000)
  40:      1305.93    0.000000  (  0.000000   0.000000   0.000000)
  41:      1328.39    0.000000  (  0.000000   0.000000   0.000000)
  42:      1332.69    0.000000  (  0.000000   0.000000   0.000000)
  43:      1343.24    0.000000  (  0.000000   0.000000   0.000000)
  44:      1347.16    0.000000  (  0.000000   0.000000   0.000000)
  45:      1349.95    0.000000  (  0.000000   0.000000   0.000000)
  46:      1358.64    0.000000  (  0.000000   0.000000   0.000000)
  47:      1406.05    0.000000  (  0.000000   0.000000   0.000000)
  48:      1463.58    0.000000  (  0.000000   0.000000   0.000000)
  49:      1466.08    0.000000  (  0.000000   0.000000   0.000000)
  50:      1472.28    0.000000  (  0.000000   0.000000   0.000000)
  51:      1476.79    0.000000  (  0.000000   0.000000   0.000000)
  52:      1486.52    0.000000  (  0.000000   0.000000   0.000000)
  53:      1495.82    0.000000  (  0.000000   0.000000   0.000000)
  54:      1498.94    0.000000  (  0.000000   0.000000   0.000000)
  55:      2801.40    0.000000  (  0.000000   0.000000   0.000000)
  56:      2895.26    0.000000  (  0.000000   0.000000   0.000000)
  57:      2923.13    0.000000  (  0.000000   0.000000   0.000000)
  58:      2958.81    0.000000  (  0.000000   0.000000   0.000000)
  59:      2959.76    0.000000  (  0.000000   0.000000   0.000000)
  60:      2966.03    0.000000  (  0.000000   0.000000   0.000000)
  61:      2970.52    0.000000  (  0.000000   0.000000   0.000000)
  62:      2973.92    0.000000  (  0.000000   0.000000   0.000000)
  63:      2979.20    0.000000  (  0.000000   0.000000   0.000000)
  64:      2981.90    0.000000  (  0.000000   0.000000   0.000000)
  65:      2984.21    0.000000  (  0.000000   0.000000   0.000000)
  66:      2987.07    0.000000  (  0.000000   0.000000   0.000000)
  67:      2996.85    0.000000  (  0.000000   0.000000   0.000000)
  68:      3015.92    0.000000  (  0.000000   0.000000   0.000000)

The first frequency considered to be a vibration is 6
The total number of vibrations considered is 63


--------------------------
THERMOCHEMISTRY AT 298.15K
--------------------------

Temperature         ... 298.15 K
Pressure            ... 1.00 atm
Total Mass          ... 194.09 AMU

Throughout the following assumptions are being made:
  (1) The electronic state is orbitally nondegenerate
  (2) There are no thermally accessible electronically excited states
  (3) Hindered rotations indicated by low frequency modes are not
      treated as such but are treated as vibrations and this may
      cause some error
  (4) All equations used are the standard statistical mechanics
      equations for an ideal gas
  (5) All vibrations are strictly harmonic

freq.       7.33  E(vib)   ...       0.58 
freq.      17.99  E(vib)   ...       0.57 
freq.      38.31  E(vib)   ...       0.54 
freq.      74.87  E(vib)   ...       0.49 
freq.     134.79  E(vib)   ...       0.42 
freq.     167.00  E(vib)   ...       0.39 
freq.     224.14  E(vib)   ...       0.33 
freq.     287.98  E(vib)   ...       0.27 
freq.     309.50  E(vib)   ...       0.26 
freq.     371.48  E(vib)   ...       0.21 
freq.     394.76  E(vib)   ...       0.20 
freq.     480.30  E(vib)   ...       0.15 
freq.     493.86  E(vib)   ...       0.14 
freq.     651.19  E(vib)   ...       0.08 
freq.     807.29  E(vib)   ...       0.05 
freq.     843.30  E(vib)   ...       0.04 
freq.     866.40  E(vib)   ...       0.04 
freq.     912.07  E(vib)   ...       0.03 
freq.     935.67  E(vib)   ...       0.03 
freq.     950.01  E(vib)   ...       0.03 
freq.     962.37  E(vib)   ...       0.03 
freq.    1002.69  E(vib)   ...       0.02 
freq.    1070.04  E(vib)   ...       0.02 
freq.    1080.15  E(vib)   ...       0.02 
freq.    1093.55  E(vib)   ...       0.02 
freq.    1107.16  E(vib)   ...       0.02 
freq.    1126.93  E(vib)   ...       0.01 
freq.    1130.78  E(vib)   ...       0.01 
freq.    1144.43  E(vib)   ...       0.01 
freq.    1161.43  E(vib)   ...       0.01 
freq.    1186.62  E(vib)   ...       0.01 
freq.    1237.15  E(vib)   ...       0.01 
freq.    1243.09  E(vib)   ...       0.01 
freq.    1248.59  E(vib)   ...       0.01 
freq.    1305.93  E(vib)   ...       0.01 
freq.    1328.39  E(vib)   ...       0.01 
freq.    1332.69  E(vib)   ...       0.01 
freq.    1343.24  E(vib)   ...       0.01 
freq.    1347.16  E(vib)   ...       0.01 
freq.    1349.95  E(vib)   ...       0.01 
freq.    1358.64  E(vib)   ...       0.01 
freq.    1406.05  E(vib)   ...       0.00 
freq.    1463.58  E(vib)   ...       0.00 
freq.    1466.08  E(vib)   ...       0.00 
freq.    1472.28  E(vib)   ...       0.00 
freq.    1476.79  E(vib)   ...       0.00 
freq.    1486.52  E(vib)   ...       0.00 
freq.    1495.82  E(vib)   ...       0.00 
freq.    1498.94  E(vib)   ...       0.00 
freq.    2801.40  E(vib)   ...       0.00 
freq.    2895.26  E(vib)   ...       0.00 
freq.    2923.13  E(vib)   ...       0.00 
freq.    2958.81  E(vib)   ...       0.00 
freq.    2959.76  E(vib)   ...       0.00 
freq.    2966.03  E(vib)   ...       0.00 
freq.    2970.52  E(vib)   ...       0.00 
freq.    2973.92  E(vib)   ...       0.00 
freq.    2979.20  E(vib)   ...       0.00 
freq.    2981.90  E(vib)   ...       0.00 
freq.    2984.21  E(vib)   ...       0.00 
freq.    2987.07  E(vib)   ...       0.00 
freq.    2996.85  E(vib)   ...       0.00 
freq.    3015.92  E(vib)   ...       0.00 

------------
INNER ENERGY
------------

The inner energy is: U= E(el) + E(ZPE) + E(vib) + E(rot) + E(trans)
    E(el)   - is the total energy from the electronic structure calculation
              = E(kin-el) + E(nuc-el) + E(el-el) + E(nuc-nuc)
    E(ZPE)  - the the zero temperature vibrational energy from the frequency calculation
    E(vib)  - the the finite temperature correction to E(ZPE) due to population
              of excited vibrational states
    E(rot)  - is the rotational thermal energy
    E(trans)- is the translational thermal energy

Summary of contributions to the inner energy U:
Electronic energy                ...    -30.65656022 Eh
Zero point energy                ...      0.19885958 Eh     124.79 kcal/mol
Thermal vibrational correction   ...      0.00817032 Eh       5.13 kcal/mol
Thermal rotational correction    ...      0.00141627 Eh       0.89 kcal/mol
Thermal translational correction ...      0.00141627 Eh       0.89 kcal/mol
-----------------------------------------------------------------------
Total thermal energy                    -30.44669778 Eh


Summary of corrections to the electronic energy:
(perhaps to be used in another calculation)
Total thermal correction                  0.01100286 Eh       6.90 kcal/mol
Non-thermal (ZPE) correction              0.19885958 Eh     124.79 kcal/mol
-----------------------------------------------------------------------
Total correction                          0.20986244 Eh     131.69 kcal/mol


--------
ENTHALPY
--------

The enthalpy is H = U + kB*T
                kB is Boltzmann's constant
Total free energy                 ...    -30.44669778 Eh 
Thermal Enthalpy correction       ...      0.00094421 Eh       0.59 kcal/mol
-----------------------------------------------------------------------
Total Enthalpy                    ...    -30.44575357 Eh


Note: Only C1 symmetry has been detected, increase convergence thresholds 
      if your molecule has a higher symmetry. Symmetry factor of 1.0 is   
      used for the rotational entropy correction. 
 

Note: Rotational entropy computed according to Herzberg 
Infrared and Raman Spectra, Chapter V,1, Van Nostrand Reinhold, 1945 
Point Group:  C1, Symmetry Number:   1  
Rotational constants in cm-1:     0.062051     0.008639     0.008318 

Vibrational entropy computed according to the QRRHO of S. Grimme
Chem.Eur.J. 2012 18 9955


-------
ENTROPY
-------

The entropy contributions are T*S = T*(S(el)+S(vib)+S(rot)+S(trans))
     S(el)   - electronic entropy
     S(vib)  - vibrational entropy
     S(rot)  - rotational entropy
     S(trans)- translational entropy
The entropies will be listed as mutliplied by the temperature to get
units of energy

Electronic entropy                ...      0.00000000 Eh      0.00 kcal/mol
Vibrational entropy               ...      0.01571259 Eh      9.86 kcal/mol
Rotational entropy                ...      0.01532722 Eh      9.62 kcal/mol
Translational entropy             ...      0.01981043 Eh     12.43 kcal/mol
-----------------------------------------------------------------------
Final entropy term                ...      0.05085023 Eh     31.91 kcal/mol

In case the symmetry of your molecule has not been determined correctly
or in case you have a reason to use a different symmetry number we print 
out the resulting rotational entropy values for sn=1,12 :
 --------------------------------------------------------
|  sn= 1 | S(rot)=       0.01532722 Eh      9.62 kcal/mol|
|  sn= 2 | S(rot)=       0.01467276 Eh      9.21 kcal/mol|
|  sn= 3 | S(rot)=       0.01428993 Eh      8.97 kcal/mol|
|  sn= 4 | S(rot)=       0.01401830 Eh      8.80 kcal/mol|
|  sn= 5 | S(rot)=       0.01380761 Eh      8.66 kcal/mol|
|  sn= 6 | S(rot)=       0.01363547 Eh      8.56 kcal/mol|
|  sn= 7 | S(rot)=       0.01348992 Eh      8.47 kcal/mol|
|  sn= 8 | S(rot)=       0.01336385 Eh      8.39 kcal/mol|
|  sn= 9 | S(rot)=       0.01325264 Eh      8.32 kcal/mol|
|  sn=10 | S(rot)=       0.01315316 Eh      8.25 kcal/mol|
|  sn=11 | S(rot)=       0.01306317 Eh      8.20 kcal/mol|
|  sn=12 | S(rot)=       0.01298101 Eh      8.15 kcal/mol|
 --------------------------------------------------------


-------------------
GIBBS FREE ENERGY
-------------------

The Gibbs free energy is G = H - T*S

Total enthalpy                    ...    -30.44575357 Eh 
Total entropy correction          ...     -0.05085023 Eh    -31.91 kcal/mol
-----------------------------------------------------------------------
Final Gibbs free energy         ...    -30.49660380 Eh

For completeness - the Gibbs free energy minus the electronic energy
G-E(el)                           ...      0.15995642 Eh    100.37 kcal/mol


Total Time for Numerical Frequencies  :        51.126 sec

Timings for individual modules:

Sum of individual times         ...       11.179 sec (=   0.186 min)
Geometry relaxation             ...        7.736 sec (=   0.129 min)  69.2 %
XTB module                      ...        3.443 sec (=   0.057 min)  30.8 %
                             ****ORCA TERMINATED NORMALLY****
TOTAL RUN TIME: 0 days 0 hours 1 minutes 10 seconds 21 msec
