
                                 *****************
                                 * O   R   C   A *
                                 *****************

           --- An Ab Initio, DFT and Semiempirical electronic structure package ---

                  #######################################################
                  #                        -***-                        #
                  #          Department of theory and spectroscopy      #
                  #               Directorship: Frank Neese             #
                  #        Max Planck Institute fuer Kohlenforschung    #
                  #                Kaiser Wilhelm Platz 1               #
                  #                 D-45470 Muelheim/Ruhr               #
                  #                      Germany                        #
                  #                                                     #
                  #                  All rights reserved                #
                  #                        -***-                        #
                  #######################################################


                         Program Version 4.2.1 -  RELEASE  -


 With contributions from (in alphabetic order):
   Daniel Aravena         : Magnetic Suceptibility
   Michael Atanasov       : Ab Initio Ligand Field Theory (pilot matlab implementation)
   Alexander A. Auer      : GIAO ZORA, VPT2
   Ute Becker             : Parallelization
   Giovanni Bistoni       : ED, misc. LED, open-shell LED, HFLD
   Martin Brehm           : Molecular dynamics
   Dmytro Bykov           : SCF Hessian
   Vijay G. Chilkuri      : MRCI spin determinant printing, contributions to CSF-ICE
   Dipayan Datta          : RHF DLPNO-CCSD density
   Achintya Kumar Dutta   : EOM-CC, STEOM-CC
   Dmitry Ganyushin       : Spin-Orbit,Spin-Spin,Magnetic field MRCI
   Miquel Garcia          : C-PCM Hessian, Gaussian charge scheme
   Yang Guo               : DLPNO-NEVPT2, CIM, IAO-localization
   Andreas Hansen         : Spin unrestricted coupled pair/coupled cluster methods
   Benjamin Helmich-Paris : CASSCF linear response (MC-RPA)
   Lee Huntington         : MR-EOM, pCC
   Robert Izsak           : Overlap fitted RIJCOSX, COSX-SCS-MP3, EOM
   Christian Kollmar      : KDIIS, OOCD, Brueckner-CCSD(T), CCSD density
   Simone Kossmann        : Meta GGA functionals, TD-DFT gradient, OOMP2, MP2 Hessian
   Martin Krupicka        : AUTO-CI
   Lucas Lang             : DCDCAS
   Dagmar Lenk            : GEPOL surface, SMD
   Dimitrios Liakos       : Extrapolation schemes; Compound Job, initial MDCI parallelization
   Dimitrios Manganas     : Further ROCIS development; embedding schemes
   Dimitrios Pantazis     : SARC Basis sets
   Taras Petrenko         : DFT Hessian,TD-DFT gradient, ASA, ECA, R-Raman, ABS, FL, XAS/XES, NRVS
   Peter Pinski           : DLPNO-MP2, DLPNO-MP2 Gradient
   Christoph Reimann      : Effective Core Potentials
   Marius Retegan         : Local ZFS, SOC
   Christoph Riplinger    : Optimizer, TS searches, QM/MM, DLPNO-CCSD(T), (RO)-DLPNO pert. Triples
   Tobias Risthaus        : Range-separated hybrids, TD-DFT gradient, RPA, STAB
   Michael Roemelt        : Original ROCIS implementation
   Masaaki Saitow         : Open-shell DLPNO-CCSD energy and density
   Barbara Sandhoefer     : DKH picture change effects
   Avijit Sen             : IP-ROCIS
   Kantharuban Sivalingam : CASSCF convergence, NEVPT2, FIC-MRCI
   Bernardo de Souza      : ESD, SOC TD-DFT
   Georgi Stoychev        : AutoAux, RI-MP2 NMR
   Willem Van den Heuvel  : Paramagnetic NMR
   Boris Wezisla          : Elementary symmetry handling
   Frank Wennmohs         : Technical directorship


 We gratefully acknowledge several colleagues who have allowed us to
 interface, adapt or use parts of their codes:
   Stefan Grimme, W. Hujo, H. Kruse,             : VdW corrections, initial TS optimization,
                  C. Bannwarth                     DFT functionals, gCP, sTDA/sTD-DF
   Ed Valeev, F. Pavosevic, A. Kumar             : LibInt (2-el integral package), F12 methods
   Garnet Chan, S. Sharma, J. Yang, R. Olivares  : DMRG
   Ulf Ekstrom                                   : XCFun DFT Library
   Mihaly Kallay                                 : mrcc  (arbitrary order and MRCC methods)
   Andreas Klamt, Michael Diedenhofen            : otool_cosmo (COSMO solvation model)
   Jiri Pittner, Ondrej Demel                    : Mk-CCSD
   Frank Weinhold                                : gennbo (NPA and NBO analysis)
   Christopher J. Cramer and Donald G. Truhlar   : smd solvation model
   Lars Goerigk                                  : TD-DFT with DH, B97 family of functionals
   V. Asgeirsson, H. Jonsson                     : NEB implementation
   FAccTs GmbH                                   : IRC, NEB, NEB-TS, Multilevel, MM, QM/MM, CI optimization
   S Lehtola, MJT Oliveira, MAL Marques          : LibXC Library


 Your calculation uses the libint2 library for the computation of 2-el integrals
 For citations please refer to: http://libint.valeyev.net

 Your ORCA version has been built with support for libXC version: 4.2.3
 For citations please refer to: https://tddft.org/programs/libxc/

 This ORCA versions uses:
   CBLAS   interface :  Fast vector & matrix operations
   LAPACKE interface :  Fast linear algebra routines
   SCALAPACK package :  Parallel linear algebra routines




***************************************
The coordinates will be read from file: init.xyz
***************************************


Your calculation utilizes the SMD solvation module
Please cite in your paper:
A.V. Marenich, C.J. Cramer, D.G. Truhlar J. Phys. Chem. B, 113, (2009), 6378 

Your calculation utilizes the semiempirical GFN2-xTB method
Please cite in your paper:
C. Bannwarth, Ehlert S., S. Grimme,  J. Chem. Theory Comput., 15, (2019), 1652.
   

----- Orbital basis set information -----
Your calculation utilizes the basis: def2-SVP
   F. Weigend and R. Ahlrichs, Phys. Chem. Chem. Phys. 7, 3297 (2005).

================================================================================
                                        WARNINGS
                       Please study these warnings very carefully!
================================================================================

WARNING: Gradients needed for Numerical Frequencies
  ===> : Setting RunTyp to EnGrad

WARNING: The environment variable RSH_COMMAND is not set!
  ===> : All Displacements for the Numerical Hessian calculation
         will be started on localhost

WARNING: Found dipole moment calculation with XTB calculation
  ===> : Switching off dipole moment calculation


INFO   : the flag for use of LIBINT has been found!

================================================================================
                                       INPUT FILE
================================================================================
NAME = freq.inp
|  1> ! XTB2 NumFreq
|  2> %maxcore 1150
|  3> 
|  4> * xyzfile 0 1 init.xyz
|  5> 
|  6> %cpcm
|  7>  smd true
|  8>  smdsolvent "ch2cl2"
|  9> end
| 10> 
| 11> %pal
| 12>  nprocs 6
| 13> end
| 14> 
| 15>                          ****END OF INPUT****
================================================================================

                     *******************************
                     * Energy+Gradient Calculation *
                     *******************************

      -----------------------------------------------------------      
     |                   =====================                   |     
     |                           x T B                           |     
     |                   =====================                   |     
     |                         S. Grimme                         |     
     |          Mulliken Center for Theoretical Chemistry        |     
     |                    University of Bonn                     |     
      -----------------------------------------------------------      

   * xtb version 6.3.2 (30e43eb) compiled by 'schneider@apollo14' on 2020-08-08

   xtb is free software: you can redistribute it and/or modify it under
   the terms of the GNU Lesser General Public License as published by
   the Free Software Foundation, either version 3 of the License, or
   (at your option) any later version.
   
   xtb is distributed in the hope that it will be useful,
   but WITHOUT ANY WARRANTY; without even the implied warranty of
   MERCHANTABILITY or FITNESS FOR A PARTICULAR PURPOSE.  See the
   GNU Lesser General Public License for more details.
   
   Cite this work as:
   * S. Grimme, C. Bannwarth, P. Shushkov, J. Chem. Theory Comput., 2017,
     13, 1989-2009. DOI: 10.1021/acs.jctc.7b00118
   * C. Bannwarth, S. Ehlert and S. Grimme., J. Chem. Theory Comput., 2019,
     15, 1652-1671. DOI: 10.1021/acs.jctc.8b01176
   * P. Pracht, E. Caldeweyher, S. Ehlert, S. Grimme, ChemRxiv, 2019, preprint.
     DOI: 10.26434/chemrxiv.8326202.v1
   
   for GFN-FF:
   * S. Spicher and S. Grimme, Angew. Chem. Int. Ed., 2020,
     DOI: 10.1002/anie.202004239
   
   for DFT-D4:
   * E. Caldeweyher, C. Bannwarth and S. Grimme, J. Chem. Phys., 2017,
     147, 034112. DOI: 10.1063/1.4993215
   * E. Caldeweyher, S. Ehlert, A. Hansen, H. Neugebauer, S. Spicher,
     C. Bannwarth and S. Grimme, J. Chem. Phys., 2019, 150, 154122.
     DOI: 10.1063/1.5090222
   
   for sTDA-xTB:
   * S. Grimme and C. Bannwarth, J. Chem. Phys., 2016, 145, 054103.
     DOI: 10.1063/1.4959605
   
   in the mass-spec context:
   * V. Asgeirsson, C. Bauer and S. Grimme, Chem. Sci., 2017, 8, 4879.
     DOI: 10.1039/c7sc00601b
   * J. Koopman and S. Grimme, ACS Omega 2019, 4, 12, 15120-15133.
     DOI: 10.1021/acsomega.9b02011
   
   for metadynamics refer to:
   * S. Grimme, J. Chem. Theory Comput., 2019, 155, 2847-2862
     DOI: 10.1021/acs.jctc.9b00143
   
   with help from (in alphabetical order)
   C. Bannwarth, F. Bohle, G. Brandenburg, E. Caldeweyher, M. Checinski,
   S. Dohm, S. Ehlert, S. Ehrlich, F. März, H. Neugebauer, J. Pisarek,
   P. Pracht, P. Shushkov, and S. Spicher.
   
 * started run on 2020/12/17 at 20:08:34.114     

           -------------------------------------------------
          |                Calculation Setup                |
           -------------------------------------------------

          program call               : /opt/orca/otool_xtb freq_XTB.xyz --grad -c 0 -u 0 -P 6 --namespace freq --gbsa CH2Cl2
          calculation namespace      : freq
          coordinate file            : freq_XTB.xyz
          omp threads                :                     6
          number of atoms            :                    30
          number of electrons        :                    72
          charge                     :                     0
          spin                       :                   0.0
          first test random number   :      0.00415688540137

   ID    Z sym.   atoms
    1    6 C      1-6, 11, 16, 19, 24, 27
    2    1 H      7-9, 12-15, 17, 20-23, 25, 26, 28-30
    3    7 N      10
    4    8 O      18

molecular fragmentation (1/2 indicates fragments):
111111111111112112111111111111
# atoms in fragment 1/2:    28     2
 fragment masses (1/2) :      162.25       17.01
CMA distance (Bohr)    :   3.813
constraining FC (au)   :  0.0500
########################################################################
[WARNING] Please study the warnings concerning your input carefully
-1- prog_main_parseArguments: Process number higher than OMP_NUM_THREADS, I hope you know what you are doing.
########################################################################

           -------------------------------------------------
          |                 G F N 2 - x T B                 |
           -------------------------------------------------

        Reference                      10.1021/acs.jctc.8b01176
      * Hamiltonian:
        H0-scaling (s, p, d)           1.850000    2.230000    2.230000
        zeta-weighting                 0.500000
      * Dispersion:
        s8                             2.700000
        a1                             0.520000
        a2                             5.000000
        s9                             5.000000
      * Repulsion:
        kExp                           1.500000    1.000000
        rExp                           1.000000
      * Coulomb:
        alpha                          2.000000
        third order                    shell-resolved
        anisotropic                    true
        a3                             3.000000
        a5                             4.000000
        cn-shift                       1.200000
        cn-exp                         4.000000
        max-rad                        5.000000

      * Solvation model:               GBSA
        Solvent                        CH2Cl2
        Parameter file                 internal GFN2-xTB/GBSA
        Dielectric constant                8.9300E+00
        Reference state                gsolv [1 M gas/solution]
        Free energy shift                  4.4408E-03 Eh       2.7867E+00 kcal/mol
        Temperature                        2.9815E+02 K
        Density                            1.3300E+00 kg/L
        Solvent mass                       8.4930E+01 g/mol
        Interaction kernel             Still
        Born radius scaling (c1)           1.4917E+00
        Born radii integrator          GBOBC
        Born offset                        0.0000E+00 a0       0.0000E+00 AA
        H-bond correction              false
        Ion screening                  false
        Surface tension                    1.0000E-05 Eh       1.5569E+01 dyn/cm
        Grid points                               230 per atom

          ...................................................
          :                      SETUP                      :
          :.................................................:
          :  # basis functions                  69          :
          :  # atomic orbitals                  69          :
          :  # shells                           43          :
          :  # electrons                        72          :
          :  max. iterations                   250          :
          :  Hamiltonian                  GFN2-xTB          :
          :  restarted?                      false          :
          :  GBSA solvation                   true          :
          :  PC potential                    false          :
          :  electronic temp.          300.0000000     K    :
          :  accuracy                    1.0000000          :
          :  -> integral cutoff          0.2500000E+02      :
          :  -> integral neglect         0.1000000E-07      :
          :  -> SCF convergence          0.1000000E-05 Eh   :
          :  -> wf. convergence          0.1000000E-03 e    :
          :  Broyden damping             0.4000000          :
          ...................................................

 iter      E             dE          RMSdq      gap      omega  full diag
   1    -39.5618224 -0.395618E+02  0.424E+00    3.18       0.0  T
   2    -39.6699227 -0.108100E+00  0.254E+00    1.46       1.0  T
   3    -39.2611454  0.408777E+00  0.374E+00    0.18       1.0  T
   4    -39.6637160 -0.402571E+00  0.160E+00    2.12       1.0  T
   5    -39.6748263 -0.111103E-01  0.836E-01    1.63       1.0  T
   6    -39.6806819 -0.585559E-02  0.622E-01    1.31       1.0  T
   7    -39.6867644 -0.608249E-02  0.343E-01    1.02       1.0  T
   8    -39.6897312 -0.296679E-02  0.567E-02    0.80       1.0  T
   9    -39.6897272  0.394962E-05  0.282E-02    0.79       1.0  T
  10    -39.6897387 -0.114910E-04  0.919E-03    0.80       2.0  T
  11    -39.6897399 -0.124061E-05  0.398E-03    0.80       4.6  T
  12    -39.6897395  0.454728E-06  0.465E-03    0.80       3.9  T
  13    -39.6897400 -0.540718E-06  0.147E-03    0.80      12.4  T
  14    -39.6897401 -0.473225E-07  0.244E-04    0.80      74.7  T
  15    -39.6897401  0.122852E-08  0.239E-04    0.80      76.4  T

   *** convergence criteria satisfied after 15 iterations ***

         #    Occupation            Energy/Eh            Energy/eV
      -------------------------------------------------------------
         1        2.0000           -0.6818099             -18.5530
       ...           ...                  ...                  ...
        30        2.0000           -0.4367901             -11.8857
        31        2.0000           -0.4328327             -11.7780
        32        2.0000           -0.4254261             -11.5764
        33        2.0000           -0.4140622             -11.2672
        34        2.0000           -0.4115613             -11.1992
        35        2.0000           -0.3358453              -9.1388
        36        2.0000           -0.3328338              -9.0569 (HOMO)
        37        0.0000           -0.3033299              -8.2540 (LUMO)
        38                         -0.2358918              -6.4189
        39                         -0.2089662              -5.6863
        40                         -0.1023599              -2.7854
        41                         -0.0284095              -0.7731
       ...                                ...                  ...
        69                          0.6202783              16.8786
      -------------------------------------------------------------
                  HL-Gap            0.0295039 Eh            0.8028 eV
             Fermi-level           -0.3180623 Eh           -8.6549 eV

 SCC (total)                   0 d,  0 h,  0 min,  1.696 sec
 SCC setup                      ...        0 min,  0.004 sec (  0.215%)
 Dispersion                     ...        0 min,  0.000 sec (  0.017%)
 classical contributions        ...        0 min,  0.000 sec (  0.003%)
 integral evaluation            ...        0 min,  0.010 sec (  0.597%)
 iterations                     ...        0 min,  1.577 sec ( 92.977%)
 molecular gradient             ...        0 min,  0.085 sec (  5.015%)
 printout                       ...        0 min,  0.020 sec (  1.174%)

         :::::::::::::::::::::::::::::::::::::::::::::::::::::
         ::                     SUMMARY                     ::
         :::::::::::::::::::::::::::::::::::::::::::::::::::::
         :: total energy             -39.127404522068 Eh    ::
         :: total w/o Gsasa/hb       -39.111198638132 Eh    ::
         :: gradient norm              0.040928852833 Eh/a0 ::
         :: HOMO-LUMO gap              0.802840884039 eV    ::
         ::.................................................::
         :: SCC energy               -39.689740064766 Eh    ::
         :: -> isotropic ES            0.130494295740 Eh    ::
         :: -> anisotropic ES         -0.011928196781 Eh    ::
         :: -> anisotropic XC          0.024802114476 Eh    ::
         :: -> dispersion             -0.023256920823 Eh    ::
         :: -> Gsolv                  -0.041554799679 Eh    ::
         ::    -> Gborn               -0.025348915744 Eh    ::
         ::    -> Gsasa               -0.020646713109 Eh    ::
         ::    -> Ghb                  0.000000000000 Eh    ::
         ::    -> Gshift               0.004440829173 Eh    ::
         :: repulsion energy           0.562396650292 Eh    ::
         :: add. restraining           0.000000000000 Eh    ::
         :: total charge               0.000000000002 e     ::
         :::::::::::::::::::::::::::::::::::::::::::::::::::::

           -------------------------------------------------
          |                Property Printout                |
           -------------------------------------------------

    * Orbital Energies and Occupations

         #    Occupation            Energy/Eh            Energy/eV
      -------------------------------------------------------------
         1        2.0000           -0.6818099             -18.5530
       ...           ...                  ...                  ...
        24        2.0000           -0.4739129             -12.8958
        25        2.0000           -0.4723281             -12.8527
        26        2.0000           -0.4511616             -12.2767
        27        2.0000           -0.4496294             -12.2350
        28        2.0000           -0.4408739             -11.9968
        29        2.0000           -0.4386239             -11.9356
        30        2.0000           -0.4367901             -11.8857
        31        2.0000           -0.4328327             -11.7780
        32        2.0000           -0.4254261             -11.5764
        33        2.0000           -0.4140622             -11.2672
        34        2.0000           -0.4115613             -11.1992
        35        2.0000           -0.3358453              -9.1388
        36        2.0000           -0.3328338              -9.0569 (HOMO)
        37        0.0000           -0.3033299              -8.2540 (LUMO)
        38                         -0.2358918              -6.4189
        39                         -0.2089662              -5.6863
        40                         -0.1023599              -2.7854
        41                         -0.0284095              -0.7731
        42                          0.0501036               1.3634
        43                          0.0768656               2.0916
        44                          0.0888124               2.4167
        45                          0.1050164               2.8576
        46                          0.1105607               3.0085
        47                          0.1152282               3.1355
       ...                                ...                  ...
        69                          0.6202783              16.8786
      -------------------------------------------------------------
                  HL-Gap            0.0295039 Eh            0.8028 eV
             Fermi-level           -0.3180623 Eh           -8.6549 eV

     #   Z          covCN         q      C6AA      α(0)
     1   6 C        2.906    -0.025    28.630     8.774
     2   6 C        2.916    -0.027    28.666     8.780
     3   6 C        2.963     0.025    27.444     8.593
     4   6 C        2.910    -0.018    28.451     8.746
     5   6 C        2.907    -0.026    28.641     8.775
     6   6 C        2.909    -0.022    28.559     8.763
     7   1 H        0.925     0.050     2.320     2.382
     8   1 H        0.925     0.046     2.373     2.409
     9   1 H        0.925     0.050     2.322     2.383
    10   7 N        2.680    -0.038    21.977     6.963
    11   6 C        3.737    -0.014    20.916     6.526
    12   1 H        0.924     0.075     2.031     2.229
    13   1 H        0.923     0.081     1.971     2.196
    14   1 H        0.859     0.231     0.961     1.535
    15   1 H        0.803     0.137     1.508     1.929
    16   6 C        2.834     0.079    26.222     8.391
    17   1 H        0.924     0.086     1.922     2.168
    18   8 O        0.803    -0.862    33.572     7.767
    19   6 C        3.797    -0.060    21.649     6.625
    20   1 H        0.924     0.054     2.266     2.354
    21   1 H        0.923     0.044     2.394     2.420
    22   1 H        0.925     0.050     2.317     2.381
    23   1 H        0.925     0.048     2.347     2.396
    24   6 C        3.796    -0.055    21.561     6.612
    25   1 H        0.923     0.042     2.422     2.434
    26   1 H        0.923     0.039     2.456     2.451
    27   6 C        3.746    -0.101    22.504     6.767
    28   1 H        0.923     0.040     2.447     2.447
    29   1 H        0.923     0.035     2.513     2.479
    30   1 H        0.923     0.033     2.539     2.492

 Mol. C6AA /au·bohr⁶  :       8280.914425
 Mol. C8AA /au·bohr⁸  :     188093.582902
 Mol. α(0) /au        :        141.164490


Wiberg/Mayer (AO) data.
largest (>0.10) Wiberg bond orders for each atom

 ---------------------------------------------------------------------------
     #   Z sym  total        # sym  WBO       # sym  WBO       # sym  WBO
 ---------------------------------------------------------------------------
     1   6 C    3.990 --     2 C    1.462     6 C    1.429    22 H    0.969
                             4 C    0.100
     2   6 C    3.985 --     1 C    1.462     3 C    1.339     7 H    0.968
     3   6 C    3.985 --     2 C    1.339     4 C    1.327    16 C    1.155
     4   6 C    3.990 --     5 C    1.483     3 C    1.327     8 H    0.965
                             1 C    0.100
     5   6 C    3.990 --     4 C    1.483     6 C    1.407    23 H    0.970
     6   6 C    3.987 --     1 C    1.429     5 C    1.407     9 H    0.970
     7   1 H    0.997 --     2 C    0.968
     8   1 H    0.998 --     4 C    0.965
     9   1 H    0.997 --     6 C    0.970
    10   7 N    3.624 --    16 C    1.529    11 C    0.982    14 H    0.885
                            18 O    0.108
    11   6 C    3.950 --    19 C    0.990    10 N    0.982    12 H    0.968
                            13 H    0.958
    12   1 H    0.994 --    11 C    0.968
    13   1 H    0.991 --    11 C    0.958
    14   1 H    0.947 --    10 N    0.885
    15   1 H    0.981 --    18 O    0.977
    16   6 C    3.944 --    10 N    1.529     3 C    1.155    17 H    0.950
                            18 O    0.199
    17   1 H    0.992 --    16 C    0.950
    18   8 O    1.463 --    15 H    0.977    16 C    0.199    10 N    0.108
    19   6 C    3.986 --    24 C    1.003    11 C    0.990    21 H    0.975
                            20 H    0.974
    20   1 H    0.997 --    19 C    0.974
    21   1 H    0.998 --    19 C    0.975
    22   1 H    0.997 --     1 C    0.969
    23   1 H    0.997 --     5 C    0.970
    24   6 C    3.994 --    27 C    1.018    19 C    1.003    26 H    0.978
                            25 H    0.977
    25   1 H    0.998 --    24 C    0.977
    26   1 H    0.998 --    24 C    0.978
    27   6 C    3.994 --    24 C    1.018    30 H    0.988    29 H    0.988
                            28 H    0.986
    28   1 H    0.998 --    27 C    0.986
    29   1 H    0.999 --    27 C    0.988
    30   1 H    0.999 --    27 C    0.988
 ---------------------------------------------------------------------------

Topologies differ in total number of bonds
Writing topology from bond orders to xtbtopo.mol

molecular dipole:
                 x           y           z       tot (Debye)
 q only:       -0.167       1.645      -2.301
   full:       -0.017       1.368      -1.970       6.097
molecular quadrupole (traceless):
                xx          xy          yy          xz          yz          zz
 q only:        9.334      -3.288      -4.296       6.427      -3.221      -5.038
  q+dip:        7.608      -3.896      -0.771       7.368       0.873      -6.837
   full:        6.682      -3.543      -1.793       6.737      -1.653      -4.889


           -------------------------------------------------
          | TOTAL ENERGY              -39.127404522068 Eh   |
          | GRADIENT NORM               0.040928852833 Eh/α |
          | HOMO-LUMO GAP               0.802840884039 eV   |
           -------------------------------------------------

------------------------------------------------------------------------
 * finished run on 2020/12/17 at 20:08:35.948     
------------------------------------------------------------------------
 total:
 * wall-time:     0 d,  0 h,  0 min,  1.834 sec
 *  cpu-time:     0 d,  0 h,  0 min,  9.309 sec
 * ratio c/w:     5.075 speedup
 SCF:
 * wall-time:     0 d,  0 h,  0 min,  1.709 sec
 *  cpu-time:     0 d,  0 h,  0 min,  8.759 sec
 * ratio c/w:     5.126 speedup


-------------------------   --------------------
FINAL SINGLE POINT ENERGY       -39.127404522070
-------------------------   --------------------


----------------------------------------------------------------------------
                           ORCA NUMERICAL FREQUENCIES
                              (6-process run)
----------------------------------------------------------------------------

Number of atoms                ... 30
Central differences            ... used
Number of displacements        ... 180
Numerical increment            ... 5.000e-03 bohr
IR-spectrum generation         ... on
Raman-spectrum generation      ... off
Surface Crossing Hessian       ... off
List of participating nodes    ...  freq.hostnames

The output will be reduced. Please look at the following files:
SCF program output             ... >freq.lastscf
Integral program output        ... >freq.lastint
Gradient program output        ... >freq.lastgrad
Dipole moment program output   ... >freq.lastmom
AutoCI program output          ... >freq.lastautoci


         <<< Energy and Gradient at the input geometry >>>

        <<< Energy and Gradient at displaced geometries >>>
             <<<Displacing   1/coordinate 2 (+)>>>
             <<<Displacing   2/coordinate 1 (+)>>>
             <<<Displacing   2/coordinate 2 (+)>>>
             <<<Displacing   2/coordinate 3 (+)>>>
             <<<Displacing   1/coordinate 1 (+)>>>
             <<<Displacing   1/coordinate 3 (+)>>>
             <<<Displacing   1/coordinate 2 (-)>>>
             <<<Displacing   1/coordinate 1 (-)>>>
             <<<Displacing   2/coordinate 1 (-)>>>
             <<<Displacing   1/coordinate 3 (-)>>>
             <<<Displacing   2/coordinate 3 (-)>>>
             <<<Displacing   2/coordinate 2 (-)>>>
             <<<Displacing   4/coordinate 1 (+)>>>
             <<<Displacing   3/coordinate 3 (+)>>>
             <<<Displacing   3/coordinate 1 (+)>>>
             <<<Displacing   4/coordinate 2 (+)>>>
             <<<Displacing   4/coordinate 3 (+)>>>
             <<<Displacing   3/coordinate 2 (+)>>>
             <<<Displacing   4/coordinate 1 (-)>>>
             <<<Displacing   3/coordinate 3 (-)>>>
             <<<Displacing   3/coordinate 1 (-)>>>
             <<<Displacing   3/coordinate 2 (-)>>>
             <<<Displacing   4/coordinate 2 (-)>>>
             <<<Displacing   4/coordinate 3 (-)>>>
             <<<Displacing   5/coordinate 3 (+)>>>
             <<<Displacing   5/coordinate 1 (+)>>>
             <<<Displacing   5/coordinate 2 (+)>>>
             <<<Displacing   5/coordinate 3 (-)>>>
             <<<Displacing   5/coordinate 1 (-)>>>
             <<<Displacing   6/coordinate 3 (+)>>>
             <<<Displacing   6/coordinate 2 (+)>>>
             <<<Displacing   5/coordinate 2 (-)>>>
             <<<Displacing   6/coordinate 3 (-)>>>
             <<<Displacing   6/coordinate 1 (+)>>>
             <<<Displacing   6/coordinate 2 (-)>>>
             <<<Displacing   6/coordinate 1 (-)>>>
             <<<Displacing   7/coordinate 3 (+)>>>
             <<<Displacing   8/coordinate 1 (+)>>>
             <<<Displacing   7/coordinate 3 (-)>>>
             <<<Displacing   7/coordinate 1 (+)>>>
             <<<Displacing   7/coordinate 2 (+)>>>
             <<<Displacing   8/coordinate 2 (+)>>>
             <<<Displacing   8/coordinate 1 (-)>>>
             <<<Displacing   7/coordinate 1 (-)>>>
             <<<Displacing   7/coordinate 2 (-)>>>
             <<<Displacing   8/coordinate 2 (-)>>>
             <<<Displacing   8/coordinate 3 (+)>>>
             <<<Displacing   8/coordinate 3 (-)>>>
             <<<Displacing   9/coordinate 3 (+)>>>
             <<<Displacing   9/coordinate 1 (+)>>>
             <<<Displacing   9/coordinate 2 (+)>>>
             <<<Displacing   9/coordinate 3 (-)>>>
             <<<Displacing   9/coordinate 2 (-)>>>
             <<<Displacing   9/coordinate 1 (-)>>>
             <<<Displacing  10/coordinate 1 (+)>>>
             <<<Displacing  10/coordinate 2 (+)>>>
             <<<Displacing  10/coordinate 2 (-)>>>
             <<<Displacing  10/coordinate 1 (-)>>>
             <<<Displacing  10/coordinate 3 (+)>>>
             <<<Displacing  10/coordinate 3 (-)>>>
             <<<Displacing  11/coordinate 1 (+)>>>
             <<<Displacing  11/coordinate 3 (+)>>>
             <<<Displacing  11/coordinate 1 (-)>>>
             <<<Displacing  12/coordinate 1 (+)>>>
             <<<Displacing  11/coordinate 2 (+)>>>
             <<<Displacing  11/coordinate 3 (-)>>>
             <<<Displacing  12/coordinate 1 (-)>>>
             <<<Displacing  12/coordinate 2 (+)>>>
             <<<Displacing  11/coordinate 2 (-)>>>
             <<<Displacing  12/coordinate 2 (-)>>>
             <<<Displacing  12/coordinate 3 (+)>>>
             <<<Displacing  12/coordinate 3 (-)>>>
             <<<Displacing  13/coordinate 1 (+)>>>
             <<<Displacing  13/coordinate 2 (+)>>>
             <<<Displacing  13/coordinate 1 (-)>>>
             <<<Displacing  13/coordinate 2 (-)>>>
             <<<Displacing  13/coordinate 3 (+)>>>
             <<<Displacing  14/coordinate 2 (+)>>>
             <<<Displacing  14/coordinate 1 (+)>>>
             <<<Displacing  13/coordinate 3 (-)>>>
             <<<Displacing  14/coordinate 2 (-)>>>
             <<<Displacing  14/coordinate 1 (-)>>>
             <<<Displacing  14/coordinate 3 (+)>>>
             <<<Displacing  14/coordinate 3 (-)>>>
             <<<Displacing  15/coordinate 1 (+)>>>
             <<<Displacing  15/coordinate 2 (+)>>>
             <<<Displacing  15/coordinate 1 (-)>>>
             <<<Displacing  15/coordinate 2 (-)>>>
             <<<Displacing  15/coordinate 3 (+)>>>
             <<<Displacing  16/coordinate 1 (+)>>>
             <<<Displacing  16/coordinate 2 (+)>>>
             <<<Displacing  15/coordinate 3 (-)>>>
             <<<Displacing  16/coordinate 1 (-)>>>
             <<<Displacing  16/coordinate 2 (-)>>>
             <<<Displacing  16/coordinate 3 (+)>>>
             <<<Displacing  17/coordinate 1 (+)>>>
             <<<Displacing  16/coordinate 3 (-)>>>
             <<<Displacing  17/coordinate 1 (-)>>>
             <<<Displacing  18/coordinate 1 (+)>>>
             <<<Displacing  17/coordinate 2 (+)>>>
             <<<Displacing  18/coordinate 1 (-)>>>
             <<<Displacing  17/coordinate 2 (-)>>>
             <<<Displacing  17/coordinate 3 (+)>>>
             <<<Displacing  18/coordinate 2 (+)>>>
             <<<Displacing  17/coordinate 3 (-)>>>
             <<<Displacing  18/coordinate 2 (-)>>>
             <<<Displacing  18/coordinate 3 (+)>>>
             <<<Displacing  18/coordinate 3 (-)>>>
             <<<Displacing  19/coordinate 2 (+)>>>
             <<<Displacing  19/coordinate 3 (+)>>>
             <<<Displacing  19/coordinate 1 (+)>>>
             <<<Displacing  19/coordinate 2 (-)>>>
             <<<Displacing  19/coordinate 3 (-)>>>
             <<<Displacing  19/coordinate 1 (-)>>>
             <<<Displacing  20/coordinate 1 (+)>>>
             <<<Displacing  20/coordinate 2 (+)>>>
             <<<Displacing  20/coordinate 1 (-)>>>
             <<<Displacing  20/coordinate 2 (-)>>>
             <<<Displacing  21/coordinate 2 (+)>>>
             <<<Displacing  21/coordinate 1 (+)>>>
             <<<Displacing  20/coordinate 3 (+)>>>
             <<<Displacing  21/coordinate 2 (-)>>>
             <<<Displacing  21/coordinate 1 (-)>>>
             <<<Displacing  20/coordinate 3 (-)>>>
             <<<Displacing  21/coordinate 3 (+)>>>
             <<<Displacing  21/coordinate 3 (-)>>>
             <<<Displacing  22/coordinate 2 (+)>>>
             <<<Displacing  22/coordinate 1 (+)>>>
             <<<Displacing  22/coordinate 2 (-)>>>
             <<<Displacing  22/coordinate 1 (-)>>>
             <<<Displacing  22/coordinate 3 (+)>>>
             <<<Displacing  23/coordinate 1 (+)>>>
             <<<Displacing  23/coordinate 2 (+)>>>
             <<<Displacing  22/coordinate 3 (-)>>>
             <<<Displacing  23/coordinate 1 (-)>>>
             <<<Displacing  23/coordinate 2 (-)>>>
             <<<Displacing  23/coordinate 3 (+)>>>
             <<<Displacing  24/coordinate 1 (+)>>>
             <<<Displacing  24/coordinate 1 (-)>>>
             <<<Displacing  23/coordinate 3 (-)>>>
             <<<Displacing  24/coordinate 2 (+)>>>
             <<<Displacing  24/coordinate 2 (-)>>>
             <<<Displacing  25/coordinate 2 (+)>>>
             <<<Displacing  25/coordinate 1 (+)>>>
             <<<Displacing  25/coordinate 2 (-)>>>
             <<<Displacing  24/coordinate 3 (+)>>>
             <<<Displacing  25/coordinate 1 (-)>>>
             <<<Displacing  24/coordinate 3 (-)>>>
             <<<Displacing  25/coordinate 3 (+)>>>
             <<<Displacing  26/coordinate 1 (+)>>>
             <<<Displacing  26/coordinate 2 (+)>>>
             <<<Displacing  26/coordinate 1 (-)>>>
             <<<Displacing  26/coordinate 2 (-)>>>
             <<<Displacing  25/coordinate 3 (-)>>>
             <<<Displacing  26/coordinate 3 (+)>>>
             <<<Displacing  26/coordinate 3 (-)>>>
             <<<Displacing  27/coordinate 2 (+)>>>
             <<<Displacing  27/coordinate 1 (+)>>>
             <<<Displacing  27/coordinate 2 (-)>>>
             <<<Displacing  27/coordinate 1 (-)>>>
             <<<Displacing  27/coordinate 3 (+)>>>
             <<<Displacing  28/coordinate 2 (+)>>>
             <<<Displacing  28/coordinate 1 (+)>>>
             <<<Displacing  27/coordinate 3 (-)>>>
             <<<Displacing  28/coordinate 2 (-)>>>
             <<<Displacing  28/coordinate 1 (-)>>>
             <<<Displacing  28/coordinate 3 (+)>>>
             <<<Displacing  29/coordinate 1 (+)>>>
             <<<Displacing  28/coordinate 3 (-)>>>
             <<<Displacing  29/coordinate 1 (-)>>>
             <<<Displacing  29/coordinate 2 (+)>>>
             <<<Displacing  29/coordinate 2 (-)>>>
             <<<Displacing  29/coordinate 3 (+)>>>
             <<<Displacing  29/coordinate 3 (-)>>>
             <<<Displacing  30/coordinate 1 (+)>>>
             <<<Displacing  30/coordinate 2 (+)>>>
             <<<Displacing  30/coordinate 2 (-)>>>
             <<<Displacing  30/coordinate 1 (-)>>>
             <<<Displacing  30/coordinate 3 (+)>>>
             <<<Displacing  30/coordinate 3 (-)>>>

-----------------------
VIBRATIONAL FREQUENCIES
-----------------------

Scaling factor for frequencies =  1.000000000 (already applied!)

   0:         0.00 cm**-1
   1:         0.00 cm**-1
   2:         0.00 cm**-1
   3:         0.00 cm**-1
   4:         0.00 cm**-1
   5:         0.00 cm**-1
   6:      -271.68 cm**-1 ***imaginary mode***
   7:        70.31 cm**-1
   8:        82.13 cm**-1
   9:        97.52 cm**-1
  10:       118.22 cm**-1
  11:       148.42 cm**-1
  12:       156.56 cm**-1
  13:       171.47 cm**-1
  14:       185.73 cm**-1
  15:       213.44 cm**-1
  16:       263.23 cm**-1
  17:       277.22 cm**-1
  18:       350.83 cm**-1
  19:       389.09 cm**-1
  20:       402.81 cm**-1
  21:       416.41 cm**-1
  22:       455.49 cm**-1
  23:       496.98 cm**-1
  24:       509.66 cm**-1
  25:       586.48 cm**-1
  26:       598.34 cm**-1
  27:       610.61 cm**-1
  28:       655.76 cm**-1
  29:       670.95 cm**-1
  30:       780.19 cm**-1
  31:       795.20 cm**-1
  32:       831.93 cm**-1
  33:       859.42 cm**-1
  34:       878.47 cm**-1
  35:       903.98 cm**-1
  36:       921.77 cm**-1
  37:       941.41 cm**-1
  38:       947.72 cm**-1
  39:       953.14 cm**-1
  40:       956.61 cm**-1
  41:       971.09 cm**-1
  42:      1014.03 cm**-1
  43:      1039.47 cm**-1
  44:      1056.11 cm**-1
  45:      1076.04 cm**-1
  46:      1111.09 cm**-1
  47:      1121.04 cm**-1
  48:      1129.13 cm**-1
  49:      1182.80 cm**-1
  50:      1185.35 cm**-1
  51:      1207.11 cm**-1
  52:      1213.74 cm**-1
  53:      1248.87 cm**-1
  54:      1258.14 cm**-1
  55:      1265.00 cm**-1
  56:      1276.81 cm**-1
  57:      1283.66 cm**-1
  58:      1297.68 cm**-1
  59:      1331.47 cm**-1
  60:      1336.21 cm**-1
  61:      1367.91 cm**-1
  62:      1404.39 cm**-1
  63:      1434.67 cm**-1
  64:      1435.06 cm**-1
  65:      1462.48 cm**-1
  66:      1505.48 cm**-1
  67:      1506.91 cm**-1
  68:      1510.66 cm**-1
  69:      1515.66 cm**-1
  70:      1518.26 cm**-1
  71:      1521.85 cm**-1
  72:      1565.31 cm**-1
  73:      2873.75 cm**-1
  74:      2893.92 cm**-1
  75:      2897.34 cm**-1
  76:      2904.23 cm**-1
  77:      2915.78 cm**-1
  78:      2919.72 cm**-1
  79:      2932.42 cm**-1
  80:      2936.29 cm**-1
  81:      2942.96 cm**-1
  82:      2971.14 cm**-1
  83:      2986.48 cm**-1
  84:      2990.91 cm**-1
  85:      2996.43 cm**-1
  86:      3004.26 cm**-1
  87:      3011.99 cm**-1
  88:      3137.56 cm**-1
  89:      3430.45 cm**-1


------------
NORMAL MODES
------------

These modes are the cartesian displacements weighted by the diagonal matrix
M(i,i)=1/sqrt(m[i]) where m[i] is the mass of the displaced atom
Thus, these vectors are normalized but *not* orthogonal

                  0          1          2          3          4          5    
      0       0.000000   0.000000   0.000000   0.000000   0.000000   0.000000
      1       0.000000   0.000000   0.000000   0.000000   0.000000   0.000000
      2       0.000000   0.000000   0.000000   0.000000   0.000000   0.000000
      3       0.000000   0.000000   0.000000   0.000000   0.000000   0.000000
      4       0.000000   0.000000   0.000000   0.000000   0.000000   0.000000
      5       0.000000   0.000000   0.000000   0.000000   0.000000   0.000000
      6       0.000000   0.000000   0.000000   0.000000   0.000000   0.000000
      7       0.000000   0.000000   0.000000   0.000000   0.000000   0.000000
      8       0.000000   0.000000   0.000000   0.000000   0.000000   0.000000
      9       0.000000   0.000000   0.000000   0.000000   0.000000   0.000000
     10       0.000000   0.000000   0.000000   0.000000   0.000000   0.000000
     11       0.000000   0.000000   0.000000   0.000000   0.000000   0.000000
     12       0.000000   0.000000   0.000000   0.000000   0.000000   0.000000
     13       0.000000   0.000000   0.000000   0.000000   0.000000   0.000000
     14       0.000000   0.000000   0.000000   0.000000   0.000000   0.000000
     15       0.000000   0.000000   0.000000   0.000000   0.000000   0.000000
     16       0.000000   0.000000   0.000000   0.000000   0.000000   0.000000
     17       0.000000   0.000000   0.000000   0.000000   0.000000   0.000000
     18       0.000000   0.000000   0.000000   0.000000   0.000000   0.000000
     19       0.000000   0.000000   0.000000   0.000000   0.000000   0.000000
     20       0.000000   0.000000   0.000000   0.000000   0.000000   0.000000
     21       0.000000   0.000000   0.000000   0.000000   0.000000   0.000000
     22       0.000000   0.000000   0.000000   0.000000   0.000000   0.000000
     23       0.000000   0.000000   0.000000   0.000000   0.000000   0.000000
     24       0.000000   0.000000   0.000000   0.000000   0.000000   0.000000
     25       0.000000   0.000000   0.000000   0.000000   0.000000   0.000000
     26       0.000000   0.000000   0.000000   0.000000   0.000000   0.000000
     27       0.000000   0.000000   0.000000   0.000000   0.000000   0.000000
     28       0.000000   0.000000   0.000000   0.000000   0.000000   0.000000
     29       0.000000   0.000000   0.000000   0.000000   0.000000   0.000000
     30       0.000000   0.000000   0.000000   0.000000   0.000000   0.000000
     31       0.000000   0.000000   0.000000   0.000000   0.000000   0.000000
     32       0.000000   0.000000   0.000000   0.000000   0.000000   0.000000
     33       0.000000   0.000000   0.000000   0.000000   0.000000   0.000000
     34       0.000000   0.000000   0.000000   0.000000   0.000000   0.000000
     35       0.000000   0.000000   0.000000   0.000000   0.000000   0.000000
     36       0.000000   0.000000   0.000000   0.000000   0.000000   0.000000
     37       0.000000   0.000000   0.000000   0.000000   0.000000   0.000000
     38       0.000000   0.000000   0.000000   0.000000   0.000000   0.000000
     39       0.000000   0.000000   0.000000   0.000000   0.000000   0.000000
     40       0.000000   0.000000   0.000000   0.000000   0.000000   0.000000
     41       0.000000   0.000000   0.000000   0.000000   0.000000   0.000000
     42       0.000000   0.000000   0.000000   0.000000   0.000000   0.000000
     43       0.000000   0.000000   0.000000   0.000000   0.000000   0.000000
     44       0.000000   0.000000   0.000000   0.000000   0.000000   0.000000
     45       0.000000   0.000000   0.000000   0.000000   0.000000   0.000000
     46       0.000000   0.000000   0.000000   0.000000   0.000000   0.000000
     47       0.000000   0.000000   0.000000   0.000000   0.000000   0.000000
     48       0.000000   0.000000   0.000000   0.000000   0.000000   0.000000
     49       0.000000   0.000000   0.000000   0.000000   0.000000   0.000000
     50       0.000000   0.000000   0.000000   0.000000   0.000000   0.000000
     51       0.000000   0.000000   0.000000   0.000000   0.000000   0.000000
     52       0.000000   0.000000   0.000000   0.000000   0.000000   0.000000
     53       0.000000   0.000000   0.000000   0.000000   0.000000   0.000000
     54       0.000000   0.000000   0.000000   0.000000   0.000000   0.000000
     55       0.000000   0.000000   0.000000   0.000000   0.000000   0.000000
     56       0.000000   0.000000   0.000000   0.000000   0.000000   0.000000
     57       0.000000   0.000000   0.000000   0.000000   0.000000   0.000000
     58       0.000000   0.000000   0.000000   0.000000   0.000000   0.000000
     59       0.000000   0.000000   0.000000   0.000000   0.000000   0.000000
     60       0.000000   0.000000   0.000000   0.000000   0.000000   0.000000
     61       0.000000   0.000000   0.000000   0.000000   0.000000   0.000000
     62       0.000000   0.000000   0.000000   0.000000   0.000000   0.000000
     63       0.000000   0.000000   0.000000   0.000000   0.000000   0.000000
     64       0.000000   0.000000   0.000000   0.000000   0.000000   0.000000
     65       0.000000   0.000000   0.000000   0.000000   0.000000   0.000000
     66       0.000000   0.000000   0.000000   0.000000   0.000000   0.000000
     67       0.000000   0.000000   0.000000   0.000000   0.000000   0.000000
     68       0.000000   0.000000   0.000000   0.000000   0.000000   0.000000
     69       0.000000   0.000000   0.000000   0.000000   0.000000   0.000000
     70       0.000000   0.000000   0.000000   0.000000   0.000000   0.000000
     71       0.000000   0.000000   0.000000   0.000000   0.000000   0.000000
     72       0.000000   0.000000   0.000000   0.000000   0.000000   0.000000
     73       0.000000   0.000000   0.000000   0.000000   0.000000   0.000000
     74       0.000000   0.000000   0.000000   0.000000   0.000000   0.000000
     75       0.000000   0.000000   0.000000   0.000000   0.000000   0.000000
     76       0.000000   0.000000   0.000000   0.000000   0.000000   0.000000
     77       0.000000   0.000000   0.000000   0.000000   0.000000   0.000000
     78       0.000000   0.000000   0.000000   0.000000   0.000000   0.000000
     79       0.000000   0.000000   0.000000   0.000000   0.000000   0.000000
     80       0.000000   0.000000   0.000000   0.000000   0.000000   0.000000
     81       0.000000   0.000000   0.000000   0.000000   0.000000   0.000000
     82       0.000000   0.000000   0.000000   0.000000   0.000000   0.000000
     83       0.000000   0.000000   0.000000   0.000000   0.000000   0.000000
     84       0.000000   0.000000   0.000000   0.000000   0.000000   0.000000
     85       0.000000   0.000000   0.000000   0.000000   0.000000   0.000000
     86       0.000000   0.000000   0.000000   0.000000   0.000000   0.000000
     87       0.000000   0.000000   0.000000   0.000000   0.000000   0.000000
     88       0.000000   0.000000   0.000000   0.000000   0.000000   0.000000
     89       0.000000   0.000000   0.000000   0.000000   0.000000   0.000000
                  6          7          8          9         10         11    
      0      -0.004828   0.077035   0.009553  -0.059673   0.036209  -0.030639
      1      -0.002847  -0.048080  -0.102588  -0.082425   0.088121   0.006129
      2      -0.005266  -0.089171   0.052207   0.128113  -0.157380  -0.030278
      3      -0.012019   0.082835   0.028908  -0.045762   0.032651  -0.023407
      4      -0.030936  -0.008175  -0.007534  -0.018666   0.077124   0.037374
      5       0.017927  -0.034940  -0.009610   0.012607  -0.131440  -0.017309
      6      -0.000763   0.029924  -0.006401  -0.032183   0.004694  -0.047479
      7      -0.049691   0.015566   0.054234   0.026765  -0.009530   0.036200
      8       0.029126   0.007338  -0.050816  -0.070243   0.040726   0.016364
      9       0.018171  -0.027455  -0.060283  -0.033706  -0.017650  -0.083783
     10      -0.015115   0.001753   0.008723   0.021060  -0.096066   0.005498
     11      -0.012615  -0.018989  -0.014522  -0.059090   0.185400   0.036500
     12       0.019723  -0.031380  -0.077934  -0.049779  -0.018387  -0.093802
     13       0.004016  -0.035105  -0.084541  -0.045103  -0.098722  -0.027945
     14      -0.021248  -0.079557   0.044692   0.062352   0.178984   0.034026
     15       0.008608   0.020572  -0.043721  -0.063647   0.010193  -0.067759
     16       0.007024  -0.061915  -0.138250  -0.098077  -0.004007  -0.026173
     17      -0.010834  -0.111764   0.075271   0.159464   0.006496  -0.000305
     18      -0.022421   0.125447   0.067758  -0.045447   0.054184  -0.001543
     19      -0.042777   0.002989   0.018688  -0.013326   0.141848   0.056591
     20       0.032542  -0.018635  -0.027320   0.002634  -0.241473  -0.037124
     21       0.029227  -0.065609  -0.082835  -0.027142  -0.038605  -0.098309
     22      -0.033218   0.021699   0.049059   0.066571  -0.173635  -0.000289
     23      -0.001554   0.002295  -0.042498  -0.131878   0.323334   0.064443
     24       0.010058   0.016253  -0.056595  -0.074627   0.009928  -0.072285
     25       0.015397  -0.091485  -0.204032  -0.147715  -0.006844  -0.051596
     26      -0.007452  -0.152828   0.114228   0.248024   0.000468  -0.003421
     27      -0.021759  -0.005534   0.004378  -0.039425  -0.022310  -0.017803
     28       0.026356   0.045419   0.137478  -0.010538   0.092930   0.093285
     29      -0.123922   0.170635  -0.081186   0.004444  -0.015927  -0.041120
     30      -0.023948   0.002380  -0.004328  -0.047503  -0.018184  -0.016114
     31       0.019888   0.070023   0.104454  -0.026876   0.133547   0.065903
     32      -0.019136   0.147986  -0.035613   0.013310   0.068459  -0.094942
     33       0.001130   0.001340  -0.039945  -0.054195   0.013014  -0.050069
     34       0.008655   0.051024   0.086624  -0.014879   0.118086   0.043741
     35       0.032751   0.234505   0.033307  -0.040668   0.147339  -0.008772
     36      -0.077941   0.046355  -0.028103  -0.063049  -0.057985   0.031738
     37       0.066624   0.163418   0.151052  -0.079547   0.212509   0.141093
     38      -0.007625   0.119335  -0.034510   0.025432   0.070393  -0.120203
     39      -0.015231  -0.017426  -0.000605  -0.011951  -0.053410   0.021836
     40       0.032751   0.044502   0.137500  -0.005882   0.082249   0.103322
     41      -0.675708   0.214664  -0.067931   0.195086  -0.115606  -0.383604
     42       0.190260   0.093119  -0.188101   0.467542   0.019611   0.408747
     43       0.390284   0.134305   0.152018   0.209676  -0.109303  -0.083768
     44       0.099572   0.187194   0.033822  -0.210822  -0.204390   0.185387
     45      -0.024997   0.036929   0.014671  -0.029893   0.003589  -0.025519
     46      -0.142873   0.058396   0.140176   0.046154  -0.002315   0.063463
     47       0.161300   0.067036  -0.111125  -0.099781   0.085773   0.000885
     48      -0.061031   0.078861   0.043994  -0.018755   0.029881  -0.038216
     49      -0.231375   0.082911   0.159680   0.072940  -0.022611   0.040391
     50       0.418460   0.025957  -0.152169  -0.172769   0.182276   0.058430
     51       0.023714   0.088603  -0.159020   0.423319   0.019684   0.216001
     52       0.132757   0.132746   0.179788   0.155857  -0.110091  -0.215714
     53       0.012568   0.189752   0.032635  -0.219905  -0.205129   0.244434
     54       0.002208  -0.057328   0.084354  -0.033564   0.001841  -0.008136
     55       0.000085  -0.006929  -0.007576   0.013828   0.076051  -0.040601
     56      -0.008303   0.023475  -0.051363   0.062705   0.037834  -0.184291
     57       0.017934  -0.166501   0.135723  -0.053131  -0.033204   0.030750
     58      -0.004687  -0.026983  -0.049887   0.090738   0.088422  -0.178355
     59      -0.015373   0.070672  -0.069877   0.065885   0.051096  -0.190239
     60       0.005388   0.015644   0.135869  -0.010005   0.077559  -0.049234
     61       0.002643   0.007214   0.014184  -0.002887   0.082153  -0.005286
     62      -0.016080  -0.014811  -0.121656   0.126726   0.028780  -0.316701
     63      -0.012036   0.114868   0.036405  -0.068403   0.054428  -0.005998
     64       0.006407  -0.066786  -0.145581  -0.117906   0.158259   0.002264
     65      -0.008716  -0.113703   0.079040   0.193824  -0.287295  -0.058923
     66       0.029947  -0.074155  -0.117051  -0.048801  -0.038532  -0.116363
     67       0.013227  -0.043960  -0.112873  -0.054426  -0.169562  -0.050786
     68      -0.030190  -0.099920   0.064979   0.080450   0.296597   0.058248
     69       0.000410  -0.078024   0.054470  -0.045595  -0.029982   0.007146
     70      -0.004228  -0.070454  -0.107431  -0.017378  -0.024670   0.003529
     71       0.005837  -0.112015   0.055905   0.019763   0.001720  -0.051266
     72      -0.004805   0.020308   0.000085  -0.022437   0.003358  -0.097125
     73       0.001507  -0.068739  -0.093016  -0.050423  -0.036514   0.000041
     74       0.007231  -0.149562   0.075638   0.013253  -0.010183  -0.010685
     75       0.000325  -0.148857   0.001680  -0.070869  -0.108850   0.064870
     76      -0.005606  -0.077298  -0.121710  -0.010568  -0.031489   0.008030
     77       0.011210  -0.097908   0.100082  -0.008898   0.014747  -0.059105
     78       0.002813  -0.133477   0.166525  -0.053788  -0.000886   0.091780
     79      -0.008838  -0.122339  -0.205552  -0.008366  -0.099811   0.040772
     80       0.003682  -0.210042   0.076810   0.020904  -0.035228   0.060039
     81       0.002321  -0.135991   0.141388  -0.054330  -0.017603   0.087798
     82      -0.009578  -0.134881  -0.271602  -0.011974  -0.148321   0.035855
     83       0.006211  -0.265342   0.144428   0.002614  -0.038982   0.133375
     84       0.003261  -0.099669   0.220236  -0.047677   0.053909   0.070430
     85      -0.007863  -0.112056  -0.195792  -0.012032  -0.091968   0.029839
     86      -0.000162  -0.247773   0.040874   0.034774  -0.063939   0.100448
     87       0.003809  -0.204115   0.217457  -0.068428  -0.018786   0.179431
     88      -0.012420  -0.154312  -0.216826   0.007369  -0.110571   0.080501
     89       0.003590  -0.183919   0.060369   0.024771  -0.028426   0.027648
                 12         13         14         15         16         17    
      0      -0.046922  -0.008858  -0.009963   0.029238   0.101170   0.102459
      1       0.010393  -0.023246   0.016153  -0.010509  -0.016276  -0.039497
      2       0.044069  -0.021032  -0.033808  -0.012374  -0.019690   0.017134
      3      -0.045207  -0.009056  -0.009757   0.049454   0.109875   0.087787
      4      -0.013038  -0.006381   0.022031   0.099934   0.072674  -0.050649
      5      -0.057634   0.076038  -0.010912  -0.083227  -0.075679   0.120390
      6       0.006185  -0.042733  -0.018089   0.009169   0.044633   0.028787
      7      -0.032559   0.019452   0.010856   0.123246   0.084153   0.025832
      8      -0.111700   0.094462   0.022779  -0.060552  -0.014027   0.062537
      9       0.067557  -0.099265  -0.038272  -0.041165   0.040602   0.033293
     10      -0.020384   0.018234  -0.008237   0.108104   0.109810  -0.017412
     11      -0.083141   0.047384   0.042849  -0.075204  -0.069059   0.136151
     12       0.071145  -0.103845  -0.040812  -0.068687   0.023860   0.042489
     13       0.008232  -0.000055  -0.014705  -0.014649   0.005277  -0.006016
     14       0.011464  -0.042829   0.022620   0.018324   0.002070   0.023499
     15       0.011789  -0.058431  -0.027120  -0.039079   0.056955   0.106482
     16       0.016888  -0.012249   0.000827  -0.092541  -0.092873   0.028733
     17       0.081105  -0.086945  -0.018289   0.089282   0.093798  -0.115694
     18      -0.090199   0.021885  -0.000679   0.094961   0.166320   0.129982
     19      -0.020244  -0.013373   0.032280   0.141599   0.116439  -0.066002
     20      -0.084632   0.117789  -0.023484  -0.126041  -0.110181   0.192090
     21       0.113147  -0.135144  -0.050580  -0.060477   0.031034   0.023523
     22      -0.033791   0.036777  -0.014749   0.151956   0.154266  -0.056289
     23      -0.124752   0.069604   0.068905  -0.111235  -0.120797   0.201181
     24       0.012251  -0.057333  -0.026890  -0.060835   0.035335   0.119179
     25       0.030342  -0.017050  -0.000703  -0.198937  -0.195710   0.081928
     26       0.156339  -0.162415  -0.035502   0.193680   0.205095  -0.266322
     27      -0.035302   0.035011   0.017238   0.048949   0.004973   0.000527
     28       0.007572  -0.008703  -0.036766   0.045807  -0.028146   0.124599
     29      -0.094583  -0.002512   0.003258  -0.062009   0.066123  -0.128858
     30      -0.029604   0.034804   0.017221   0.013290  -0.024298  -0.085350
     31       0.058689  -0.068793  -0.062653  -0.100334  -0.082079  -0.064886
     32       0.014520  -0.106713  -0.037651   0.077563  -0.139702  -0.100961
     33       0.042813  -0.001763  -0.005019  -0.052773  -0.065625  -0.198632
     34       0.079776  -0.012882  -0.059284  -0.108735  -0.034975  -0.046037
     35      -0.065306  -0.372168  -0.057592   0.096408  -0.368067  -0.224482
     36      -0.140150   0.037388   0.038509  -0.053644   0.108205  -0.090393
     37      -0.016040  -0.342702  -0.084410  -0.111707  -0.301673  -0.232584
     38       0.061067  -0.068119  -0.041115   0.100248  -0.150419  -0.074154
     39      -0.054232   0.066709   0.035437   0.139626   0.035989   0.067200
     40       0.006466  -0.002525  -0.032220   0.062953  -0.022536   0.136622
     41      -0.328581   0.079486   0.077504  -0.370459   0.008075  -0.289549
     42       0.095532   0.032761   0.020067  -0.028217  -0.035572   0.068232
     43      -0.051282   0.000606   0.044030  -0.031849  -0.028358   0.016946
     44       0.120692  -0.004505   0.011319   0.009844   0.014297  -0.025093
     45       0.014154  -0.035014  -0.016575  -0.005369  -0.008522   0.020722
     46      -0.032683   0.025008   0.001959   0.041307  -0.023079   0.116065
     47      -0.133026   0.074315   0.006031   0.055392   0.120138  -0.126162
     48       0.029411  -0.071414  -0.038878  -0.083925  -0.052083   0.039611
     49      -0.036792   0.017659   0.005182  -0.038461  -0.058736   0.134517
     50      -0.106485   0.060011  -0.027779   0.235864   0.200754  -0.170148
     51       0.008048   0.021623   0.022054  -0.048520  -0.022368   0.013555
     52      -0.113267  -0.013327   0.039702  -0.068693  -0.030392  -0.008822
     53       0.145229  -0.006724   0.005418  -0.006301  -0.000561   0.002726
     54       0.026320   0.091052   0.017490   0.077469  -0.131803  -0.038308
     55       0.173166   0.126361  -0.055016  -0.135319   0.088251  -0.043971
     56       0.167916   0.108210  -0.033535   0.114326  -0.065114   0.023431
     57       0.022304   0.066367   0.126553   0.065589  -0.107699   0.022713
     58       0.346835   0.416666  -0.201949  -0.102848   0.155262   0.020724
     59       0.156882   0.098908  -0.069227   0.114700  -0.077598  -0.007088
     60       0.093568   0.187599  -0.143210   0.086191  -0.176881  -0.036428
     61       0.130122   0.053937  -0.032035  -0.139847   0.056872  -0.058943
     62       0.332517   0.383981  -0.145044   0.139529   0.034634   0.080916
     63      -0.091105   0.030370   0.003447   0.064447   0.121943   0.112739
     64       0.019818  -0.042198   0.022808  -0.045758  -0.032398  -0.047484
     65       0.091021  -0.047176  -0.062320  -0.008627  -0.023695   0.015661
     66       0.119409  -0.139559  -0.052029  -0.112741  -0.023525  -0.003084
     67       0.017921   0.003480  -0.026956  -0.051324  -0.016914  -0.019793
     68       0.034976  -0.080385   0.036407   0.050493   0.002955   0.009485
     69      -0.009120   0.055638   0.079323   0.097662  -0.156127  -0.072701
     70       0.062170  -0.009839   0.137278  -0.065307   0.053585  -0.062984
     71       0.075582  -0.051903   0.147627   0.003151   0.028244   0.085510
     72       0.092648   0.138972   0.057738   0.183418  -0.231237  -0.071193
     73       0.117192  -0.131346   0.486514  -0.085765   0.083713  -0.033210
     74       0.032670  -0.076011   0.132801  -0.029558   0.056083   0.081706
     75      -0.122328  -0.065276   0.207762   0.157446  -0.196948  -0.050000
     76       0.033282   0.009638   0.055727  -0.043547   0.032480  -0.064347
     77       0.161299  -0.141658   0.460994  -0.063203   0.094880   0.097215
     78      -0.035626   0.076094  -0.009572  -0.103595  -0.007659  -0.196524
     79      -0.104797  -0.029625  -0.050573   0.099183  -0.087577  -0.004159
     80      -0.094924  -0.053704  -0.104527  -0.049445   0.064147   0.045371
     81      -0.052437   0.057498   0.010125  -0.056855  -0.038437  -0.158881
     82      -0.156274  -0.086367   0.010105   0.221820  -0.165032   0.098088
     83      -0.129302  -0.086602  -0.065287  -0.191605   0.194263  -0.031502
     84       0.043772   0.139518  -0.047925  -0.197210   0.044680  -0.279873
     85      -0.071839  -0.036990   0.017800   0.081732  -0.066883  -0.004579
     86      -0.216631  -0.025881  -0.358896   0.014879  -0.012348   0.047425
     87      -0.117060   0.048680  -0.055249  -0.214172   0.090293  -0.264343
     88      -0.205251   0.016008  -0.316607   0.119594  -0.135278  -0.033637
     89      -0.060543  -0.047471  -0.070872  -0.013565   0.034345   0.069956
                 18         19         20         21         22         23    
      0      -0.003873   0.061028  -0.014344  -0.016250   0.089187   0.005678
      1       0.003424  -0.011866  -0.100482   0.036112  -0.023117  -0.092803
      2      -0.000281   0.008388   0.176609  -0.018401  -0.075381   0.114554
      3      -0.004007   0.061897   0.031664  -0.008230   0.063235   0.015142
      4      -0.000597   0.073681   0.113032   0.050129  -0.000347   0.008283
      5      -0.003793   0.101868  -0.178220   0.008508  -0.005343  -0.010829
      6      -0.000797   0.028033   0.002501   0.024796  -0.072367   0.003468
      7      -0.003504   0.134696   0.013711  -0.012194   0.001024   0.169560
      8      -0.003094   0.025837   0.011973   0.062006   0.140798  -0.248524
      9       0.001696  -0.043401  -0.027708  -0.031239   0.036864   0.014115
     10      -0.005099   0.097248  -0.088666   0.016008   0.109032   0.042551
     11       0.001517   0.067323   0.182724  -0.022619   0.039530   0.014270
     12       0.002663  -0.076978   0.011721  -0.044570   0.044053  -0.000449
     13      -0.000584  -0.016401   0.104402   0.003567   0.065937  -0.056898
     14       0.004104   0.036247  -0.182813  -0.034615  -0.024432   0.125057
     15      -0.000439  -0.011225  -0.004387  -0.070745   0.119177   0.067031
     16       0.003789  -0.014201  -0.009141  -0.017855  -0.082738   0.074201
     17       0.002338  -0.065214   0.004275   0.033090   0.070273  -0.163170
     18      -0.007223   0.115951   0.069253  -0.023800   0.172258   0.034622
     19      -0.000648   0.063463   0.240254   0.059302   0.066903  -0.071483
     20      -0.006660   0.171136  -0.399268  -0.027072  -0.034178   0.169796
     21       0.004080  -0.108796  -0.066113  -0.067291   0.052872  -0.007832
     22      -0.008651   0.139849  -0.220820   0.078499   0.156532  -0.081089
     23       0.003364   0.095771   0.421475  -0.059284  -0.054420   0.216716
     24       0.000066  -0.013007  -0.007938  -0.076359   0.104739   0.078101
     25       0.006715  -0.036037  -0.027065  -0.049446  -0.142648   0.127125
     26       0.003512  -0.144866   0.017950   0.069150   0.124027  -0.261738
     27      -0.001645   0.054595   0.003645   0.084897  -0.186924  -0.097188
     28       0.004566  -0.181933  -0.012297  -0.098330  -0.067089  -0.074408
     29       0.002299  -0.162962  -0.017431  -0.050493  -0.022915   0.100999
     30      -0.001733   0.056429   0.003001   0.130273  -0.149156  -0.029828
     31      -0.000860  -0.016750  -0.001772   0.131350   0.083287   0.069018
     32       0.005539   0.131953   0.006629  -0.085728  -0.035939  -0.058814
     33      -0.005541   0.266496   0.016888   0.282840  -0.111662   0.011276
     34       0.001125  -0.053006  -0.004251   0.124136   0.069279   0.073791
     35      -0.004526   0.363090   0.022021  -0.011934   0.033716  -0.074661
     36      -0.005880  -0.103037  -0.008988   0.126327  -0.221048   0.020855
     37      -0.013048   0.277638   0.017032   0.254118   0.142736   0.065681
     38       0.008493   0.140695   0.007841  -0.099652  -0.018597  -0.073899
     39      -0.000134   0.025311  -0.004594  -0.032993  -0.338413  -0.152520
     40       0.004743  -0.180632  -0.012880  -0.117803  -0.095897  -0.083365
     41      -0.003762  -0.167454  -0.026292   0.280052   0.351047   0.041176
     42      -0.000287   0.020863   0.017496   0.011704   0.266692  -0.094192
     43       0.001820   0.072235   0.027708   0.011091   0.063828   0.055622
     44       0.000097   0.057918   0.010042   0.019764  -0.171220   0.155118
     45       0.000788  -0.006097  -0.001384   0.042681  -0.140858  -0.074907
     46       0.002361  -0.089344  -0.014046  -0.077532  -0.078584  -0.070200
     47      -0.000928  -0.136789   0.002669   0.008303  -0.043926   0.058736
     48       0.004744  -0.165646  -0.011036   0.010612  -0.129541  -0.139530
     49       0.003097  -0.126151  -0.009455  -0.057981  -0.003446  -0.127183
     50       0.000133  -0.165105  -0.020883  -0.082036  -0.257110   0.195576
     51      -0.000841   0.000388   0.002063   0.007309  -0.007444   0.003418
     52       0.003387  -0.007515  -0.004127   0.000309  -0.008014  -0.016788
     53       0.002021   0.001904  -0.005617   0.015305   0.023224  -0.006580
     54       0.005158  -0.088983  -0.004820   0.099371   0.066380   0.069217
     55       0.005887   0.025125   0.001095   0.097147  -0.020167   0.034355
     56       0.015796   0.029034   0.002058  -0.087600   0.011402  -0.040606
     57      -0.022383  -0.186510  -0.010101   0.171262   0.128803   0.138575
     58       0.062048  -0.036800  -0.001804   0.084036   0.004363   0.058478
     59       0.023609   0.073322   0.004445  -0.114001  -0.016765  -0.069764
     60       0.045219  -0.142129  -0.008019   0.197262   0.126323   0.138463
     61      -0.004919   0.028468   0.001066   0.112845  -0.010010   0.039881
     62       0.063078   0.004908   0.001265  -0.138413  -0.013911  -0.052487
     63      -0.006527   0.128437  -0.029485   0.021971   0.083292  -0.030067
     64       0.005958  -0.067362  -0.216805   0.032272   0.041188  -0.214173
     65      -0.000423  -0.001242   0.371661  -0.066812  -0.159059   0.347444
     66       0.006041  -0.153632   0.026532  -0.029011  -0.040572  -0.069228
     67      -0.000686  -0.064170   0.209073   0.028524   0.087544  -0.202733
     68       0.007214   0.062347  -0.369462  -0.066894  -0.141702   0.343096
     69      -0.003497  -0.083749  -0.004795  -0.010945   0.101285   0.064363
     70      -0.026082   0.066901   0.003133  -0.119266  -0.035262  -0.048281
     71      -0.033064  -0.050479  -0.002389   0.098450   0.001634   0.025794
     72      -0.001432  -0.091754  -0.005101  -0.037576   0.138133   0.067777
     73      -0.063758   0.030357   0.000473  -0.125855  -0.034571  -0.043115
     74      -0.030468  -0.042733  -0.001984   0.105633  -0.014089   0.021899
     75      -0.009189  -0.120049  -0.006908  -0.058602   0.124467   0.061961
     76      -0.015398   0.065332   0.003245  -0.114324  -0.026982  -0.044039
     77      -0.069676  -0.057474  -0.003476   0.085626  -0.020157   0.017394
     78       0.004866   0.057034   0.002628  -0.198067   0.036506  -0.017390
     79       0.008367  -0.022719  -0.001211  -0.026596   0.031283   0.008786
     80       0.003020   0.001504   0.000845   0.073786  -0.038325  -0.003467
     81       0.120302   0.019774   0.000560  -0.126586   0.057895   0.012678
     82       0.381925  -0.119656  -0.006646   0.169024   0.089573   0.090513
     83       0.440358   0.132283   0.007358  -0.067743  -0.086147  -0.077339
     84      -0.457848   0.124928   0.006539  -0.362260  -0.010934  -0.082963
     85       0.090481  -0.012391  -0.000854  -0.032734   0.028139   0.004355
     86      -0.304502  -0.037205  -0.000530   0.098543  -0.027395   0.013130
     87       0.362383   0.166242   0.008218  -0.315121  -0.002960  -0.079158
     88      -0.414329  -0.031114  -0.000890  -0.057853   0.022977   0.000997
     89      -0.088473  -0.034558  -0.001043   0.114595  -0.024309   0.017729
                 24         25         26         27         28         29    
      0      -0.007072  -0.235064   0.133183  -0.012487   0.006268   0.027201
      1      -0.002493  -0.101713   0.163028   0.010051   0.002245   0.095783
      2       0.016298  -0.102123   0.094667   0.022014   0.054852  -0.143178
      3      -0.002994  -0.161194   0.126532   0.000220   0.018474  -0.009379
      4       0.005119   0.243260   0.096991   0.044741   0.046085  -0.060680
      5      -0.003789   0.121516   0.078189   0.014968  -0.025111   0.139473
      6       0.011563   0.074033   0.197928   0.051768   0.030240   0.039274
      7       0.011475   0.087487  -0.032705   0.006298  -0.021196   0.115423
      8      -0.030330   0.083390   0.019355  -0.012216   0.030156  -0.210309
      9      -0.000057   0.227432  -0.079354   0.022929   0.012843  -0.008998
     10      -0.009623   0.106133  -0.092075  -0.012270  -0.000950  -0.086532
     11      -0.003806   0.096040  -0.059347  -0.025463  -0.048425   0.114346
     12      -0.001860   0.174748  -0.107356   0.015713   0.001152   0.025136
     13      -0.014908  -0.241872  -0.024671  -0.053088  -0.050137   0.069051
     14       0.013756  -0.128890  -0.035260  -0.012866   0.024671  -0.155931
     15      -0.008169  -0.080900  -0.188207  -0.042965  -0.028131  -0.033036
     16       0.012636  -0.110084   0.047869   0.008688   0.028980  -0.065625
     17      -0.015825  -0.054147   0.015635  -0.020194  -0.040295   0.121916
     18      -0.014941  -0.063322  -0.015397  -0.024896  -0.000411  -0.055359
     19      -0.007301   0.268875   0.053999   0.024246   0.052811  -0.215987
     20       0.009158   0.131437   0.035691   0.030460  -0.056108   0.408745
     21      -0.006211   0.059927  -0.201887  -0.033882  -0.024080  -0.063139
     22      -0.019758   0.219524   0.003166   0.021898   0.037404  -0.253721
     23       0.017867   0.133812  -0.019057   0.001980  -0.052996   0.423852
     24      -0.006235  -0.033672  -0.201393  -0.037421  -0.022765  -0.063718
     25       0.021307   0.161680  -0.077327   0.031187   0.045281  -0.207945
     26      -0.024272   0.107647  -0.050002  -0.001898  -0.062695   0.375005
     27       0.017557  -0.038849  -0.128273   0.012303   0.009281   0.000891
     28       0.000352   0.016668   0.001185   0.043352   0.032980   0.005471
     29      -0.009247   0.093006   0.151926  -0.068712  -0.140666  -0.053504
     30       0.014672  -0.028968  -0.128201  -0.035700  -0.074971  -0.028770
     31      -0.010388   0.008793   0.028281  -0.000963   0.010132   0.005711
     32       0.003362  -0.014261  -0.042600   0.004768  -0.011594  -0.005819
     33       0.012687  -0.071715  -0.218748  -0.087258  -0.101343  -0.035797
     34      -0.008342   0.015251   0.042153   0.005189   0.006409   0.006413
     35      -0.005285  -0.065656  -0.155552  -0.034763  -0.003886  -0.010535
     36       0.016838   0.027664  -0.036626  -0.051378  -0.130469  -0.042671
     37      -0.016278  -0.064707  -0.136644  -0.050276   0.004519   0.001377
     38       0.003137  -0.022166  -0.048124   0.017177   0.010243   0.000098
     39       0.005909  -0.020559  -0.242519  -0.111295  -0.120992  -0.061115
     40      -0.004094   0.018545  -0.020675   0.020126   0.003903  -0.007473
     41       0.081074  -0.351314  -0.479757   0.551635   0.468292   0.261189
     42       0.617620  -0.103644   0.013962   0.335127  -0.460503  -0.140461
     43      -0.152537  -0.208735  -0.050581   0.631331  -0.634607  -0.198436
     44      -0.755169  -0.118735  -0.099183   0.288960  -0.106251  -0.028187
     45       0.008410   0.049918   0.152472   0.030711   0.009674  -0.008006
     46      -0.003158  -0.030297  -0.159859  -0.011209  -0.042121  -0.013778
     47       0.021586  -0.049592  -0.121231   0.051445   0.068777   0.045383
     48       0.008625   0.044893   0.217545   0.104762   0.043646  -0.021020
     49      -0.006353  -0.040099  -0.120324   0.059091  -0.045085  -0.042264
     50       0.031472  -0.016742  -0.161631  -0.088225   0.123161   0.133505
     51      -0.050200   0.005352  -0.012629  -0.033758   0.058599   0.019939
     52       0.021322   0.022642   0.009003  -0.061210   0.043363   0.011465
     53       0.042539  -0.006066  -0.022889  -0.014311   0.049155   0.020389
     54      -0.005381   0.004329   0.002450  -0.014721  -0.013244  -0.002507
     55       0.000228  -0.003230  -0.023647  -0.023150  -0.025356  -0.005257
     56       0.000839  -0.002874   0.005430   0.016640   0.020259   0.003254
     57      -0.013084   0.025160   0.056644  -0.032518  -0.014454  -0.000170
     58      -0.004793   0.010053   0.014271  -0.036142  -0.013161  -0.001113
     59       0.004302  -0.012733  -0.020781   0.024243   0.020189   0.002424
     60      -0.014159   0.019729   0.038735  -0.027475  -0.023706  -0.003029
     61      -0.000799  -0.003525  -0.023743  -0.019857  -0.025349  -0.004901
     62       0.002316   0.003065   0.016938   0.003631   0.018237   0.000517
     63      -0.007619  -0.069420   0.266286   0.023396   0.033403   0.022910
     64      -0.018857  -0.203248   0.066689  -0.034575  -0.028150   0.004361
     65       0.040692  -0.160247   0.039555   0.037926   0.060932  -0.002529
     66       0.003550   0.078996   0.042134   0.040661   0.030961   0.025915
     67      -0.027619  -0.248838   0.025535  -0.058071  -0.049664  -0.010384
     68       0.043206  -0.172889   0.000728   0.023318   0.051867  -0.001562
     69      -0.008421   0.013841   0.040463  -0.006125  -0.002243   0.002048
     70       0.003390  -0.007144  -0.016684   0.008335   0.004192  -0.000487
     71      -0.003314   0.001713   0.002290  -0.004960  -0.004448  -0.000727
     72      -0.009642   0.014926   0.052076   0.000869   0.008973   0.005837
     73       0.000429  -0.001969  -0.000227   0.014562   0.005918   0.000711
     74      -0.002614   0.000567  -0.004229  -0.007415  -0.008317  -0.002236
     75      -0.010709   0.020804   0.068921   0.006602   0.012274   0.006740
     76       0.003442  -0.007065  -0.015508   0.007746   0.005223   0.000162
     77      -0.004362   0.003217   0.004589  -0.001587  -0.007196  -0.002046
     78      -0.003066   0.005442   0.025193   0.008369   0.011135   0.003922
     79      -0.000429   0.004321   0.015119   0.002575   0.005089   0.002286
     80       0.001549  -0.004441  -0.019574  -0.005240  -0.007342  -0.003214
     81      -0.005462   0.008516   0.030617   0.001894   0.004937   0.003155
     82      -0.007097   0.012671   0.030006  -0.015001  -0.012222   0.000089
     83       0.004650  -0.014305  -0.036944   0.013282   0.008174  -0.001425
     84       0.002962  -0.001135   0.013720   0.022882   0.024759   0.005671
     85      -0.000894   0.002940   0.012459   0.004054   0.005687   0.002311
     86       0.003419   0.000512  -0.010676  -0.010966  -0.010551  -0.003685
     87       0.000990  -0.001976   0.012358   0.023720   0.023916   0.005356
     88       0.003343   0.006071   0.017763   0.001819   0.007367   0.002772
     89      -0.000143  -0.002099  -0.015314  -0.010118  -0.011444  -0.003580
                 30         31         32         33         34         35    
      0      -0.005237   0.008498  -0.081418   0.052602  -0.011808  -0.006073
      1       0.004835   0.010799  -0.084341   0.050228  -0.024806   0.006379
      2      -0.031692   0.005940  -0.054777   0.035152   0.030896  -0.034846
      3       0.000402   0.006164  -0.048295   0.027207  -0.010407  -0.003734
      4       0.026714   0.004250  -0.015298  -0.000563  -0.039745   0.013057
      5      -0.060566  -0.000174  -0.006933   0.006610   0.073625  -0.006768
      6      -0.010203  -0.000018   0.036973  -0.039851   0.003744   0.001912
      7      -0.048258  -0.002914   0.005935  -0.001646  -0.011876  -0.018409
      8       0.085581   0.004964  -0.027098   0.019940   0.015184   0.028868
      9       0.003224   0.005863  -0.043688   0.026475   0.006399  -0.011812
     10       0.049047  -0.009535   0.064837  -0.025648   0.055381  -0.025479
     11      -0.061797  -0.008218   0.041065  -0.021868  -0.083480   0.043474
     12      -0.004386   0.008669  -0.067791   0.039888  -0.000562  -0.009177
     13       0.025849  -0.014890   0.119475  -0.069062   0.028390   0.011719
     14      -0.014505  -0.008581   0.063010  -0.039096  -0.026709   0.011422
     15       0.016381  -0.011356   0.083200  -0.046608   0.005492   0.018160
     16       0.028467   0.004486  -0.026704   0.015359  -0.006176   0.013949
     17      -0.054324  -0.002563   0.008988  -0.005823   0.003818  -0.029240
     18      -0.043117  -0.001021  -0.015836   0.019041   0.057592   0.000685
     19      -0.187920  -0.004827  -0.004649   0.019708   0.257691  -0.014424
     20       0.330398   0.012601  -0.011205  -0.032313  -0.462700   0.050029
     21      -0.043361   0.004349  -0.047792   0.025995  -0.073694   0.021445
     22      -0.195310  -0.018235   0.095094  -0.061834  -0.300561   0.154870
     23       0.346899   0.004584   0.017514   0.020863   0.528263  -0.254300
     24      -0.048302  -0.012697   0.081813  -0.046821   0.007557  -0.011560
     25      -0.255537  -0.005569   0.004545  -0.009711   0.006162  -0.112898
     26       0.439817   0.021810  -0.077732   0.049179  -0.019725   0.188579
     27       0.004226   0.001820   0.014443  -0.018510  -0.000906  -0.000406
     28       0.008866  -0.003961   0.045431  -0.028134  -0.001919  -0.013086
     29       0.004029   0.007172  -0.008868  -0.016866   0.005999   0.009978
     30       0.009259  -0.013510   0.008922   0.041499  -0.006325  -0.026239
     31      -0.000568  -0.022301   0.045448   0.031567  -0.001420   0.001692
     32       0.002555  -0.024169   0.039838   0.059007  -0.003036  -0.000192
     33       0.000382  -0.010686  -0.099486   0.092820  -0.011286  -0.019684
     34       0.000773  -0.084933   0.105814   0.112486  -0.005532   0.004039
     35      -0.007798   0.284129  -0.304055  -0.321918   0.016803  -0.008944
     36       0.006314   0.028619   0.039168  -0.055341   0.008642  -0.004326
     37      -0.017780   0.280878  -0.331063  -0.318464   0.019050   0.002976
     38       0.005769  -0.075596   0.075843   0.129428  -0.010428  -0.007531
     39       0.000632   0.044321  -0.180760   0.027901  -0.008992   0.016265
     40       0.008495   0.004745   0.005258  -0.018331  -0.004463  -0.013030
     41      -0.065655   0.003457   0.052536  -0.028841   0.094086   0.197576
     42      -0.001502   0.010575  -0.022700   0.003982   0.023972   0.053586
     43      -0.003299   0.012359  -0.031542   0.007381   0.031700   0.078024
     44      -0.006166   0.000695  -0.005711   0.003376   0.006869   0.021875
     45       0.011642  -0.012210   0.135818  -0.090798   0.019296   0.041664
[...]
     29       0.000001  -0.000056   0.000038  -0.000256  -0.001162   0.000644
     30      -0.000015   0.000007   0.000025  -0.000031  -0.000930  -0.000197
     31       0.000006  -0.000020  -0.000046   0.000003   0.003475   0.000056
     32      -0.000031  -0.000016   0.000071   0.000011  -0.000051  -0.000152
     33       0.000176   0.000045  -0.000192   0.000532   0.006364   0.000143
     34      -0.000458  -0.000032   0.001042  -0.001446  -0.039705   0.000621
     35      -0.000091   0.000008   0.000245  -0.000260  -0.010435   0.000039
     36       0.000117   0.000078  -0.000349   0.000119   0.003697   0.000692
     37       0.000033   0.000033  -0.000141   0.000079   0.003157  -0.000105
     38       0.000346   0.000221  -0.001032   0.000167   0.008191   0.000672
     39      -0.002059  -0.000468   0.004349  -0.002389   0.182975   0.003885
     40       0.006003  -0.003388  -0.009080  -0.007961  -0.977167  -0.017261
     41      -0.000092  -0.000275   0.000234  -0.000054  -0.005198  -0.002768
     42       0.000218   0.000041  -0.000123  -0.000708   0.010657  -0.565302
     43      -0.000255  -0.000231   0.000343   0.000854  -0.006035   0.565654
     44       0.000352   0.000125  -0.000687  -0.000179   0.013416  -0.596817
     45      -0.000629   0.000308   0.000535   0.000255   0.001492  -0.000142
     46       0.001957  -0.000561  -0.001586   0.001230   0.007192  -0.000350
     47       0.000577  -0.000171  -0.000510   0.000471   0.003048  -0.000330
     48       0.008599  -0.002949  -0.006096   0.002634   0.014785  -0.001032
     49      -0.025724   0.007505   0.018218  -0.010647  -0.060893   0.002675
     50      -0.007671   0.002198   0.005368  -0.003232  -0.021976   0.000453
     51       0.000010   0.000010  -0.000043   0.000057  -0.000561   0.035518
     52       0.000024  -0.000006  -0.000028  -0.000119   0.001021  -0.035496
     53      -0.000055  -0.000008   0.000110   0.000015  -0.000142   0.037459
     54       0.000013  -0.000020  -0.000027  -0.000057  -0.000037  -0.000064
     55      -0.000028   0.000031   0.000063   0.000027   0.000245   0.000071
     56       0.000003  -0.000044   0.000012  -0.000143  -0.000206  -0.000246
     57      -0.000063   0.000195   0.000111   0.000697   0.000955   0.000345
     58       0.000035   0.000034  -0.000062   0.000195   0.000613   0.000036
     59      -0.000085   0.000625  -0.000047   0.001795   0.003264   0.003863
     60      -0.000052   0.000043   0.000149   0.000003  -0.000818  -0.000055
     61       0.000230  -0.000380  -0.000600  -0.000259  -0.004455  -0.001773
     62       0.000049  -0.000138  -0.000130  -0.000212  -0.000656  -0.000267
     63      -0.122591   0.334126   0.383970   0.093774  -0.003453  -0.000698
     64      -0.133725   0.358372   0.413632   0.101712  -0.003440  -0.000557
     65      -0.089382   0.240391   0.277298   0.068100  -0.002354  -0.000380
     66      -0.231337  -0.236926   0.076026   0.151082  -0.002618  -0.000596
     67       0.508871   0.518795  -0.169110  -0.333821   0.004468   0.000892
     68       0.266018   0.270912  -0.088497  -0.174747   0.002149   0.000455
     69      -0.000004   0.000013  -0.000012   0.000021  -0.000083  -0.000030
     70      -0.000000  -0.000020   0.000015  -0.000084   0.000180   0.000027
     71      -0.000016   0.000010   0.000018   0.000008  -0.000070  -0.000017
     72       0.000053  -0.000075   0.000016  -0.000096   0.000979   0.000351
     73       0.000010  -0.000037  -0.000005  -0.000058   0.000157  -0.000111
     74       0.000163  -0.000215  -0.000082  -0.000359   0.001860   0.000255
     75      -0.000010  -0.000037   0.000062  -0.000037   0.000592   0.000063
     76      -0.000019   0.000282  -0.000238   0.000974  -0.002408   0.000044
     77      -0.000010   0.000098  -0.000080   0.000281  -0.000836   0.000065
     78      -0.000006   0.000014  -0.000004   0.000014  -0.000099  -0.000014
     79      -0.000011   0.000015   0.000004  -0.000014   0.000004  -0.000001
     80      -0.000004  -0.000012   0.000026  -0.000039   0.000054  -0.000007
     81       0.000106  -0.000258   0.000042  -0.000441   0.001873   0.000384
     82      -0.000043   0.000084   0.000003   0.000150  -0.000533   0.000011
     83       0.000003  -0.000011  -0.000013  -0.000015  -0.000051  -0.000102
     84      -0.000008   0.000005   0.000040   0.000025  -0.000025   0.000039
     85       0.000154  -0.000305   0.000007  -0.000064   0.000220   0.000072
     86       0.000040  -0.000090   0.000014  -0.000050   0.000061   0.000066
     87      -0.000015   0.000072  -0.000051   0.000191  -0.000272   0.000046
     88       0.000000   0.000009  -0.000026   0.000048  -0.000039  -0.000063
     89      -0.000015   0.000218  -0.000281   0.000503  -0.000735   0.000080


-----------
IR SPECTRUM  
-----------

 Mode    freq (cm**-1)   T**2         TX         TY         TZ
-------------------------------------------------------------------
   7:        70.31    0.000000  (  0.000000   0.000000   0.000000)
   8:        82.13    0.000000  (  0.000000   0.000000   0.000000)
   9:        97.52    0.000000  (  0.000000   0.000000   0.000000)
  10:       118.22    0.000000  (  0.000000   0.000000   0.000000)
  11:       148.42    0.000000  (  0.000000   0.000000   0.000000)
  12:       156.56    0.000000  (  0.000000   0.000000   0.000000)
  13:       171.47    0.000000  (  0.000000   0.000000   0.000000)
  14:       185.73    0.000000  (  0.000000   0.000000   0.000000)
  15:       213.44    0.000000  (  0.000000   0.000000   0.000000)
  16:       263.23    0.000000  (  0.000000   0.000000   0.000000)
  17:       277.22    0.000000  (  0.000000   0.000000   0.000000)
  18:       350.83    0.000000  (  0.000000   0.000000   0.000000)
  19:       389.09    0.000000  (  0.000000   0.000000   0.000000)
  20:       402.81    0.000000  (  0.000000   0.000000   0.000000)
  21:       416.41    0.000000  (  0.000000   0.000000   0.000000)
  22:       455.49    0.000000  (  0.000000   0.000000   0.000000)
  23:       496.98    0.000000  (  0.000000   0.000000   0.000000)
  24:       509.66    0.000000  (  0.000000   0.000000   0.000000)
  25:       586.48    0.000000  (  0.000000   0.000000   0.000000)
  26:       598.34    0.000000  (  0.000000   0.000000   0.000000)
  27:       610.61    0.000000  (  0.000000   0.000000   0.000000)
  28:       655.76    0.000000  (  0.000000   0.000000   0.000000)
  29:       670.95    0.000000  (  0.000000   0.000000   0.000000)
  30:       780.19    0.000000  (  0.000000   0.000000   0.000000)
  31:       795.20    0.000000  (  0.000000   0.000000   0.000000)
  32:       831.93    0.000000  (  0.000000   0.000000   0.000000)
  33:       859.42    0.000000  (  0.000000   0.000000   0.000000)
  34:       878.47    0.000000  (  0.000000   0.000000   0.000000)
  35:       903.98    0.000000  (  0.000000   0.000000   0.000000)
  36:       921.77    0.000000  (  0.000000   0.000000   0.000000)
  37:       941.41    0.000000  (  0.000000   0.000000   0.000000)
  38:       947.72    0.000000  (  0.000000   0.000000   0.000000)
  39:       953.14    0.000000  (  0.000000   0.000000   0.000000)
  40:       956.61    0.000000  (  0.000000   0.000000   0.000000)
  41:       971.09    0.000000  (  0.000000   0.000000   0.000000)
  42:      1014.03    0.000000  (  0.000000   0.000000   0.000000)
  43:      1039.47    0.000000  (  0.000000   0.000000   0.000000)
  44:      1056.11    0.000000  (  0.000000   0.000000   0.000000)
  45:      1076.04    0.000000  (  0.000000   0.000000   0.000000)
  46:      1111.09    0.000000  (  0.000000   0.000000   0.000000)
  47:      1121.04    0.000000  (  0.000000   0.000000   0.000000)
  48:      1129.13    0.000000  (  0.000000   0.000000   0.000000)
  49:      1182.80    0.000000  (  0.000000   0.000000   0.000000)
  50:      1185.35    0.000000  (  0.000000   0.000000   0.000000)
  51:      1207.11    0.000000  (  0.000000   0.000000   0.000000)
  52:      1213.74    0.000000  (  0.000000   0.000000   0.000000)
  53:      1248.87    0.000000  (  0.000000   0.000000   0.000000)
  54:      1258.14    0.000000  (  0.000000   0.000000   0.000000)
  55:      1265.00    0.000000  (  0.000000   0.000000   0.000000)
  56:      1276.81    0.000000  (  0.000000   0.000000   0.000000)
  57:      1283.66    0.000000  (  0.000000   0.000000   0.000000)
  58:      1297.68    0.000000  (  0.000000   0.000000   0.000000)
  59:      1331.47    0.000000  (  0.000000   0.000000   0.000000)
  60:      1336.21    0.000000  (  0.000000   0.000000   0.000000)
  61:      1367.91    0.000000  (  0.000000   0.000000   0.000000)
  62:      1404.39    0.000000  (  0.000000   0.000000   0.000000)
  63:      1434.67    0.000000  (  0.000000   0.000000   0.000000)
  64:      1435.06    0.000000  (  0.000000   0.000000   0.000000)
  65:      1462.48    0.000000  (  0.000000   0.000000   0.000000)
  66:      1505.48    0.000000  (  0.000000   0.000000   0.000000)
  67:      1506.91    0.000000  (  0.000000   0.000000   0.000000)
  68:      1510.66    0.000000  (  0.000000   0.000000   0.000000)
  69:      1515.66    0.000000  (  0.000000   0.000000   0.000000)
  70:      1518.26    0.000000  (  0.000000   0.000000   0.000000)
  71:      1521.85    0.000000  (  0.000000   0.000000   0.000000)
  72:      1565.31    0.000000  (  0.000000   0.000000   0.000000)
  73:      2873.75    0.000000  (  0.000000   0.000000   0.000000)
  74:      2893.92    0.000000  (  0.000000   0.000000   0.000000)
  75:      2897.34    0.000000  (  0.000000   0.000000   0.000000)
  76:      2904.23    0.000000  (  0.000000   0.000000   0.000000)
  77:      2915.78    0.000000  (  0.000000   0.000000   0.000000)
  78:      2919.72    0.000000  (  0.000000   0.000000   0.000000)
  79:      2932.42    0.000000  (  0.000000   0.000000   0.000000)
  80:      2936.29    0.000000  (  0.000000   0.000000   0.000000)
  81:      2942.96    0.000000  (  0.000000   0.000000   0.000000)
  82:      2971.14    0.000000  (  0.000000   0.000000   0.000000)
  83:      2986.48    0.000000  (  0.000000   0.000000   0.000000)
  84:      2990.91    0.000000  (  0.000000   0.000000   0.000000)
  85:      2996.43    0.000000  (  0.000000   0.000000   0.000000)
  86:      3004.26    0.000000  (  0.000000   0.000000   0.000000)
  87:      3011.99    0.000000  (  0.000000   0.000000   0.000000)
  88:      3137.56    0.000000  (  0.000000   0.000000   0.000000)
  89:      3430.45    0.000000  (  0.000000   0.000000   0.000000)

The first frequency considered to be a vibration is 7
The total number of vibrations considered is 83


--------------------------
THERMOCHEMISTRY AT 298.15K
--------------------------

Temperature         ... 298.15 K
Pressure            ... 1.00 atm
Total Mass          ... 179.26 AMU

Throughout the following assumptions are being made:
  (1) The electronic state is orbitally nondegenerate
  (2) There are no thermally accessible electronically excited states
  (3) Hindered rotations indicated by low frequency modes are not
      treated as such but are treated as vibrations and this may
      cause some error
  (4) All equations used are the standard statistical mechanics
      equations for an ideal gas
  (5) All vibrations are strictly harmonic

freq.      70.31  E(vib)   ...       0.50 
freq.      82.13  E(vib)   ...       0.48 
freq.      97.52  E(vib)   ...       0.46 
freq.     118.22  E(vib)   ...       0.44 
freq.     148.42  E(vib)   ...       0.41 
freq.     156.56  E(vib)   ...       0.40 
freq.     171.47  E(vib)   ...       0.38 
freq.     185.73  E(vib)   ...       0.37 
freq.     213.44  E(vib)   ...       0.34 
freq.     263.23  E(vib)   ...       0.29 
freq.     277.22  E(vib)   ...       0.28 
freq.     350.83  E(vib)   ...       0.23 
freq.     389.09  E(vib)   ...       0.20 
freq.     402.81  E(vib)   ...       0.19 
freq.     416.41  E(vib)   ...       0.18 
freq.     455.49  E(vib)   ...       0.16 
freq.     496.98  E(vib)   ...       0.14 
freq.     509.66  E(vib)   ...       0.14 
freq.     586.48  E(vib)   ...       0.11 
freq.     598.34  E(vib)   ...       0.10 
freq.     610.61  E(vib)   ...       0.10 
freq.     655.76  E(vib)   ...       0.08 
freq.     670.95  E(vib)   ...       0.08 
freq.     780.19  E(vib)   ...       0.05 
freq.     795.20  E(vib)   ...       0.05 
freq.     831.93  E(vib)   ...       0.04 
freq.     859.42  E(vib)   ...       0.04 
freq.     878.47  E(vib)   ...       0.04 
freq.     903.98  E(vib)   ...       0.03 
freq.     921.77  E(vib)   ...       0.03 
freq.     941.41  E(vib)   ...       0.03 
freq.     947.72  E(vib)   ...       0.03 
freq.     953.14  E(vib)   ...       0.03 
freq.     956.61  E(vib)   ...       0.03 
freq.     971.09  E(vib)   ...       0.03 
freq.    1014.03  E(vib)   ...       0.02 
freq.    1039.47  E(vib)   ...       0.02 
freq.    1056.11  E(vib)   ...       0.02 
freq.    1076.04  E(vib)   ...       0.02 
freq.    1111.09  E(vib)   ...       0.01 
freq.    1121.04  E(vib)   ...       0.01 
freq.    1129.13  E(vib)   ...       0.01 
freq.    1182.80  E(vib)   ...       0.01 
freq.    1185.35  E(vib)   ...       0.01 
freq.    1207.11  E(vib)   ...       0.01 
freq.    1213.74  E(vib)   ...       0.01 
freq.    1248.87  E(vib)   ...       0.01 
freq.    1258.14  E(vib)   ...       0.01 
freq.    1265.00  E(vib)   ...       0.01 
freq.    1276.81  E(vib)   ...       0.01 
freq.    1283.66  E(vib)   ...       0.01 
freq.    1297.68  E(vib)   ...       0.01 
freq.    1331.47  E(vib)   ...       0.01 
freq.    1336.21  E(vib)   ...       0.01 
freq.    1367.91  E(vib)   ...       0.01 
freq.    1404.39  E(vib)   ...       0.00 
freq.    1434.67  E(vib)   ...       0.00 
freq.    1435.06  E(vib)   ...       0.00 
freq.    1462.48  E(vib)   ...       0.00 
freq.    1505.48  E(vib)   ...       0.00 
freq.    1506.91  E(vib)   ...       0.00 
freq.    1510.66  E(vib)   ...       0.00 
freq.    1515.66  E(vib)   ...       0.00 
freq.    1518.26  E(vib)   ...       0.00 
freq.    1521.85  E(vib)   ...       0.00 
freq.    1565.31  E(vib)   ...       0.00 
freq.    2873.75  E(vib)   ...       0.00 
freq.    2893.92  E(vib)   ...       0.00 
freq.    2897.34  E(vib)   ...       0.00 
freq.    2904.23  E(vib)   ...       0.00 
freq.    2915.78  E(vib)   ...       0.00 
freq.    2919.72  E(vib)   ...       0.00 
freq.    2932.42  E(vib)   ...       0.00 
freq.    2936.29  E(vib)   ...       0.00 
freq.    2942.96  E(vib)   ...       0.00 
freq.    2971.14  E(vib)   ...       0.00 
freq.    2986.48  E(vib)   ...       0.00 
freq.    2990.91  E(vib)   ...       0.00 
freq.    2996.43  E(vib)   ...       0.00 
freq.    3004.26  E(vib)   ...       0.00 
freq.    3011.99  E(vib)   ...       0.00 
freq.    3137.56  E(vib)   ...       0.00 
freq.    3430.45  E(vib)   ...       0.00 

------------
INNER ENERGY
------------

The inner energy is: U= E(el) + E(ZPE) + E(vib) + E(rot) + E(trans)
    E(el)   - is the total energy from the electronic structure calculation
              = E(kin-el) + E(nuc-el) + E(el-el) + E(nuc-nuc)
    E(ZPE)  - the the zero temperature vibrational energy from the frequency calculation
    E(vib)  - the the finite temperature correction to E(ZPE) due to population
              of excited vibrational states
    E(rot)  - is the rotational thermal energy
    E(trans)- is the translational thermal energy

Summary of contributions to the inner energy U:
Electronic energy                ...    -39.12740452 Eh
Zero point energy                ...      0.25013493 Eh     156.96 kcal/mol
Thermal vibrational correction   ...      0.01075116 Eh       6.75 kcal/mol
Thermal rotational correction    ...      0.00141627 Eh       0.89 kcal/mol
Thermal translational correction ...      0.00141627 Eh       0.89 kcal/mol
-----------------------------------------------------------------------
Total thermal energy                    -38.86368589 Eh


Summary of corrections to the electronic energy:
(perhaps to be used in another calculation)
Total thermal correction                  0.01358370 Eh       8.52 kcal/mol
Non-thermal (ZPE) correction              0.25013493 Eh     156.96 kcal/mol
-----------------------------------------------------------------------
Total correction                          0.26371863 Eh     165.49 kcal/mol


--------
ENTHALPY
--------

The enthalpy is H = U + kB*T
                kB is Boltzmann's constant
Total free energy                 ...    -38.86368589 Eh 
Thermal Enthalpy correction       ...      0.00094421 Eh       0.59 kcal/mol
-----------------------------------------------------------------------
Total Enthalpy                    ...    -38.86274168 Eh


Note: Only C1 symmetry has been detected, increase convergence thresholds 
      if your molecule has a higher symmetry. Symmetry factor of 1.0 is   
      used for the rotational entropy correction. 
 

Note: Rotational entropy computed according to Herzberg 
Infrared and Raman Spectra, Chapter V,1, Van Nostrand Reinhold, 1945 
Point Group:  C1, Symmetry Number:   1  
Rotational constants in cm-1:     0.077831     0.009186     0.009039 

Vibrational entropy computed according to the QRRHO of S. Grimme
Chem.Eur.J. 2012 18 9955


-------
ENTROPY
-------

The entropy contributions are T*S = T*(S(el)+S(vib)+S(rot)+S(trans))
     S(el)   - electronic entropy
     S(vib)  - vibrational entropy
     S(rot)  - rotational entropy
     S(trans)- translational entropy
The entropies will be listed as mutliplied by the temperature to get
units of energy

Electronic entropy                ...      0.00000000 Eh      0.00 kcal/mol
Vibrational entropy               ...      0.01850387 Eh     11.61 kcal/mol
Rotational entropy                ...      0.01515203 Eh      9.51 kcal/mol
Translational entropy             ...      0.01969790 Eh     12.36 kcal/mol
-----------------------------------------------------------------------
Final entropy term                ...      0.05335379 Eh     33.48 kcal/mol

In case the symmetry of your molecule has not been determined correctly
or in case you have a reason to use a different symmetry number we print 
out the resulting rotational entropy values for sn=1,12 :
 --------------------------------------------------------
|  sn= 1 | S(rot)=       0.01515203 Eh      9.51 kcal/mol|
|  sn= 2 | S(rot)=       0.01449757 Eh      9.10 kcal/mol|
|  sn= 3 | S(rot)=       0.01411474 Eh      8.86 kcal/mol|
|  sn= 4 | S(rot)=       0.01384312 Eh      8.69 kcal/mol|
|  sn= 5 | S(rot)=       0.01363243 Eh      8.55 kcal/mol|
|  sn= 6 | S(rot)=       0.01346028 Eh      8.45 kcal/mol|
|  sn= 7 | S(rot)=       0.01331474 Eh      8.36 kcal/mol|
|  sn= 8 | S(rot)=       0.01318866 Eh      8.28 kcal/mol|
|  sn= 9 | S(rot)=       0.01307745 Eh      8.21 kcal/mol|
|  sn=10 | S(rot)=       0.01297797 Eh      8.14 kcal/mol|
|  sn=11 | S(rot)=       0.01288798 Eh      8.09 kcal/mol|
|  sn=12 | S(rot)=       0.01280583 Eh      8.04 kcal/mol|
 --------------------------------------------------------


-------------------
GIBBS FREE ENERGY
-------------------

The Gibbs free energy is G = H - T*S

Total enthalpy                    ...    -38.86274168 Eh 
Total entropy correction          ...     -0.05335379 Eh    -33.48 kcal/mol
-----------------------------------------------------------------------
Final Gibbs free energy         ...    -38.91609547 Eh

For completeness - the Gibbs free energy minus the electronic energy
G-E(el)                           ...      0.21130905 Eh    132.60 kcal/mol


Total Time for Numerical Frequencies  :       217.867 sec
Time for Reference State(s)           :         1.686 sec
Time for Displacements                :       206.078 sec

Timings for individual modules:

Sum of individual times         ...        3.571 sec (=   0.060 min)
XTB module                      ...        3.571 sec (=   0.060 min) 100.0 %
                             ****ORCA TERMINATED NORMALLY****
TOTAL RUN TIME: 0 days 0 hours 3 minutes 42 seconds 919 msec
