(SLURM) JOB ID:         241

                                 *****************
                                 * O   R   C   A *
                                 *****************

           --- An Ab Initio, DFT and Semiempirical electronic structure package ---

                  #######################################################
                  #                        -***-                        #
                  #          Department of theory and spectroscopy      #
                  #               Directorship: Frank Neese             #
                  #        Max Planck Institute fuer Kohlenforschung    #
                  #                Kaiser Wilhelm Platz 1               #
                  #                 D-45470 Muelheim/Ruhr               #
                  #                      Germany                        #
                  #                                                     #
                  #                  All rights reserved                #
                  #                        -***-                        #
                  #######################################################


                         Program Version 4.2.1 -  RELEASE  -


 With contributions from (in alphabetic order):
   Daniel Aravena         : Magnetic Suceptibility
   Michael Atanasov       : Ab Initio Ligand Field Theory (pilot matlab implementation)
   Alexander A. Auer      : GIAO ZORA, VPT2
   Ute Becker             : Parallelization
   Giovanni Bistoni       : ED, misc. LED, open-shell LED, HFLD
   Martin Brehm           : Molecular dynamics
   Dmytro Bykov           : SCF Hessian
   Vijay G. Chilkuri      : MRCI spin determinant printing, contributions to CSF-ICE
   Dipayan Datta          : RHF DLPNO-CCSD density
   Achintya Kumar Dutta   : EOM-CC, STEOM-CC
   Dmitry Ganyushin       : Spin-Orbit,Spin-Spin,Magnetic field MRCI
   Miquel Garcia          : C-PCM Hessian, Gaussian charge scheme
   Yang Guo               : DLPNO-NEVPT2, CIM, IAO-localization
   Andreas Hansen         : Spin unrestricted coupled pair/coupled cluster methods
   Benjamin Helmich-Paris : CASSCF linear response (MC-RPA)
   Lee Huntington         : MR-EOM, pCC
   Robert Izsak           : Overlap fitted RIJCOSX, COSX-SCS-MP3, EOM
   Christian Kollmar      : KDIIS, OOCD, Brueckner-CCSD(T), CCSD density
   Simone Kossmann        : Meta GGA functionals, TD-DFT gradient, OOMP2, MP2 Hessian
   Martin Krupicka        : AUTO-CI
   Lucas Lang             : DCDCAS
   Dagmar Lenk            : GEPOL surface, SMD
   Dimitrios Liakos       : Extrapolation schemes; Compound Job, initial MDCI parallelization
   Dimitrios Manganas     : Further ROCIS development; embedding schemes
   Dimitrios Pantazis     : SARC Basis sets
   Taras Petrenko         : DFT Hessian,TD-DFT gradient, ASA, ECA, R-Raman, ABS, FL, XAS/XES, NRVS
   Peter Pinski           : DLPNO-MP2, DLPNO-MP2 Gradient
   Christoph Reimann      : Effective Core Potentials
   Marius Retegan         : Local ZFS, SOC
   Christoph Riplinger    : Optimizer, TS searches, QM/MM, DLPNO-CCSD(T), (RO)-DLPNO pert. Triples
   Tobias Risthaus        : Range-separated hybrids, TD-DFT gradient, RPA, STAB
   Michael Roemelt        : Original ROCIS implementation
   Masaaki Saitow         : Open-shell DLPNO-CCSD energy and density
   Barbara Sandhoefer     : DKH picture change effects
   Avijit Sen             : IP-ROCIS
   Kantharuban Sivalingam : CASSCF convergence, NEVPT2, FIC-MRCI
   Bernardo de Souza      : ESD, SOC TD-DFT
   Georgi Stoychev        : AutoAux, RI-MP2 NMR
   Willem Van den Heuvel  : Paramagnetic NMR
   Boris Wezisla          : Elementary symmetry handling
   Frank Wennmohs         : Technical directorship


 We gratefully acknowledge several colleagues who have allowed us to
 interface, adapt or use parts of their codes:
   Stefan Grimme, W. Hujo, H. Kruse,             : VdW corrections, initial TS optimization,
                  C. Bannwarth                     DFT functionals, gCP, sTDA/sTD-DF
   Ed Valeev, F. Pavosevic, A. Kumar             : LibInt (2-el integral package), F12 methods
   Garnet Chan, S. Sharma, J. Yang, R. Olivares  : DMRG
   Ulf Ekstrom                                   : XCFun DFT Library
   Mihaly Kallay                                 : mrcc  (arbitrary order and MRCC methods)
   Andreas Klamt, Michael Diedenhofen            : otool_cosmo (COSMO solvation model)
   Jiri Pittner, Ondrej Demel                    : Mk-CCSD
   Frank Weinhold                                : gennbo (NPA and NBO analysis)
   Christopher J. Cramer and Donald G. Truhlar   : smd solvation model
   Lars Goerigk                                  : TD-DFT with DH, B97 family of functionals
   V. Asgeirsson, H. Jonsson                     : NEB implementation
   FAccTs GmbH                                   : IRC, NEB, NEB-TS, Multilevel, MM, QM/MM, CI optimization
   S Lehtola, MJT Oliveira, MAL Marques          : LibXC Library


 Your calculation uses the libint2 library for the computation of 2-el integrals
 For citations please refer to: http://libint.valeyev.net

 Your ORCA version has been built with support for libXC version: 4.2.3
 For citations please refer to: https://tddft.org/programs/libxc/

 This ORCA versions uses:
   CBLAS   interface :  Fast vector & matrix operations
   LAPACKE interface :  Fast linear algebra routines
   SCALAPACK package :  Parallel linear algebra routines




***************************************
The coordinates will be read from file: init.xyz
***************************************


Your calculation utilizes the SMD solvation module
Please cite in your paper:
A.V. Marenich, C.J. Cramer, D.G. Truhlar J. Phys. Chem. B, 113, (2009), 6378 

Your calculation utilizes the semiempirical GFN2-xTB method
Please cite in your paper:
C. Bannwarth, Ehlert S., S. Grimme,  J. Chem. Theory Comput., 15, (2019), 1652.
   

----- Orbital basis set information -----
Your calculation utilizes the basis: def2-SVP
   F. Weigend and R. Ahlrichs, Phys. Chem. Chem. Phys. 7, 3297 (2005).

================================================================================
                                        WARNINGS
                       Please study these warnings very carefully!
================================================================================

WARNING: Gradients needed for Numerical Frequencies
  ===> : Setting RunTyp to EnGrad

WARNING: The environment variable RSH_COMMAND is not set!
  ===> : All Displacements for the Numerical Hessian calculation
         will be started on localhost

WARNING: Found dipole moment calculation with XTB calculation
  ===> : Switching off dipole moment calculation


INFO   : the flag for use of LIBINT has been found!

================================================================================
                                       INPUT FILE
================================================================================
NAME = /tmp/slurm-scratch/freq.241/freq.inp
|  1> ! XTB2 NumFreq
|  2> %maxcore 1450
|  3> 
|  4> * xyzfile 0 1 init.xyz
|  5> 
|  6> %cpcm
|  7>  smd true
|  8>  smdsolvent "ch2cl2"
|  9> end
| 10> %pal nprocs 8 end
| 11> 
| 12>                          ****END OF INPUT****
================================================================================

                     *******************************
                     * Energy+Gradient Calculation *
                     *******************************

      -----------------------------------------------------------      
     |                   =====================                   |     
     |                           x T B                           |     
     |                   =====================                   |     
     |                         S. Grimme                         |     
     |          Mulliken Center for Theoretical Chemistry        |     
     |                    University of Bonn                     |     
      -----------------------------------------------------------      

   * xtb version 6.3.0 (preview) compiled by 'ehlert@majestix' on 2020-01-15

   This program is distributed in the hope that it will be useful,
   but WITHOUT ANY WARRANTY; without even the implied warranty of
   MERCHANTABILITY or FITNESS FOR A PARTICULAR PURPOSE.
   
   FOR NON-COMMERCIAL, ACADEMIA USE ONLY.
   
   Cite this work as:
   * S. Grimme, C. Bannwarth, P. Shushkov, J. Chem. Theory Comput., 2017,
     13, 1989-2009. DOI: 10.1021/acs.jctc.7b00118
   * C. Bannwarth, S. Ehlert and S. Grimme., J. Chem. Theory Comput., 2019,
     15, 1652-1671. DOI: 10.1021/acs.jctc.8b01176
   * P. Pracht, E. Caldeweyher, S. Ehlert, S. Grimme, ChemRxiv, 2019, preprint.
     DOI: 10.26434/chemrxiv.8326202.v1
   * S. Grimme, S. Spicher unpublished
   
   for DFT-D4:
   * E. Caldeweyher, C. Bannwarth and S. Grimme, J. Chem. Phys., 2017,
     147, 034112. DOI: 10.1063/1.4993215
   * E. Caldeweyher, S. Ehlert, A. Hansen, H. Neugebauer, S. Spicher,
     C. Bannwarth and S. Grimme, J. Chem. Phys., 2019, 150, 154122.
     DOI: 10.1063/1.5090222
   
   for sTDA-xTB:
   * S. Grimme and C. Bannwarth, J. Chem. Phys., 2016, 145, 054103.
     DOI: 10.1063/1.4959605
   
   in the mass-spec context:
   * V. Asgeirsson, C. Bauer and S. Grimme, Chem. Sci., 2017, 8, 4879.
     DOI: 10.1039/c7sc00601b
   
   for metadynamics refer to:
   * S. Grimme, J. Chem. Theory Comput., 2019, 155, 2847-2862
     DOI: 10.1021/acs.jctc.9b00143
   
   with help from (in alphabetical order)
   C. Bannwarth, F. Bohle, G. Brandenburg, E. Caldeweyher, M. Checinski,
   S. Dohm, S. Ehlert, S. Ehrlich, F. März, H. Neugebauer, J. Pisarek,
   P. Pracht, P. Shushkov, and S. Spicher.
   
 * started run on 2020/10/03 at 11:53:21.011     

           -------------------------------------------------
          |                Calculation Setup                |
           -------------------------------------------------

          program call               : /opt/orca/otool_xtb /tmp/slurm-scratch/freq.241/freq_XTB.xyz --grad -c 0 -u 0 -P 8 --namespace /tmp/slurm-scratch/freq.241/freq --gbsa CH2Cl2
          hostname                   : headnode-pbs
          calculation namespace      : /tmp/slurm-scratch/freq.241/freq
          coordinate file            : /tmp/slurm-scratch/freq.241/freq_XTB.xyz
          omp threads                :                     8
          number of atoms            :                    30
          number of electrons        :                    72
          charge                     :                     0
          spin                       :                   0.0
          first test random number   :      0.48572968099593


molecular fragmentation (1/2 indicates fragments):
111111111111112112111111111111
# atoms in fragment 1/2:    28     2
 fragment masses (1/2) :      162.25       17.01
CMA distance (Bohr)    :   3.655
constraining FC (au)   :  0.0500

########################################################################
# WARNING! Please study the warnings concerning your input carefully
#  - Process number higher than OMP_NUM_THREADS, I hope you know what you are doing.
########################################################################

           ------------------------------------------------- 
          |                 G F N 2 - x T B                 |
          | Geometry, Frequencies, Noncovalent interactions |
          |            JCTC 2019 parametrisation            |
           ------------------------------------------------- 
             k(s)              :                1.8500
             k(p)              :                2.2300
             k(d)              :                2.2300
             k(f)              :                2.0000
             kEN (H0ij)        :               -2.0000
             D4 a1             :                0.5200
             D4 a2             :                5.0000
             D4 s6             :                1.0000
             D4 s8             :                2.7000
             D4 s9             :                5.0000
             alphaj            :                2.0000

  Z AO/shell   Hii/eV     exponent
  1     Wed Apr 25 08:07:45 CEST 2018   EN: 2.200 GM2: 0.406  GM3: 0.0800  RAES: 1.40
     1s    -10.707211    1.230000
  6     Wed Apr 25 08:07:45 CEST 2018   EN: 2.550 GM2: 0.538  GM3: 0.1500  RAES: 3.00
     2s    -13.970922    2.096432
     2p    -10.063292    1.800000
  7     Wed Apr 25 08:07:45 CEST 2018   EN: 3.040 GM2: 0.461  GM3:-0.0640  RAES: 1.90
     2s    -16.686243    2.339881
     2p    -12.523956    2.014332
  8     Wed Apr 25 08:07:45 CEST 2018   EN: 3.440 GM2: 0.452  GM3:-0.0517  RAES: 1.80
     2s    -20.229985    2.439742
     2p    -15.503117    2.137023

 Solvent             : CH2Cl2
 Using internal parameter file: .param_gbsa2_CH2Cl2
 Gsolv ref. state (COSMO-RS): gsolv [1 M gas/solution]
 temperature (mdtemp)       :    298.150000000000     
 dielectric constant        :    8.93000000000000     
 rho                        :    1.33000000000000     
 mass                       :    84.9300000000000     
 surface tension            :    15.5689454083859     
 probe radius               :   0.719875900000000     
 Gshift (Eh)                :   4.440829173451759E-003
 c1                         :    1.49173776000000     
 soset                      :   0.000000000000000E+000
 HB correction              :  F
           ------------------------------------------------- 
          |        Self-Consistent Charge Iterations        |
           ------------------------------------------------- 

          ...................................................
          :                      SETUP                      :
          :.................................................:
          :  # basis functions                  69          :
          :  # atomic orbitals                  69          :
          :  # shells                           43          :
          :  # electrons                        72          :
          :  max. iterations                   250          :
          :  Hamiltonian                  GFN2-xTB          :
          :  GBSA solvation                   true          :
          :  PC potential                    false          :
          :  electronic temp.          300.0000000     K    :
          :  accuracy                    1.0000000          :
          :  -> integral cutoff          0.2500000E+02      :
          :  -> integral neglect         0.1000000E-07      :
          :  -> SCF convergence          0.1000000E-05 Eh   :
          :  -> wf. convergence          0.1000000E-03 e    :
          :  Broyden damping             0.4000000          :
          ...................................................
  Checking positiv definite overlap ...  done.
 

 iter      E             dE          RMSdq      gap      omega  full diag
   1    -39.5857253 -0.395857E+02  0.420E+00    3.30       0.0  T
   2    -39.6946778 -0.108953E+00  0.249E+00    1.57       1.0  T
   3    -39.4287562  0.265922E+00  0.309E+00    0.27       1.0  T
   4    -39.6882361 -0.259480E+00  0.154E+00    2.19       1.0  T
   5    -39.7001677 -0.119316E-01  0.771E-01    1.69       1.0  T
   6    -39.7061993 -0.603166E-02  0.532E-01    1.36       1.0  T
   7    -39.7114262 -0.522689E-02  0.226E-01    1.07       1.0  T
   8    -39.7125983 -0.117210E-02  0.434E-02    0.94       1.0  T
   9    -39.7125735  0.248535E-04  0.365E-02    0.92       1.0  T
  10    -39.7126063 -0.327972E-04  0.563E-03    0.94       3.2  T
  11    -39.7126063 -0.347780E-07  0.429E-03    0.94       4.3  T
  12    -39.7126054  0.917601E-06  0.659E-03    0.93       2.8  T
  13    -39.7126066 -0.116022E-05  0.355E-04    0.94      51.4  T
  14    -39.7126065  0.137409E-07  0.774E-04    0.94      23.6  T
  15    -39.7126066 -0.144349E-07  0.654E-05    0.94     279.1  T

   *** convergence criteria satisfied after 15 iterations ***

         #    Occupation            Energy/Eh            Energy/eV
      -------------------------------------------------------------
         1        2.0000           -0.6844950             -18.6261
       ...           ...                  ...                  ...
        30        2.0000           -0.4359219             -11.8620
        31        2.0000           -0.4321064             -11.7582
        32        2.0000           -0.4240820             -11.5399
        33        2.0000           -0.4148205             -11.2878
        34        2.0000           -0.4120652             -11.2129
        35        2.0000           -0.3375125              -9.1842
        36        2.0000           -0.3339548              -9.0874 (HOMO)
        37                         -0.2995553              -8.1513 (LUMO)
        38                         -0.2334141              -6.3515
        39                         -0.2051528              -5.5825
        40                         -0.0957377              -2.6052
        41                         -0.0149327              -0.4063
       ...                                ...                  ...
        69                          0.6489275              17.6582
      -------------------------------------------------------------
                  HL-Gap            0.0343994 Eh            0.9361 eV
             Fermi-level           -0.3167439 Eh           -8.6190 eV

 SCC (total)                   0 d,  0 h,  0 min,  0.041 sec
 SCC setup                      ...        0 min,  0.001 sec (  3.354%)
 Dispersion                     ...        0 min,  0.000 sec (  0.934%)
 integral evaluation            ...        0 min,  0.007 sec ( 16.564%)
 zeroth order Hamiltonian       ...        0 min,  0.000 sec (  0.044%)
 iterations                     ...        0 min,  0.023 sec ( 56.498%)
 molecular gradient             ...        0 min,  0.009 sec ( 21.256%)
 printout                       ...        0 min,  0.000 sec (  1.181%)

         :::::::::::::::::::::::::::::::::::::::::::::::::::::
         ::                     SUMMARY                     ::
         :::::::::::::::::::::::::::::::::::::::::::::::::::::
         :: total energy             -39.130556552466 Eh    ::
         :: total w/o Gsasa/hb       -39.114600705475 Eh    ::
         :: gradient norm              0.034788871891 Eh/a0 ::
         :: HOMO-LUMO gap              0.936056393848 eV    ::
         ::.................................................::
         :: SCC energy               -39.728562400474 Eh    ::
         :: -> isotropic ES            0.128267368470 Eh    ::
         :: -> anisotropic ES         -0.012797104694 Eh    ::
         :: -> anisotropic XC          0.023470860714 Eh    ::
         :: -> dispersion             -0.023511018066 Eh    ::
         :: -> Gsolv                  -0.039554629492 Eh    ::
         ::    -> Gborn               -0.023598782500 Eh    ::
         ::    -> Gsasa               -0.020396676165 Eh    ::
         ::    -> Ghb                  0.000000000000 Eh    ::
         ::    -> Gshift               0.004440829173 Eh    ::
         :: repulsion energy           0.598066656679 Eh    ::
         :: add. restraining           0.000000000000 Eh    ::
         :::::::::::::::::::::::::::::::::::::::::::::::::::::

           -------------------------------------------------
          |                Property Printout                |
           -------------------------------------------------

    * Orbital Energies and Occupations

         #    Occupation            Energy/Eh            Energy/eV
      -------------------------------------------------------------
         1        2.0000           -0.6844950             -18.6261
       ...           ...                  ...                  ...
        24        2.0000           -0.4758375             -12.9482
        25        2.0000           -0.4719112             -12.8414
        26        2.0000           -0.4512261             -12.2785
        27        2.0000           -0.4498883             -12.2421
        28        2.0000           -0.4402794             -11.9806
        29        2.0000           -0.4378514             -11.9145
        30        2.0000           -0.4359219             -11.8620
        31        2.0000           -0.4321064             -11.7582
        32        2.0000           -0.4240820             -11.5399
        33        2.0000           -0.4148205             -11.2878
        34        2.0000           -0.4120652             -11.2129
        35        2.0000           -0.3375125              -9.1842
        36        2.0000           -0.3339548              -9.0874 (HOMO)
        37                         -0.2995553              -8.1513 (LUMO)
        38                         -0.2334141              -6.3515
        39                         -0.2051528              -5.5825
        40                         -0.0957377              -2.6052
        41                         -0.0149327              -0.4063
        42                          0.0590730               1.6075
        43                          0.0878434               2.3903
        44                          0.1034063               2.8138
        45                          0.1161155               3.1597
        46                          0.1173131               3.1923
        47                          0.1273154               3.4644
       ...                                ...                  ...
        69                          0.6489275              17.6582
      -------------------------------------------------------------
                  HL-Gap            0.0343994 Eh            0.9361 eV
             Fermi-level           -0.3167439 Eh           -8.6190 eV

     #   Z        covCN         q      C6AA      α(0)
     1   6 C      2.913    -0.026    28.644     8.776
     2   6 C      2.925    -0.028    28.690     8.784
     3   6 C      2.970     0.025    27.453     8.594
     4   6 C      2.918    -0.019    28.475     8.751
     5   6 C      2.914    -0.026    28.653     8.778
     6   6 C      2.916    -0.023    28.578     8.766
     7   1 H      0.925     0.049     2.328     2.386
     8   1 H      0.926     0.045     2.378     2.411
     9   1 H      0.925     0.049     2.327     2.386
    10   7 N      2.682    -0.036    21.937     6.956
    11   6 C      3.745    -0.015    20.912     6.523
    12   1 H      0.925     0.074     2.044     2.236
    13   1 H      0.924     0.080     1.976     2.198
    14   1 H      0.860     0.236     0.942     1.520
    15   1 H      0.805     0.139     1.496     1.921
    16   6 C      2.840     0.081    26.186     8.386
    17   1 H      0.925     0.084     1.940     2.178
    18   8 O      0.805    -0.861    33.558     7.765
    19   6 C      3.803    -0.063    21.706     6.633
    20   1 H      0.924     0.060     2.197     2.318
    21   1 H      0.924     0.044     2.402     2.424
    22   1 H      0.925     0.050     2.322     2.383
    23   1 H      0.925     0.048     2.350     2.397
    24   6 C      3.800    -0.055    21.565     6.612
    25   1 H      0.924     0.042     2.419     2.432
    26   1 H      0.924     0.039     2.466     2.456
    27   6 C      3.750    -0.103    22.527     6.769
    28   1 H      0.924     0.040     2.445     2.445
    29   1 H      0.924     0.036     2.501     2.473
    30   1 H      0.924     0.033     2.539     2.492

 Mol. C6AA /au·bohr⁶  :       8279.660470
 Mol. C8AA /au·bohr⁸  :     188090.910471
 Mol. α(0) /au        :        141.150914


Wiberg/Mayer (AO) data.
largest (>0.10) Wiberg bond orders for each atom
          total WBO             WBO to atom ...
     1  C   3.991        C    2 1.458    C    6 1.432    H   22 0.970    C    4 0.102
     2  C   3.987        C    1 1.458    C    3 1.347    H    7 0.968
     3  C   3.986        C    2 1.347    C    4 1.332    C   16 1.144
     4  C   3.991        C    5 1.482    C    3 1.332    H    8 0.965    C    1 0.102
     5  C   3.991        C    4 1.482    C    6 1.408    H   23 0.970
     6  C   3.988        C    1 1.432    C    5 1.408    H    9 0.971
     7  H   0.998        C    2 0.968
     8  H   0.998        C    4 0.965
     9  H   0.997        C    6 0.971
    10  N   3.625        C   16 1.538    C   11 0.982    H   14 0.879    O   18 0.110
    11  C   3.951        C   19 0.991    N   10 0.982    H   12 0.967    H   13 0.958
    12  H   0.995        C   11 0.967
    13  H   0.991        C   11 0.958
    14  H   0.945        N   10 0.879
    15  H   0.981        O   18 0.976
    16  C   3.945        N   10 1.538    C    3 1.144    H   17 0.950    O   18 0.204
    17  H   0.993        C   16 0.950
    18  O   1.467        H   15 0.976    C   16 0.204    N   10 0.110
    19  C   3.986        C   24 1.004    C   11 0.991    H   21 0.975    H   20 0.970
    20  H   0.996        C   19 0.970
    21  H   0.998        C   19 0.975
    22  H   0.997        C    1 0.970
    23  H   0.997        C    5 0.970
    24  C   3.995        C   27 1.019    C   19 1.004    H   26 0.977    H   25 0.977
    25  H   0.998        C   24 0.977
    26  H   0.998        C   24 0.977
    27  C   3.995        C   24 1.019    H   30 0.988    H   29 0.988    H   28 0.986
    28  H   0.998        C   27 0.986
    29  H   0.999        C   27 0.988
    30  H   0.999        C   27 0.988

molecular dipole:
                 x           y           z       tot (Debye)
 q only:       -0.108       1.488      -2.235
   full:        0.012       1.228      -1.873       5.692
molecular quadrupole (traceless):
                xx          xy          yy          xz          yz          zz
 q only:        8.332      -3.068      -3.857       6.422      -3.592      -4.475
  q+dip:        6.458      -3.613      -0.345       7.377       0.220      -6.113
   full:        5.560      -3.206      -1.443       6.654      -2.169      -4.117

           -------------------------------------------------
          |                Property Printout                |
           -------------------------------------------------

    * Orbital Energies and Occupations

         #    Occupation            Energy/Eh            Energy/eV
      -------------------------------------------------------------
         1        2.0000           -0.6844950             -18.6261
       ...           ...                  ...                  ...
        24        2.0000           -0.4758375             -12.9482
        25        2.0000           -0.4719112             -12.8414
        26        2.0000           -0.4512261             -12.2785
        27        2.0000           -0.4498883             -12.2421
        28        2.0000           -0.4402794             -11.9806
        29        2.0000           -0.4378514             -11.9145
        30        2.0000           -0.4359219             -11.8620
        31        2.0000           -0.4321064             -11.7582
        32        2.0000           -0.4240820             -11.5399
        33        2.0000           -0.4148205             -11.2878
        34        2.0000           -0.4120652             -11.2129
        35        2.0000           -0.3375125              -9.1842
        36        2.0000           -0.3339548              -9.0874 (HOMO)
        37                         -0.2995553              -8.1513 (LUMO)
        38                         -0.2334141              -6.3515
        39                         -0.2051528              -5.5825
        40                         -0.0957377              -2.6052
        41                         -0.0149327              -0.4063
        42                          0.0590730               1.6075
        43                          0.0878434               2.3903
        44                          0.1034063               2.8138
        45                          0.1161155               3.1597
        46                          0.1173131               3.1923
        47                          0.1273154               3.4644
       ...                                ...                  ...
        69                          0.6489275              17.6582
      -------------------------------------------------------------
                  HL-Gap            0.0343994 Eh            0.9361 eV
             Fermi-level           -0.3167439 Eh           -8.6190 eV

     #   Z        covCN         q      C6AA      α(0)
     1   6 C      2.913    -0.026    28.644     8.776
     2   6 C      2.925    -0.028    28.690     8.784
     3   6 C      2.970     0.025    27.453     8.594
     4   6 C      2.918    -0.019    28.475     8.751
     5   6 C      2.914    -0.026    28.653     8.778
     6   6 C      2.916    -0.023    28.578     8.766
     7   1 H      0.925     0.049     2.328     2.386
     8   1 H      0.926     0.045     2.378     2.411
     9   1 H      0.925     0.049     2.327     2.386
    10   7 N      2.682    -0.036    21.937     6.956
    11   6 C      3.745    -0.015    20.912     6.523
    12   1 H      0.925     0.074     2.044     2.236
    13   1 H      0.924     0.080     1.976     2.198
    14   1 H      0.860     0.236     0.942     1.520
    15   1 H      0.805     0.139     1.496     1.921
    16   6 C      2.840     0.081    26.186     8.386
    17   1 H      0.925     0.084     1.940     2.178
    18   8 O      0.805    -0.861    33.558     7.765
    19   6 C      3.803    -0.063    21.706     6.633
    20   1 H      0.924     0.060     2.197     2.318
    21   1 H      0.924     0.044     2.402     2.424
    22   1 H      0.925     0.050     2.322     2.383
    23   1 H      0.925     0.048     2.350     2.397
    24   6 C      3.800    -0.055    21.565     6.612
    25   1 H      0.924     0.042     2.419     2.432
    26   1 H      0.924     0.039     2.466     2.456
    27   6 C      3.750    -0.103    22.527     6.769
    28   1 H      0.924     0.040     2.445     2.445
    29   1 H      0.924     0.036     2.501     2.473
    30   1 H      0.924     0.033     2.539     2.492

 Mol. C6AA /au·bohr⁶  :       8279.660470
 Mol. C8AA /au·bohr⁸  :     188090.910471
 Mol. α(0) /au        :        141.150914


Wiberg/Mayer (AO) data.
largest (>0.10) Wiberg bond orders for each atom
          total WBO             WBO to atom ...
     1  C   3.991        C    2 1.458    C    6 1.432    H   22 0.970    C    4 0.102
     2  C   3.987        C    1 1.458    C    3 1.347    H    7 0.968
     3  C   3.986        C    2 1.347    C    4 1.332    C   16 1.144
     4  C   3.991        C    5 1.482    C    3 1.332    H    8 0.965    C    1 0.102
     5  C   3.991        C    4 1.482    C    6 1.408    H   23 0.970
     6  C   3.988        C    1 1.432    C    5 1.408    H    9 0.971
     7  H   0.998        C    2 0.968
     8  H   0.998        C    4 0.965
     9  H   0.997        C    6 0.971
    10  N   3.625        C   16 1.538    C   11 0.982    H   14 0.879    O   18 0.110
    11  C   3.951        C   19 0.991    N   10 0.982    H   12 0.967    H   13 0.958
    12  H   0.995        C   11 0.967
    13  H   0.991        C   11 0.958
    14  H   0.945        N   10 0.879
    15  H   0.981        O   18 0.976
    16  C   3.945        N   10 1.538    C    3 1.144    H   17 0.950    O   18 0.204
    17  H   0.993        C   16 0.950
    18  O   1.467        H   15 0.976    C   16 0.204    N   10 0.110
    19  C   3.986        C   24 1.004    C   11 0.991    H   21 0.975    H   20 0.970
    20  H   0.996        C   19 0.970
    21  H   0.998        C   19 0.975
    22  H   0.997        C    1 0.970
    23  H   0.997        C    5 0.970
    24  C   3.995        C   27 1.019    C   19 1.004    H   26 0.977    H   25 0.977
    25  H   0.998        C   24 0.977
    26  H   0.998        C   24 0.977
    27  C   3.995        C   24 1.019    H   30 0.988    H   29 0.988    H   28 0.986
    28  H   0.998        C   27 0.986
    29  H   0.999        C   27 0.988
    30  H   0.999        C   27 0.988

molecular dipole:
                 x           y           z       tot (Debye)
 q only:       -0.108       1.488      -2.235
   full:        0.012       1.228      -1.873       5.692
molecular quadrupole (traceless):
                xx          xy          yy          xz          yz          zz
 q only:        8.332      -3.068      -3.857       6.422      -3.592      -4.475
  q+dip:        6.458      -3.613      -0.345       7.377       0.220      -6.113
   full:        5.560      -3.206      -1.443       6.654      -2.169      -4.117


           -------------------------------------------------
          | TOTAL ENERGY              -39.130556552466 Eh   |
          | GRADIENT NORM               0.034788871891 Eh/α |
          | HOMO-LUMO GAP               0.936056393848 eV   |
           -------------------------------------------------

------------------------------------------------------------------------
 * finished run on 2020/10/03 at 11:53:21.104     
------------------------------------------------------------------------
 total:
 * wall-time:     0 d,  0 h,  0 min,  0.093 sec
 *  cpu-time:     0 d,  0 h,  0 min,  0.735 sec
 * ratio c/w:     7.887 speedup
 SCF:
 * wall-time:     0 d,  0 h,  0 min,  0.041 sec
 *  cpu-time:     0 d,  0 h,  0 min,  0.346 sec
 * ratio c/w:     8.363 speedup


-------------------------   --------------------
FINAL SINGLE POINT ENERGY       -39.130556552470
-------------------------   --------------------


----------------------------------------------------------------------------
                           ORCA NUMERICAL FREQUENCIES
                              (8-process run)
----------------------------------------------------------------------------

Number of atoms                ... 30
Central differences            ... used
Number of displacements        ... 180
Numerical increment            ... 5.000e-03 bohr
IR-spectrum generation         ... on
Raman-spectrum generation      ... off
Surface Crossing Hessian       ... off
List of participating nodes    ...  /tmp/slurm-scratch/freq.241/freq.hostnames

The output will be reduced. Please look at the following files:
SCF program output             ... >/tmp/slurm-scratch/freq.241/freq.lastscf
Integral program output        ... >/tmp/slurm-scratch/freq.241/freq.lastint
Gradient program output        ... >/tmp/slurm-scratch/freq.241/freq.lastgrad
Dipole moment program output   ... >/tmp/slurm-scratch/freq.241/freq.lastmom
AutoCI program output          ... >/tmp/slurm-scratch/freq.241/freq.lastautoci


         <<< Energy and Gradient at the input geometry >>>

        <<< Energy and Gradient at displaced geometries >>>
             <<<Displacing   1/coordinate 3 (+)>>>
             <<<Displacing   1/coordinate 3 (-)>>>
             <<<Displacing   1/coordinate 1 (+)>>>
             <<<Displacing   1/coordinate 1 (-)>>>
             <<<Displacing   1/coordinate 2 (+)>>>
             <<<Displacing   2/coordinate 2 (+)>>>
             <<<Displacing   3/coordinate 2 (+)>>>
             <<<Displacing   2/coordinate 3 (+)>>>
             <<<Displacing   2/coordinate 1 (+)>>>
             <<<Displacing   1/coordinate 2 (-)>>>
             <<<Displacing   2/coordinate 2 (-)>>>
             <<<Displacing   3/coordinate 1 (+)>>>
             <<<Displacing   3/coordinate 2 (-)>>>
             <<<Displacing   2/coordinate 1 (-)>>>
             <<<Displacing   2/coordinate 3 (-)>>>
             <<<Displacing   3/coordinate 1 (-)>>>
             <<<Displacing   4/coordinate 3 (+)>>>
             <<<Displacing   3/coordinate 3 (+)>>>
             <<<Displacing   3/coordinate 3 (-)>>>
             <<<Displacing   4/coordinate 3 (-)>>>
             <<<Displacing   5/coordinate 1 (+)>>>
             <<<Displacing   5/coordinate 1 (-)>>>
             <<<Displacing   4/coordinate 1 (+)>>>
             <<<Displacing   4/coordinate 1 (-)>>>
             <<<Displacing   5/coordinate 3 (+)>>>
             <<<Displacing   5/coordinate 2 (+)>>>
             <<<Displacing   5/coordinate 3 (-)>>>
             <<<Displacing   4/coordinate 2 (+)>>>
             <<<Displacing   5/coordinate 2 (-)>>>
             <<<Displacing   6/coordinate 1 (+)>>>
             <<<Displacing   4/coordinate 2 (-)>>>
             <<<Displacing   6/coordinate 1 (-)>>>
             <<<Displacing   6/coordinate 2 (+)>>>
             <<<Displacing   6/coordinate 3 (+)>>>
             <<<Displacing   6/coordinate 2 (-)>>>
             <<<Displacing   6/coordinate 3 (-)>>>
             <<<Displacing   7/coordinate 3 (+)>>>
             <<<Displacing   7/coordinate 1 (+)>>>
             <<<Displacing   7/coordinate 3 (-)>>>
             <<<Displacing   7/coordinate 2 (+)>>>
             <<<Displacing   8/coordinate 3 (+)>>>
             <<<Displacing   7/coordinate 1 (-)>>>
             <<<Displacing   8/coordinate 2 (+)>>>
             <<<Displacing   7/coordinate 2 (-)>>>
             <<<Displacing   8/coordinate 3 (-)>>>
             <<<Displacing   8/coordinate 2 (-)>>>
             <<<Displacing   8/coordinate 1 (+)>>>
             <<<Displacing   8/coordinate 1 (-)>>>
             <<<Displacing   9/coordinate 1 (+)>>>
             <<<Displacing   9/coordinate 1 (-)>>>
             <<<Displacing   9/coordinate 2 (+)>>>
             <<<Displacing   9/coordinate 2 (-)>>>
             <<<Displacing   9/coordinate 3 (+)>>>
             <<<Displacing  10/coordinate 2 (+)>>>
             <<<Displacing  10/coordinate 1 (+)>>>
             <<<Displacing   9/coordinate 3 (-)>>>
             <<<Displacing  10/coordinate 2 (-)>>>
             <<<Displacing  10/coordinate 3 (+)>>>
             <<<Displacing  10/coordinate 1 (-)>>>
             <<<Displacing  11/coordinate 1 (+)>>>
             <<<Displacing  11/coordinate 2 (+)>>>
             <<<Displacing  10/coordinate 3 (-)>>>
             <<<Displacing  11/coordinate 1 (-)>>>
             <<<Displacing  11/coordinate 2 (-)>>>
             <<<Displacing  11/coordinate 3 (+)>>>
             <<<Displacing  11/coordinate 3 (-)>>>
             <<<Displacing  12/coordinate 1 (+)>>>
             <<<Displacing  13/coordinate 1 (+)>>>
             <<<Displacing  12/coordinate 1 (-)>>>
             <<<Displacing  12/coordinate 2 (+)>>>
             <<<Displacing  13/coordinate 2 (+)>>>
             <<<Displacing  13/coordinate 1 (-)>>>
             <<<Displacing  13/coordinate 3 (+)>>>
             <<<Displacing  12/coordinate 3 (+)>>>
             <<<Displacing  12/coordinate 2 (-)>>>
             <<<Displacing  13/coordinate 2 (-)>>>
             <<<Displacing  13/coordinate 3 (-)>>>
             <<<Displacing  12/coordinate 3 (-)>>>
             <<<Displacing  14/coordinate 1 (+)>>>
             <<<Displacing  14/coordinate 1 (-)>>>
             <<<Displacing  14/coordinate 2 (+)>>>
             <<<Displacing  14/coordinate 2 (-)>>>
             <<<Displacing  15/coordinate 1 (+)>>>
             <<<Displacing  15/coordinate 2 (+)>>>
             <<<Displacing  14/coordinate 3 (+)>>>
             <<<Displacing  15/coordinate 1 (-)>>>
             <<<Displacing  14/coordinate 3 (-)>>>
             <<<Displacing  15/coordinate 2 (-)>>>
             <<<Displacing  15/coordinate 3 (+)>>>
             <<<Displacing  16/coordinate 1 (+)>>>
             <<<Displacing  16/coordinate 2 (+)>>>
             <<<Displacing  15/coordinate 3 (-)>>>
             <<<Displacing  16/coordinate 1 (-)>>>
             <<<Displacing  16/coordinate 2 (-)>>>
             <<<Displacing  16/coordinate 3 (+)>>>
             <<<Displacing  16/coordinate 3 (-)>>>
             <<<Displacing  17/coordinate 1 (+)>>>
             <<<Displacing  17/coordinate 1 (-)>>>
             <<<Displacing  17/coordinate 3 (+)>>>
             <<<Displacing  17/coordinate 2 (+)>>>
             <<<Displacing  17/coordinate 3 (-)>>>
             <<<Displacing  17/coordinate 2 (-)>>>
             <<<Displacing  18/coordinate 3 (+)>>>
             <<<Displacing  18/coordinate 3 (-)>>>
             <<<Displacing  19/coordinate 1 (+)>>>
             <<<Displacing  18/coordinate 1 (+)>>>
             <<<Displacing  19/coordinate 1 (-)>>>
             <<<Displacing  18/coordinate 1 (-)>>>
             <<<Displacing  19/coordinate 2 (+)>>>
             <<<Displacing  18/coordinate 2 (+)>>>
             <<<Displacing  19/coordinate 2 (-)>>>
             <<<Displacing  18/coordinate 2 (-)>>>
             <<<Displacing  19/coordinate 3 (+)>>>
             <<<Displacing  20/coordinate 2 (+)>>>
             <<<Displacing  20/coordinate 3 (+)>>>
             <<<Displacing  19/coordinate 3 (-)>>>
             <<<Displacing  20/coordinate 1 (+)>>>
             <<<Displacing  20/coordinate 2 (-)>>>
             <<<Displacing  20/coordinate 3 (-)>>>
             <<<Displacing  21/coordinate 1 (+)>>>
             <<<Displacing  20/coordinate 1 (-)>>>
             <<<Displacing  21/coordinate 1 (-)>>>
             <<<Displacing  21/coordinate 2 (+)>>>
             <<<Displacing  21/coordinate 3 (+)>>>
             <<<Displacing  21/coordinate 2 (-)>>>
             <<<Displacing  21/coordinate 3 (-)>>>
             <<<Displacing  22/coordinate 1 (+)>>>
             <<<Displacing  22/coordinate 1 (-)>>>
             <<<Displacing  22/coordinate 3 (+)>>>
             <<<Displacing  22/coordinate 3 (-)>>>
             <<<Displacing  22/coordinate 2 (+)>>>
             <<<Displacing  23/coordinate 1 (+)>>>
             <<<Displacing  22/coordinate 2 (-)>>>
             <<<Displacing  23/coordinate 1 (-)>>>
             <<<Displacing  23/coordinate 3 (+)>>>
             <<<Displacing  23/coordinate 2 (+)>>>
             <<<Displacing  23/coordinate 3 (-)>>>
             <<<Displacing  23/coordinate 2 (-)>>>
             <<<Displacing  24/coordinate 1 (+)>>>
             <<<Displacing  24/coordinate 1 (-)>>>
             <<<Displacing  24/coordinate 3 (+)>>>
             <<<Displacing  24/coordinate 2 (+)>>>
             <<<Displacing  24/coordinate 3 (-)>>>
             <<<Displacing  24/coordinate 2 (-)>>>
             <<<Displacing  25/coordinate 1 (+)>>>
             <<<Displacing  25/coordinate 1 (-)>>>
             <<<Displacing  25/coordinate 2 (+)>>>
             <<<Displacing  25/coordinate 2 (-)>>>
             <<<Displacing  26/coordinate 1 (+)>>>
             <<<Displacing  25/coordinate 3 (+)>>>
             <<<Displacing  26/coordinate 1 (-)>>>
             <<<Displacing  25/coordinate 3 (-)>>>
             <<<Displacing  26/coordinate 2 (+)>>>
             <<<Displacing  26/coordinate 3 (+)>>>
             <<<Displacing  27/coordinate 1 (+)>>>
             <<<Displacing  26/coordinate 2 (-)>>>
             <<<Displacing  26/coordinate 3 (-)>>>
             <<<Displacing  27/coordinate 1 (-)>>>
             <<<Displacing  27/coordinate 2 (+)>>>
             <<<Displacing  27/coordinate 2 (-)>>>
             <<<Displacing  27/coordinate 3 (+)>>>
             <<<Displacing  27/coordinate 3 (-)>>>
             <<<Displacing  28/coordinate 2 (+)>>>
             <<<Displacing  28/coordinate 2 (-)>>>
             <<<Displacing  28/coordinate 3 (+)>>>
             <<<Displacing  29/coordinate 1 (+)>>>
             <<<Displacing  29/coordinate 3 (+)>>>
             <<<Displacing  28/coordinate 1 (+)>>>
             <<<Displacing  28/coordinate 3 (-)>>>
             <<<Displacing  29/coordinate 1 (-)>>>
             <<<Displacing  28/coordinate 1 (-)>>>
             <<<Displacing  29/coordinate 3 (-)>>>
             <<<Displacing  29/coordinate 2 (+)>>>
             <<<Displacing  29/coordinate 2 (-)>>>
             <<<Displacing  30/coordinate 1 (+)>>>
             <<<Displacing  30/coordinate 1 (-)>>>
             <<<Displacing  30/coordinate 2 (+)>>>
             <<<Displacing  30/coordinate 2 (-)>>>
             <<<Displacing  30/coordinate 3 (+)>>>
             <<<Displacing  30/coordinate 3 (-)>>>

-----------------------
VIBRATIONAL FREQUENCIES
-----------------------

Scaling factor for frequencies =  1.000000000 (already applied!)

   0:         0.00 cm**-1
   1:         0.00 cm**-1
   2:         0.00 cm**-1
   3:         0.00 cm**-1
   4:         0.00 cm**-1
   5:         0.00 cm**-1
   6:      -336.60 cm**-1 ***imaginary mode***
   7:        30.94 cm**-1
   8:        53.96 cm**-1
   9:        63.26 cm**-1
  10:        90.51 cm**-1
  11:       102.81 cm**-1
  12:       119.66 cm**-1
  13:       143.26 cm**-1
  14:       170.19 cm**-1
  15:       188.52 cm**-1
  16:       247.30 cm**-1
  17:       269.41 cm**-1
  18:       274.32 cm**-1
  19:       366.47 cm**-1
  20:       376.46 cm**-1
  21:       380.56 cm**-1
  22:       409.20 cm**-1
  23:       450.43 cm**-1
  24:       485.48 cm**-1
  25:       543.75 cm**-1
  26:       583.42 cm**-1
  27:       591.56 cm**-1
  28:       627.84 cm**-1
  29:       658.24 cm**-1
  30:       752.53 cm**-1
  31:       769.24 cm**-1
  32:       820.46 cm**-1
  33:       850.87 cm**-1
  34:       857.30 cm**-1
  35:       879.91 cm**-1
  36:       901.36 cm**-1
  37:       927.56 cm**-1
  38:       933.00 cm**-1
  39:       937.16 cm**-1
  40:       947.25 cm**-1
  41:       983.06 cm**-1
  42:      1032.19 cm**-1
  43:      1065.13 cm**-1
  44:      1071.95 cm**-1
  45:      1101.41 cm**-1
  46:      1115.45 cm**-1
  47:      1122.73 cm**-1
  48:      1131.24 cm**-1
  49:      1179.86 cm**-1
  50:      1183.97 cm**-1
  51:      1201.13 cm**-1
  52:      1218.96 cm**-1
  53:      1243.52 cm**-1
  54:      1259.89 cm**-1
  55:      1269.80 cm**-1
  56:      1279.75 cm**-1
  57:      1291.56 cm**-1
  58:      1309.13 cm**-1
  59:      1328.85 cm**-1
  60:      1339.68 cm**-1
  61:      1367.38 cm**-1
  62:      1420.68 cm**-1
  63:      1428.09 cm**-1
  64:      1451.27 cm**-1
  65:      1459.37 cm**-1
  66:      1502.70 cm**-1
  67:      1503.49 cm**-1
  68:      1506.26 cm**-1
  69:      1511.86 cm**-1
  70:      1557.55 cm**-1
  71:      1558.71 cm**-1
  72:      1626.01 cm**-1
  73:      2939.18 cm**-1
  74:      2959.55 cm**-1
  75:      2963.95 cm**-1
  76:      2969.45 cm**-1
  77:      2983.04 cm**-1
  78:      2987.83 cm**-1
  79:      3000.34 cm**-1
  80:      3001.89 cm**-1
  81:      3007.19 cm**-1
  82:      3040.26 cm**-1
  83:      3057.64 cm**-1
  84:      3061.09 cm**-1
  85:      3067.04 cm**-1
  86:      3075.14 cm**-1
  87:      3083.88 cm**-1
  88:      3229.79 cm**-1
  89:      3589.93 cm**-1


------------
NORMAL MODES
------------

These modes are the cartesian displacements weighted by the diagonal matrix
M(i,i)=1/sqrt(m[i]) where m[i] is the mass of the displaced atom
Thus, these vectors are normalized but *not* orthogonal

                  0          1          2          3          4          5    
      0       0.000000   0.000000   0.000000   0.000000   0.000000   0.000000
      1       0.000000   0.000000   0.000000   0.000000   0.000000   0.000000
      2       0.000000   0.000000   0.000000   0.000000   0.000000   0.000000
      3       0.000000   0.000000   0.000000   0.000000   0.000000   0.000000
      4       0.000000   0.000000   0.000000   0.000000   0.000000   0.000000
      5       0.000000   0.000000   0.000000   0.000000   0.000000   0.000000
      6       0.000000   0.000000   0.000000   0.000000   0.000000   0.000000
      7       0.000000   0.000000   0.000000   0.000000   0.000000   0.000000
      8       0.000000   0.000000   0.000000   0.000000   0.000000   0.000000
      9       0.000000   0.000000   0.000000   0.000000   0.000000   0.000000
     10       0.000000   0.000000   0.000000   0.000000   0.000000   0.000000
     11       0.000000   0.000000   0.000000   0.000000   0.000000   0.000000
     12       0.000000   0.000000   0.000000   0.000000   0.000000   0.000000
     13       0.000000   0.000000   0.000000   0.000000   0.000000   0.000000
     14       0.000000   0.000000   0.000000   0.000000   0.000000   0.000000
     15       0.000000   0.000000   0.000000   0.000000   0.000000   0.000000
     16       0.000000   0.000000   0.000000   0.000000   0.000000   0.000000
     17       0.000000   0.000000   0.000000   0.000000   0.000000   0.000000
     18       0.000000   0.000000   0.000000   0.000000   0.000000   0.000000
     19       0.000000   0.000000   0.000000   0.000000   0.000000   0.000000
     20       0.000000   0.000000   0.000000   0.000000   0.000000   0.000000
     21       0.000000   0.000000   0.000000   0.000000   0.000000   0.000000
     22       0.000000   0.000000   0.000000   0.000000   0.000000   0.000000
     23       0.000000   0.000000   0.000000   0.000000   0.000000   0.000000
     24       0.000000   0.000000   0.000000   0.000000   0.000000   0.000000
     25       0.000000   0.000000   0.000000   0.000000   0.000000   0.000000
     26       0.000000   0.000000   0.000000   0.000000   0.000000   0.000000
     27       0.000000   0.000000   0.000000   0.000000   0.000000   0.000000
     28       0.000000   0.000000   0.000000   0.000000   0.000000   0.000000
     29       0.000000   0.000000   0.000000   0.000000   0.000000   0.000000
     30       0.000000   0.000000   0.000000   0.000000   0.000000   0.000000
     31       0.000000   0.000000   0.000000   0.000000   0.000000   0.000000
     32       0.000000   0.000000   0.000000   0.000000   0.000000   0.000000
     33       0.000000   0.000000   0.000000   0.000000   0.000000   0.000000
     34       0.000000   0.000000   0.000000   0.000000   0.000000   0.000000
     35       0.000000   0.000000   0.000000   0.000000   0.000000   0.000000
     36       0.000000   0.000000   0.000000   0.000000   0.000000   0.000000
     37       0.000000   0.000000   0.000000   0.000000   0.000000   0.000000
     38       0.000000   0.000000   0.000000   0.000000   0.000000   0.000000
     39       0.000000   0.000000   0.000000   0.000000   0.000000   0.000000
     40       0.000000   0.000000   0.000000   0.000000   0.000000   0.000000
     41       0.000000   0.000000   0.000000   0.000000   0.000000   0.000000
     42       0.000000   0.000000   0.000000   0.000000   0.000000   0.000000
     43       0.000000   0.000000   0.000000   0.000000   0.000000   0.000000
     44       0.000000   0.000000   0.000000   0.000000   0.000000   0.000000
     45       0.000000   0.000000   0.000000   0.000000   0.000000   0.000000
     46       0.000000   0.000000   0.000000   0.000000   0.000000   0.000000
     47       0.000000   0.000000   0.000000   0.000000   0.000000   0.000000
     48       0.000000   0.000000   0.000000   0.000000   0.000000   0.000000
     49       0.000000   0.000000   0.000000   0.000000   0.000000   0.000000
     50       0.000000   0.000000   0.000000   0.000000   0.000000   0.000000
     51       0.000000   0.000000   0.000000   0.000000   0.000000   0.000000
     52       0.000000   0.000000   0.000000   0.000000   0.000000   0.000000
     53       0.000000   0.000000   0.000000   0.000000   0.000000   0.000000
     54       0.000000   0.000000   0.000000   0.000000   0.000000   0.000000
     55       0.000000   0.000000   0.000000   0.000000   0.000000   0.000000
     56       0.000000   0.000000   0.000000   0.000000   0.000000   0.000000
     57       0.000000   0.000000   0.000000   0.000000   0.000000   0.000000
     58       0.000000   0.000000   0.000000   0.000000   0.000000   0.000000
     59       0.000000   0.000000   0.000000   0.000000   0.000000   0.000000
     60       0.000000   0.000000   0.000000   0.000000   0.000000   0.000000
     61       0.000000   0.000000   0.000000   0.000000   0.000000   0.000000
     62       0.000000   0.000000   0.000000   0.000000   0.000000   0.000000
     63       0.000000   0.000000   0.000000   0.000000   0.000000   0.000000
     64       0.000000   0.000000   0.000000   0.000000   0.000000   0.000000
     65       0.000000   0.000000   0.000000   0.000000   0.000000   0.000000
     66       0.000000   0.000000   0.000000   0.000000   0.000000   0.000000
     67       0.000000   0.000000   0.000000   0.000000   0.000000   0.000000
     68       0.000000   0.000000   0.000000   0.000000   0.000000   0.000000
     69       0.000000   0.000000   0.000000   0.000000   0.000000   0.000000
     70       0.000000   0.000000   0.000000   0.000000   0.000000   0.000000
     71       0.000000   0.000000   0.000000   0.000000   0.000000   0.000000
     72       0.000000   0.000000   0.000000   0.000000   0.000000   0.000000
     73       0.000000   0.000000   0.000000   0.000000   0.000000   0.000000
     74       0.000000   0.000000   0.000000   0.000000   0.000000   0.000000
     75       0.000000   0.000000   0.000000   0.000000   0.000000   0.000000
     76       0.000000   0.000000   0.000000   0.000000   0.000000   0.000000
     77       0.000000   0.000000   0.000000   0.000000   0.000000   0.000000
     78       0.000000   0.000000   0.000000   0.000000   0.000000   0.000000
     79       0.000000   0.000000   0.000000   0.000000   0.000000   0.000000
     80       0.000000   0.000000   0.000000   0.000000   0.000000   0.000000
     81       0.000000   0.000000   0.000000   0.000000   0.000000   0.000000
     82       0.000000   0.000000   0.000000   0.000000   0.000000   0.000000
     83       0.000000   0.000000   0.000000   0.000000   0.000000   0.000000
     84       0.000000   0.000000   0.000000   0.000000   0.000000   0.000000
     85       0.000000   0.000000   0.000000   0.000000   0.000000   0.000000
     86       0.000000   0.000000   0.000000   0.000000   0.000000   0.000000
     87       0.000000   0.000000   0.000000   0.000000   0.000000   0.000000
     88       0.000000   0.000000   0.000000   0.000000   0.000000   0.000000
     89       0.000000   0.000000   0.000000   0.000000   0.000000   0.000000
                  6          7          8          9         10         11    
      0      -0.003167  -0.074445  -0.016117  -0.039409   0.005742  -0.035719
      1       0.002686   0.033191  -0.002124  -0.140427   0.012069   0.028613
      2      -0.010149   0.105206   0.014896   0.171709  -0.046495   0.008623
      3      -0.008738  -0.082726  -0.007577  -0.020951   0.011121  -0.033505
      4      -0.017385  -0.015930   0.028616  -0.060874   0.039010   0.021465
      5       0.006383   0.078447  -0.044354   0.077854  -0.066503  -0.068403
      6      -0.000486  -0.028704  -0.010402  -0.017642  -0.010172  -0.004258
      7      -0.036061  -0.020600   0.023518   0.036646   0.017781  -0.010000
      8       0.022946   0.005154  -0.033539  -0.078374  -0.000774  -0.062602
      9       0.013761   0.032686  -0.020244  -0.031997  -0.035152   0.025856
     10      -0.012620   0.026807  -0.019328   0.064534  -0.031428  -0.023326
     11      -0.005124  -0.035588   0.045678  -0.150318   0.077845  -0.004629
     12       0.014558   0.039835  -0.028979  -0.049031  -0.043996   0.023211
     13       0.000459   0.075329  -0.052807  -0.010357  -0.067646  -0.019438
     14      -0.009751  -0.005833   0.109783  -0.061949   0.113786   0.078461
     15       0.006007  -0.013333  -0.027252  -0.054093  -0.023273  -0.008900
     16       0.005380   0.079346  -0.043699  -0.115125  -0.045871   0.002370
     17      -0.005785   0.062922   0.094144   0.103117   0.053576   0.092254
     18      -0.016473  -0.129819   0.000700  -0.011756   0.033495  -0.055622
     19      -0.023926  -0.051649   0.058618  -0.083314   0.079185   0.035845
     20       0.013477   0.111039  -0.102222   0.135843  -0.132490  -0.121094
     21       0.022200   0.073281  -0.019914  -0.026991  -0.051434   0.047371
     22      -0.033282   0.027035  -0.030315   0.153942  -0.053707  -0.040467
     23       0.014171  -0.090844   0.061502  -0.290613   0.133698  -0.008415
     24       0.006625  -0.006886  -0.033892  -0.067468  -0.029751  -0.011946
     25       0.009892   0.118244  -0.069599  -0.172965  -0.075399  -0.000451
     26       0.001106   0.083610   0.142976   0.173808   0.082251   0.162390
     27      -0.016889   0.009141  -0.002763  -0.009224  -0.018553  -0.032348
     28       0.032396  -0.090037   0.072553   0.014548   0.087242  -0.037469
     29      -0.115844  -0.100979  -0.101587  -0.033369  -0.042346  -0.004443
     30      -0.020174   0.000452  -0.006928  -0.019536  -0.021867  -0.029592
     31       0.012605  -0.126166   0.065453  -0.026416   0.086777  -0.008254
     32      -0.016183  -0.138069  -0.055715  -0.041415   0.024195   0.049039
     33       0.003750  -0.005884  -0.017752  -0.047293  -0.006943   0.002859
     34       0.000614  -0.072712   0.028997  -0.001690   0.103060  -0.020032
     35       0.028406  -0.339034   0.076421  -0.140940  -0.033859   0.102750
     36      -0.074124  -0.021376  -0.015397  -0.041261  -0.086981  -0.055482
     37       0.051323  -0.332666   0.189061  -0.139072   0.018233   0.056365
     38      -0.002060  -0.110435  -0.064232  -0.023795   0.052102   0.051187
     39       0.004418   0.034074  -0.005487   0.011791  -0.023980  -0.031628
     40       0.023106  -0.086056   0.069173   0.025823   0.080388  -0.036472
     41      -0.681227  -0.088114  -0.179240   0.098912  -0.106185   0.020139
     42       0.240166   0.022600  -0.152772   0.159053   0.113701   0.305425
     43       0.423640  -0.147684  -0.019582   0.299644  -0.095502   0.057234
     44       0.123541  -0.144459  -0.053214   0.037824  -0.189066  -0.088332
     45      -0.025593  -0.039747  -0.000297  -0.008526  -0.006529  -0.008459
     46      -0.121564  -0.073089   0.051444   0.075094   0.035429  -0.029651
     47       0.151407  -0.031664  -0.078675  -0.126695   0.015575  -0.059302
     48      -0.065749  -0.088268   0.005680   0.000019   0.008071  -0.002275
     49      -0.204059  -0.092335   0.048598   0.103278   0.021324  -0.022152
     50       0.398042  -0.011242  -0.065254  -0.218247   0.081609  -0.075256
     51       0.015523   0.009680  -0.122782   0.115139   0.080946   0.215653
     52       0.085995  -0.146052   0.007825   0.233938  -0.087902  -0.003415
     53       0.005590  -0.134847  -0.050819   0.015001  -0.162472  -0.078457
     54       0.003859   0.030236   0.030743   0.037707   0.042509  -0.047149
     55      -0.001132   0.037298  -0.059910   0.023078   0.127763  -0.022007
     56      -0.003428   0.048882  -0.138196   0.059293   0.123090   0.020721
     57       0.018812   0.080173   0.140962   0.036896  -0.021450  -0.002370
     58      -0.001531   0.179607  -0.269332   0.166729   0.350627  -0.146817
     59      -0.011877   0.028870  -0.198731   0.064733   0.161116  -0.006075
     60       0.006062  -0.005774  -0.072808   0.111706   0.223423  -0.161958
     61      -0.000262  -0.023484   0.011692  -0.020111   0.063579   0.013405
     62      -0.005009   0.212658  -0.330451   0.174531   0.294236  -0.073539
     63      -0.008125  -0.114894  -0.014192  -0.041073   0.021738  -0.060032
     64       0.011726   0.036148   0.003518  -0.220145   0.031417   0.049939
     65      -0.016833   0.158651   0.003226   0.298637  -0.099500   0.010465
     66       0.021958   0.086899  -0.036831  -0.058594  -0.065438   0.047245
     67       0.003925   0.111055  -0.086438   0.012712  -0.113126  -0.036077
     68      -0.010325  -0.036927   0.173000  -0.119183   0.188885   0.135283
     69       0.002789   0.045111   0.071875   0.000191  -0.041995   0.002810
     70      -0.003614   0.078721   0.002716  -0.072029  -0.076416   0.105436
     71       0.003780   0.041927   0.122513  -0.000729  -0.062027   0.134509
     72       0.000149   0.017465  -0.060421   0.013429   0.021805   0.022116
     73      -0.002902  -0.003539   0.158751  -0.171248  -0.302577   0.389676
     74       0.004733   0.049776   0.187735  -0.011453  -0.100961   0.140181
     75       0.003203   0.077390   0.178040  -0.078547  -0.227069   0.106480
     76      -0.003409   0.113931  -0.050186  -0.044834  -0.012893   0.012014
     77       0.003458  -0.050764   0.258854  -0.070595  -0.224902   0.376446
     78       0.002078   0.051955   0.148393   0.048774   0.032300  -0.111073
     79      -0.002022   0.173946  -0.070266  -0.075760  -0.072137  -0.012742
     80       0.004226   0.142987   0.125339   0.043569   0.015769  -0.093635
     81       0.002147   0.062453   0.162566   0.028104  -0.018286  -0.075544
     82      -0.001299   0.201400  -0.055732  -0.127111  -0.190482   0.072197
     83       0.003588   0.142610   0.271459   0.025529  -0.074212  -0.041594
     84       0.001456   0.016517   0.087325   0.101994   0.172878  -0.194394
     85      -0.002465   0.144604  -0.030687  -0.096803  -0.126895   0.077766
     86       0.005335   0.224501   0.029435   0.091780   0.140818  -0.319694
     87       0.001824   0.082288   0.254038   0.051792  -0.002697  -0.151372
     88      -0.001548   0.243806  -0.178728  -0.005872   0.103839  -0.273962
     89       0.004332   0.134270   0.078137   0.045732   0.038127  -0.090233
                 12         13         14         15         16         17    
      0       0.000684  -0.010940  -0.047041  -0.045261   0.072763   0.029039
      1      -0.004028   0.021461   0.004155   0.015095  -0.002759  -0.013337
      2       0.013733   0.064767   0.016633   0.009269  -0.023728   0.012850
      3       0.003082  -0.014066  -0.035711  -0.066440   0.081395   0.023729
      4       0.007710  -0.036654   0.024865  -0.096425   0.059486  -0.022486
      5       0.002750  -0.058981  -0.062270   0.081068  -0.089346   0.041115
      6      -0.000842   0.059909  -0.019349  -0.020877   0.039386   0.010426
      7       0.012518  -0.067178   0.020920  -0.127468   0.051664   0.004197
      8       0.001379  -0.131148  -0.090046   0.062890  -0.022482   0.009724
      9      -0.005866   0.157540  -0.006323   0.028574   0.046874   0.016010
     10       0.012830  -0.032998   0.022510  -0.115522   0.084803  -0.015441
     11      -0.003556  -0.109034  -0.088373   0.084330  -0.085785   0.050650
     12      -0.009475   0.169959  -0.014099   0.056865   0.033059   0.021189
     13      -0.001612   0.030477   0.006243   0.007668   0.008334  -0.003844
     14       0.012719   0.000826  -0.010345  -0.008739  -0.004307   0.014287
     15      -0.006474   0.083363  -0.039400   0.025031   0.042972   0.039167
     16      -0.011691   0.046611  -0.013899   0.092199  -0.074335   0.016570
     17       0.024586   0.098192   0.058801  -0.090148   0.103594  -0.042211
     18       0.008042  -0.082619  -0.049065  -0.118264   0.118850   0.032181
     19       0.010761  -0.056369   0.030204  -0.137698   0.097825  -0.030477
     20       0.001039  -0.082082  -0.088683   0.121383  -0.135209   0.067607
     21      -0.009149   0.221867   0.017897   0.047934   0.047063   0.016239
     22       0.020774  -0.052099   0.026936  -0.165218   0.126056  -0.037568
     23      -0.010808  -0.170129  -0.128400   0.131457  -0.148361   0.081961
     24      -0.009447   0.086282  -0.047233   0.049960   0.021037   0.046248
     25      -0.024933   0.082038  -0.039954   0.203397  -0.164843   0.043776
     26       0.039560   0.193860   0.135727  -0.204878   0.236522  -0.103149
     27      -0.017015  -0.042768  -0.029548  -0.053764  -0.003247  -0.005707
     28       0.015353  -0.014979   0.069788  -0.036421  -0.040583   0.057882
     29       0.047565  -0.030122  -0.055615   0.028704   0.094621  -0.044267
     30      -0.014076  -0.027941  -0.020384  -0.016439  -0.013997  -0.033653
     31       0.032109   0.102352   0.068487   0.117487  -0.049473  -0.010643
     32       0.046382   0.155308  -0.051378  -0.076451  -0.094131  -0.014144
     33      -0.021030   0.083237  -0.006637   0.057832  -0.038413  -0.073370
     34      -0.019875   0.058570   0.069247   0.127923  -0.001380  -0.005296
     35       0.240331   0.346075  -0.057965  -0.096552  -0.280419  -0.045919
     36       0.040262  -0.122727  -0.045150   0.029472   0.116230  -0.051702
     37       0.237045   0.313500   0.054162   0.127903  -0.220932  -0.062882
     38       0.008656   0.165252  -0.041779  -0.091640  -0.120007  -0.003137
     39      -0.012395  -0.109597   0.009901  -0.157207   0.002899   0.021391
     40       0.015237  -0.030886   0.065007  -0.046402  -0.040263   0.059270
     41       0.044935  -0.129819  -0.556597   0.299235   0.090700  -0.143446
     42       0.219839  -0.239729   0.443263   0.157422  -0.089763   0.049258
     43       0.001872  -0.033817  -0.145697   0.059632  -0.026008  -0.006363
     44      -0.051892   0.004441   0.245139  -0.013042   0.026521  -0.027016
     45      -0.002105   0.054254   0.004119  -0.001084  -0.007707   0.013226
     46       0.012037  -0.077259   0.035770  -0.054893  -0.040480   0.047165
     47       0.024128  -0.114759  -0.096794  -0.047628   0.125309  -0.060090
     48       0.006683   0.106048   0.000117   0.079456  -0.036506   0.030070
     49       0.012086  -0.069550   0.015212   0.017647  -0.067894   0.055568
     50       0.035244  -0.085889  -0.037908  -0.212957   0.197980  -0.073801
     51       0.157636  -0.144573   0.080254   0.083516  -0.019213   0.001489
     52      -0.019409   0.013715  -0.269198   0.045615  -0.014889  -0.003211
     53      -0.029116  -0.019781   0.381691   0.023315  -0.010202   0.005642
     54      -0.077706  -0.048412   0.018257  -0.061701  -0.123460  -0.002745
     55      -0.118287   0.028679   0.073247   0.156759   0.086987  -0.015190
     56      -0.157798   0.066867  -0.015784  -0.091601  -0.054420   0.029899
     57      -0.123388  -0.107272   0.028017  -0.060573  -0.134525  -0.013432
     58      -0.297167   0.005777   0.109055   0.152694   0.140067   0.066595
     59      -0.140754   0.094303  -0.019089  -0.090068  -0.045049   0.037659
     60      -0.101860   0.020703   0.049970  -0.049110  -0.143244   0.055067
     61      -0.051054   0.044793   0.060623   0.155581   0.055121  -0.037393
     62      -0.336186   0.022555   0.018598  -0.093345   0.028046   0.091514
     63       0.003331  -0.083553  -0.059184  -0.081611   0.082324   0.026911
     64      -0.008947   0.042959  -0.007553   0.055668  -0.008301  -0.014977
     65       0.017745   0.135207   0.051695  -0.001937  -0.028218   0.018694
     66      -0.013831   0.244634   0.002043   0.106851   0.005817   0.010692
     67      -0.005603   0.055487   0.004863   0.043218  -0.004971  -0.009147
     68       0.016834   0.017446   0.007877  -0.037123  -0.002048   0.015327
     69      -0.060527  -0.082086   0.001776  -0.086505  -0.142489  -0.030745
     70      -0.070609  -0.040735   0.024910   0.062259   0.044582  -0.061432
     71      -0.115571  -0.010215  -0.030572  -0.012255  -0.007427  -0.018161
     72      -0.152755  -0.060284   0.002530  -0.166500  -0.216400  -0.020973
     73      -0.227233  -0.153915  -0.006538   0.052248   0.033842  -0.118651
     74      -0.082659  -0.025392  -0.032415   0.023278   0.025645  -0.025356
     75       0.005605  -0.145326  -0.041672  -0.157437  -0.180918  -0.039959
     76      -0.004034  -0.004233   0.028902   0.045690   0.033731  -0.036790
     77      -0.289536  -0.104078  -0.041575   0.029477   0.019534  -0.078828
     78      -0.005343  -0.067181   0.045541   0.117471   0.020699  -0.068372
     79       0.122460   0.003517  -0.007796  -0.097853  -0.071549   0.012991
     80       0.129249   0.051019  -0.022684   0.033010   0.050387   0.026178
     81       0.003516  -0.089356   0.028738   0.077054   0.047473   0.085265
     82       0.146439  -0.042278  -0.052993  -0.228830  -0.051033   0.353976
     83       0.121202  -0.026971  -0.014343   0.190439   0.363699   0.418320
     84      -0.046459  -0.001110   0.087482   0.193704  -0.104944  -0.536906
     85       0.044420  -0.039108  -0.011514  -0.077168  -0.004701   0.122497
     86       0.339155   0.153979  -0.018440  -0.031381  -0.108174  -0.198122
     87       0.066191  -0.101888   0.057648   0.251002   0.263325   0.212871
     88       0.323125   0.128476   0.011914  -0.119271  -0.254993  -0.363260
     89       0.110454   0.070770  -0.026603  -0.020975  -0.054679  -0.103668
                 18         19         20         21         22         23    
      0       0.081431  -0.006391  -0.061496   0.007918  -0.002505  -0.084382
      1      -0.029482   0.009973   0.000707   0.092685  -0.030622   0.021177
      2       0.012451  -0.020554   0.019159  -0.170364   0.031868   0.077713
      3       0.074359  -0.010300  -0.054803  -0.039567  -0.004797  -0.057537
      4      -0.019669  -0.019427  -0.050715  -0.110226  -0.043823   0.018085
      5       0.048499  -0.024726  -0.099074   0.166370  -0.004242   0.003126
      6       0.029309  -0.008840  -0.021554  -0.004496  -0.010975   0.074574
      7       0.028017  -0.040030  -0.111270  -0.026806   0.016241   0.013947
      8       0.020246   0.010912  -0.027093  -0.012884  -0.088718  -0.144983
      9       0.040128   0.018251   0.024019   0.029679   0.019973  -0.041265
     10       0.009058  -0.013826  -0.101950   0.066683  -0.027241  -0.090179
     11       0.060468  -0.026678  -0.026726  -0.180034   0.016270  -0.036404
     12       0.043817   0.025173   0.056317  -0.008661   0.028739  -0.052583
     13      -0.002149   0.002724   0.019906  -0.094254  -0.014423  -0.065260
     14       0.016387  -0.004081  -0.049206   0.174706   0.041153   0.029225
     15       0.084777   0.009730  -0.003623   0.002168   0.044611  -0.119734
     16      -0.001890  -0.005600   0.019777   0.012671   0.029686   0.076679
     17      -0.043914   0.031063   0.043753  -0.003303  -0.047604  -0.077628
     18       0.108425  -0.020230  -0.102433  -0.087222  -0.008099  -0.163942
     19      -0.019843  -0.015033  -0.033463  -0.231667  -0.066711  -0.052728
     20       0.084173  -0.043887  -0.183015   0.385462   0.044057   0.046712
     21       0.037438   0.037024   0.072041   0.077132   0.048934  -0.070174
     22      -0.010499  -0.008281  -0.161357   0.188389  -0.097684  -0.137483
     23       0.090631  -0.062872  -0.004952  -0.426735   0.077726   0.078750
     24       0.089085   0.007826  -0.001205   0.007115   0.052956  -0.106545
     25       0.011078  -0.007671   0.044163   0.036159   0.068414   0.125204
     26      -0.109025   0.066289   0.102240  -0.018133  -0.094687  -0.126716
     27      -0.010531  -0.022302  -0.040289  -0.005972  -0.053903   0.174695
     28       0.073161   0.034800   0.151146   0.030158   0.081777   0.017111
     29      -0.043817   0.029213   0.137686   0.029905   0.073769   0.031511
     30      -0.063424  -0.019215  -0.042365  -0.006398  -0.087046   0.165354
     31      -0.043214   0.011756   0.021504   0.005053  -0.130877  -0.043257
     32      -0.096319  -0.030055  -0.085842  -0.015332   0.090825   0.004571
     33      -0.143846  -0.067978  -0.213649  -0.038072  -0.219117   0.178745
     34      -0.018602   0.021073   0.055426   0.011416  -0.123910  -0.026403
     35      -0.212209  -0.077854  -0.259944  -0.047819   0.033321  -0.053936
     36      -0.018213   0.010137   0.087550   0.019090  -0.072011   0.243197
     37      -0.183676  -0.052317  -0.205523  -0.036589  -0.229580  -0.075158
     38      -0.096944  -0.033107  -0.106102  -0.019633   0.092679  -0.019982
     39       0.036787  -0.053784   0.002536   0.011262   0.092909   0.294109
     40       0.076692   0.029788   0.150960   0.031189   0.092530   0.027911
     41      -0.185649   0.181674   0.014785  -0.004980  -0.352006  -0.309416
     42       0.063695   0.640565  -0.501277  -0.163041   0.042675   0.009976
     43      -0.014006  -0.253797   0.049926  -0.004337  -0.138487  -0.321716
     44      -0.032703  -0.641101   0.364806   0.106838  -0.169382  -0.277920
     45       0.013809  -0.009143   0.015053   0.005738  -0.018162   0.126448
     46       0.063184   0.004175   0.076331   0.022521   0.074585   0.037773
     47      -0.057306   0.049665   0.095008   0.005202  -0.008774   0.047330
     48       0.027323   0.038283   0.139730   0.026527  -0.003754   0.084120
     49       0.071120   0.024746   0.094858   0.016825   0.038029  -0.045769
     50      -0.070607   0.026439   0.147512   0.043157   0.121729   0.271704
     51       0.004097  -0.062371   0.048763   0.012516  -0.011226  -0.004928
     52      -0.012637   0.040506  -0.003392   0.001970   0.020735   0.040429
     53       0.006076   0.026600  -0.022681   0.001193  -0.015881   0.006224
     54      -0.069712   0.031610   0.062757   0.010531  -0.095371  -0.032642
     55      -0.014453  -0.012914  -0.022970  -0.002802  -0.092011   0.051438
     56      -0.030553  -0.005260  -0.025103  -0.005536   0.072924  -0.032102
     57      -0.002241   0.055933   0.129166   0.022584  -0.168294  -0.066252
     58      -0.035767   0.002688   0.023771   0.005202  -0.101932   0.014853
     59      -0.064252  -0.016906  -0.055336  -0.011006   0.105813  -0.015480
     60      -0.124029   0.048745   0.104437   0.018399  -0.196692  -0.061275
     61      -0.013130  -0.012952  -0.027977  -0.003592  -0.103200   0.048896
     62      -0.034299  -0.004901  -0.009185  -0.002849   0.111226  -0.029503
     63       0.084824  -0.021733  -0.119463   0.020572  -0.038281  -0.072835
     64      -0.036209   0.037658   0.029490   0.210433  -0.041147  -0.059520
     65       0.018810  -0.042121   0.056535  -0.372512   0.100078   0.182846
     66       0.009898   0.041207   0.129610  -0.017105   0.022998   0.021029
     67      -0.014905   0.014910   0.070436  -0.189580  -0.047288  -0.097621
     68       0.010935  -0.015133  -0.088268   0.365852   0.103030   0.168037
     69      -0.077001   0.032234   0.064171   0.010033  -0.001771  -0.086088
     70      -0.006090  -0.025748  -0.053229  -0.009274   0.123605   0.001468
     71       0.089573   0.008623   0.023956   0.004492  -0.085354   0.023992
     72      -0.107298   0.039477   0.069952   0.010383   0.022474  -0.128048
     73       0.067734  -0.018082  -0.027156  -0.003979   0.126626  -0.001832
     74       0.105580   0.005026   0.021333   0.004368  -0.092365   0.042338
     75      -0.053128   0.044295   0.093641   0.014760   0.041513  -0.120863
     76      -0.032121  -0.023935  -0.052985  -0.009603   0.115619  -0.005004
     77       0.156160   0.005415   0.026739   0.005948  -0.074915   0.041034
     78      -0.117723  -0.013785  -0.030949  -0.006866   0.175010  -0.074326
     79      -0.030926   0.010490   0.018178   0.002487   0.023204  -0.035745
     80       0.045089  -0.002076   0.000594  -0.000015  -0.070618   0.048064
     81      -0.220943  -0.000355  -0.002189  -0.001660   0.105629  -0.075762
     82      -0.242266   0.051857   0.106192   0.018345  -0.181977  -0.039808
     83      -0.329448  -0.038918  -0.075899  -0.013482   0.067234   0.050045
     84       0.216983  -0.042009  -0.092241  -0.017984   0.331353  -0.071725
     85      -0.122596   0.007201   0.012590   0.001754   0.027413  -0.035634
     86       0.241036   0.010450   0.023639   0.003455  -0.104256   0.048110
     87      -0.397343  -0.045260  -0.100047  -0.019352   0.303562  -0.072263
     88       0.268285   0.010176   0.013468   0.000947   0.051869  -0.032342
     89       0.170264   0.010272   0.027726   0.004847  -0.119476   0.047049
                 24         25         26         27         28         29    
      0       0.012259   0.004255  -0.106801  -0.236914  -0.027837   0.026816
      1      -0.084093   0.016033   0.005140  -0.186033  -0.049814   0.091008
      2       0.100878   0.020578  -0.027509  -0.117048  -0.058262  -0.160162
      3       0.021192   0.004743  -0.057557  -0.186181  -0.039533  -0.014471
      4       0.009020  -0.017515   0.219081   0.062999  -0.079922  -0.062664
      5      -0.017671  -0.013259   0.116335  -0.003838  -0.016765   0.138528
      6       0.003806   0.018944   0.152473  -0.108796  -0.099117   0.033923
      7       0.154867  -0.012800   0.045440   0.070807   0.007251   0.101207
      8      -0.233662  -0.035592   0.063008   0.011341  -0.002153  -0.196333
      9       0.019572  -0.012111   0.119174   0.195441  -0.012472  -0.012743
     10       0.053650  -0.033327   0.029421   0.123098   0.034299  -0.072561
     11       0.004559  -0.030652   0.034624   0.084884   0.049226   0.116601
     12       0.004147  -0.005860   0.069902   0.187082   0.003905   0.024474
     13      -0.043945  -0.003236  -0.187997  -0.130892   0.072165   0.076919
     14       0.116674   0.011126  -0.100563  -0.035390   0.011229  -0.163399
     15       0.074897  -0.014486  -0.151499   0.100097   0.087638  -0.026910
     16       0.057284   0.022953  -0.050184  -0.090886  -0.028772  -0.065350
     17      -0.144762  -0.005722  -0.030936  -0.046366   0.030443   0.126153
     18       0.044148  -0.030407  -0.061833  -0.023590   0.023986  -0.065087
     19      -0.066811  -0.037639   0.212204   0.103832  -0.047815  -0.227975
     20       0.173846  -0.002185   0.105630   0.047130  -0.023026   0.450183
     21      -0.008951  -0.014881  -0.068865   0.191852   0.088170  -0.068330
     22      -0.061395  -0.034919   0.175281   0.104149  -0.018650  -0.258047
     23       0.212935  -0.021243   0.066433   0.093224  -0.013742   0.469536
     24       0.082274  -0.015234  -0.121813   0.139722   0.086560  -0.067683
     25       0.089007   0.014972   0.096494   0.177056  -0.013357  -0.227388
     26      -0.213803  -0.010949   0.048180   0.104602   0.014612   0.432613
     27      -0.108226   0.049594  -0.078398   0.096311   0.011432  -0.002907
     28      -0.074108   0.049005   0.017354   0.034831  -0.062786  -0.001190
     29       0.086905  -0.048549   0.165166  -0.142519   0.168358  -0.013278
     30      -0.045446   0.014766  -0.057628   0.062134   0.121392  -0.008879
     31       0.079431  -0.026644   0.017577  -0.023580  -0.010893   0.002349
     32      -0.058089   0.022116  -0.014992   0.023179   0.015326  -0.002631
     33      -0.012884  -0.034165  -0.145666   0.093668   0.194715  -0.012829
     34       0.085871  -0.017981   0.040206  -0.035580  -0.009861   0.004439
     35      -0.077923  -0.014653  -0.135393   0.090270   0.031724  -0.010654
     36       0.002660   0.006928   0.045449  -0.010296   0.185526  -0.006883
     37       0.069891  -0.065018  -0.141340   0.069277   0.039709  -0.004101
     38      -0.071583   0.027428  -0.034592   0.038405  -0.014020  -0.002670
     39      -0.211050  -0.004963  -0.135678   0.153641   0.234266  -0.029379
     40      -0.087984   0.056437  -0.008078   0.061506  -0.039095  -0.002536
     41       0.224341   0.475935  -0.335974   0.442453  -0.580333   0.108763
     42       0.079845   0.406826   0.284028  -0.140208   0.348945  -0.019646
     43       0.136225   0.673791   0.392650  -0.148706   0.433834  -0.031719
     44       0.062684   0.251987   0.061958   0.022494   0.045047  -0.001856
     45      -0.085806   0.023890   0.120864  -0.094346  -0.048229  -0.006631
     46      -0.078703   0.043872  -0.084041   0.114729   0.086321  -0.004311
     47       0.069949   0.046374  -0.090239   0.106035  -0.073213   0.018560
     48      -0.134853   0.091486   0.179327  -0.129178  -0.122568  -0.023581
     49      -0.113585   0.103236  -0.023283   0.076495   0.068916  -0.026759
     50       0.160752  -0.082391  -0.220380   0.189162  -0.116041   0.083856
     51      -0.015806  -0.056367  -0.049254   0.027239  -0.052771   0.004198
     52      -0.024691  -0.070550  -0.028023   0.005432  -0.025287   0.000750
     53      -0.000247  -0.023861  -0.054751   0.039518  -0.058403   0.008203
     54       0.073985  -0.022835   0.003175  -0.009736   0.024368   0.000337
     55       0.030801  -0.019368  -0.014900   0.005124   0.049895   0.000019
     56      -0.036526   0.014559   0.000919   0.003844  -0.028406  -0.001491
     57       0.142793  -0.061633   0.032362  -0.051911   0.027807   0.001865
     58       0.069571  -0.049112  -0.005832  -0.020642   0.023540   0.003102
     59      -0.067467   0.031305  -0.014076   0.023988  -0.030439  -0.001851
     60       0.150225  -0.051583   0.026174  -0.040657   0.037384   0.002606
     61       0.032741  -0.014788  -0.012904   0.007211   0.051425  -0.000137
     62      -0.044396   0.003119  -0.001578  -0.003519  -0.035117  -0.001615
[...]
     30      -0.000019   0.000011   0.000026  -0.000029   0.000880  -0.000193
     31       0.000016  -0.000023  -0.000064   0.000005  -0.003052   0.000040
     32      -0.000029  -0.000017   0.000073   0.000016  -0.000001  -0.000135
     33       0.000220   0.000011  -0.000181   0.000538  -0.006006   0.000116
     34      -0.000660   0.000077   0.001157  -0.001438   0.033952   0.000696
     35      -0.000176   0.000031   0.000352  -0.000334   0.010760   0.000081
     36       0.000118   0.000059  -0.000374   0.000107  -0.003759   0.000684
     37       0.000028   0.000011  -0.000119   0.000082  -0.002687  -0.000116
     38       0.000363   0.000179  -0.001139   0.000142  -0.007995   0.000465
     39      -0.002037  -0.000367   0.003942  -0.002710  -0.178933   0.002942
     40       0.006066  -0.003389  -0.008307  -0.007538   0.978348  -0.014459
     41      -0.000218  -0.000223   0.000547   0.000068  -0.025588  -0.002238
     42       0.000121   0.000043  -0.000117  -0.000396  -0.007505  -0.445797
     43      -0.000139  -0.000296   0.000397   0.000529   0.003297   0.542643
     44       0.000331   0.000208  -0.000793   0.000086  -0.013124  -0.708977
     45      -0.000731   0.000335   0.000518   0.000242  -0.001488  -0.000119
     46       0.002354  -0.000735  -0.001536   0.001242  -0.006748  -0.000294
     47       0.000659  -0.000214  -0.000469   0.000462  -0.002731  -0.000232
     48       0.010015  -0.003555  -0.005854   0.002615  -0.012623  -0.000808
     49      -0.031187   0.009791   0.017918  -0.010689   0.054471   0.002135
     50      -0.008803   0.002715   0.004991  -0.003106   0.019515   0.000350
     51       0.000018   0.000009  -0.000048   0.000043   0.000411   0.027993
     52       0.000017   0.000003  -0.000036  -0.000104  -0.000859  -0.033957
     53      -0.000055  -0.000007   0.000116  -0.000004   0.000177   0.044389
     54       0.000023  -0.000016  -0.000042  -0.000047   0.000095  -0.000059
     55      -0.000031   0.000028   0.000069   0.000024  -0.000222   0.000067
     56       0.000021  -0.000031  -0.000017  -0.000109   0.000264  -0.000213
     57      -0.000206   0.000161   0.000355   0.000600  -0.001340   0.000287
     58       0.000060  -0.000041  -0.000073   0.000027   0.000004  -0.000590
     59      -0.000343   0.000454   0.000392   0.001352  -0.004026   0.003498
     60      -0.000042   0.000037   0.000112  -0.000007   0.000833  -0.000071
     61       0.000258  -0.000272  -0.000633  -0.000071   0.003833  -0.001156
     62       0.000096  -0.000111  -0.000226  -0.000157   0.000676  -0.000150
     63      -0.068100   0.314422   0.393286   0.076588   0.003091  -0.000608
     64      -0.076006   0.340890   0.428127   0.083952   0.003073  -0.000468
     65      -0.048525   0.218966   0.274798   0.053821   0.002027  -0.000311
     66      -0.230686  -0.237516   0.086986   0.135856   0.002376  -0.000518
     67       0.519945   0.532881  -0.197577  -0.307790  -0.004030   0.000738
     68       0.248073   0.254012  -0.094391  -0.147094  -0.001762   0.000337
     69      -0.000006   0.000012  -0.000009   0.000023   0.000082  -0.000019
     70       0.000004  -0.000018   0.000007  -0.000088  -0.000173   0.000023
     71      -0.000016   0.000007   0.000019   0.000004   0.000062  -0.000004
     72       0.000068  -0.000085   0.000000  -0.000141  -0.001135   0.000251
     73      -0.000008  -0.000016   0.000001  -0.000012   0.000094  -0.000124
     74       0.000177  -0.000207  -0.000113  -0.000408  -0.001887   0.000087
     75      -0.000006  -0.000028   0.000050   0.000001  -0.000435   0.000031
     76      -0.000047   0.000243  -0.000150   0.000986   0.002055   0.000075
     77      -0.000029   0.000113  -0.000068   0.000392   0.000972   0.000095
     78      -0.000007   0.000015  -0.000002   0.000014   0.000097  -0.000006
     79      -0.000012   0.000018   0.000002  -0.000012   0.000001  -0.000005
     80      -0.000001  -0.000010   0.000018  -0.000036  -0.000049  -0.000002
     81       0.000133  -0.000259  -0.000016  -0.000431  -0.001790   0.000273
     82      -0.000055   0.000096   0.000025   0.000163   0.000548   0.000041
     83      -0.000008   0.000012  -0.000013   0.000028   0.000203  -0.000120
     84       0.000003  -0.000009   0.000040   0.000019  -0.000006   0.000052
     85       0.000201  -0.000293  -0.000021  -0.000048  -0.000296   0.000089
     86       0.000079  -0.000112  -0.000001  -0.000052  -0.000131   0.000073
     87      -0.000040   0.000080  -0.000024   0.000189   0.000264   0.000069
     88       0.000009  -0.000016  -0.000001  -0.000006  -0.000026  -0.000066
     89      -0.000076   0.000206  -0.000183   0.000433   0.000600  -0.000006


-----------
IR SPECTRUM  
-----------

 Mode    freq (cm**-1)   T**2         TX         TY         TZ
-------------------------------------------------------------------
   7:        30.94    0.000000  (  0.000000   0.000000   0.000000)
   8:        53.96    0.000000  (  0.000000   0.000000   0.000000)
   9:        63.26    0.000000  (  0.000000   0.000000   0.000000)
  10:        90.51    0.000000  (  0.000000   0.000000   0.000000)
  11:       102.81    0.000000  (  0.000000   0.000000   0.000000)
  12:       119.66    0.000000  (  0.000000   0.000000   0.000000)
  13:       143.26    0.000000  (  0.000000   0.000000   0.000000)
  14:       170.19    0.000000  (  0.000000   0.000000   0.000000)
  15:       188.52    0.000000  (  0.000000   0.000000   0.000000)
  16:       247.30    0.000000  (  0.000000   0.000000   0.000000)
  17:       269.41    0.000000  (  0.000000   0.000000   0.000000)
  18:       274.32    0.000000  (  0.000000   0.000000   0.000000)
  19:       366.47    0.000000  (  0.000000   0.000000   0.000000)
  20:       376.46    0.000000  (  0.000000   0.000000   0.000000)
  21:       380.56    0.000000  (  0.000000   0.000000   0.000000)
  22:       409.20    0.000000  (  0.000000   0.000000   0.000000)
  23:       450.43    0.000000  (  0.000000   0.000000   0.000000)
  24:       485.48    0.000000  (  0.000000   0.000000   0.000000)
  25:       543.75    0.000000  (  0.000000   0.000000   0.000000)
  26:       583.42    0.000000  (  0.000000   0.000000   0.000000)
  27:       591.56    0.000000  (  0.000000   0.000000   0.000000)
  28:       627.84    0.000000  (  0.000000   0.000000   0.000000)
  29:       658.24    0.000000  (  0.000000   0.000000   0.000000)
  30:       752.53    0.000000  (  0.000000   0.000000   0.000000)
  31:       769.24    0.000000  (  0.000000   0.000000   0.000000)
  32:       820.46    0.000000  (  0.000000   0.000000   0.000000)
  33:       850.87    0.000000  (  0.000000   0.000000   0.000000)
  34:       857.30    0.000000  (  0.000000   0.000000   0.000000)
  35:       879.91    0.000000  (  0.000000   0.000000   0.000000)
  36:       901.36    0.000000  (  0.000000   0.000000   0.000000)
  37:       927.56    0.000000  (  0.000000   0.000000   0.000000)
  38:       933.00    0.000000  (  0.000000   0.000000   0.000000)
  39:       937.16    0.000000  (  0.000000   0.000000   0.000000)
  40:       947.25    0.000000  (  0.000000   0.000000   0.000000)
  41:       983.06    0.000000  (  0.000000   0.000000   0.000000)
  42:      1032.19    0.000000  (  0.000000   0.000000   0.000000)
  43:      1065.13    0.000000  (  0.000000   0.000000   0.000000)
  44:      1071.95    0.000000  (  0.000000   0.000000   0.000000)
  45:      1101.41    0.000000  (  0.000000   0.000000   0.000000)
  46:      1115.45    0.000000  (  0.000000   0.000000   0.000000)
  47:      1122.73    0.000000  (  0.000000   0.000000   0.000000)
  48:      1131.24    0.000000  (  0.000000   0.000000   0.000000)
  49:      1179.86    0.000000  (  0.000000   0.000000   0.000000)
  50:      1183.97    0.000000  (  0.000000   0.000000   0.000000)
  51:      1201.13    0.000000  (  0.000000   0.000000   0.000000)
  52:      1218.96    0.000000  (  0.000000   0.000000   0.000000)
  53:      1243.52    0.000000  (  0.000000   0.000000   0.000000)
  54:      1259.89    0.000000  (  0.000000   0.000000   0.000000)
  55:      1269.80    0.000000  (  0.000000   0.000000   0.000000)
  56:      1279.75    0.000000  (  0.000000   0.000000   0.000000)
  57:      1291.56    0.000000  (  0.000000   0.000000   0.000000)
  58:      1309.13    0.000000  (  0.000000   0.000000   0.000000)
  59:      1328.85    0.000000  (  0.000000   0.000000   0.000000)
  60:      1339.68    0.000000  (  0.000000   0.000000   0.000000)
  61:      1367.38    0.000000  (  0.000000   0.000000   0.000000)
  62:      1420.68    0.000000  (  0.000000   0.000000   0.000000)
  63:      1428.09    0.000000  (  0.000000   0.000000   0.000000)
  64:      1451.27    0.000000  (  0.000000   0.000000   0.000000)
  65:      1459.37    0.000000  (  0.000000   0.000000   0.000000)
  66:      1502.70    0.000000  (  0.000000   0.000000   0.000000)
  67:      1503.49    0.000000  (  0.000000   0.000000   0.000000)
  68:      1506.26    0.000000  (  0.000000   0.000000   0.000000)
  69:      1511.86    0.000000  (  0.000000   0.000000   0.000000)
  70:      1557.55    0.000000  (  0.000000   0.000000   0.000000)
  71:      1558.71    0.000000  (  0.000000   0.000000   0.000000)
  72:      1626.01    0.000000  (  0.000000   0.000000   0.000000)
  73:      2939.18    0.000000  (  0.000000   0.000000   0.000000)
  74:      2959.55    0.000000  (  0.000000   0.000000   0.000000)
  75:      2963.95    0.000000  (  0.000000   0.000000   0.000000)
  76:      2969.45    0.000000  (  0.000000   0.000000   0.000000)
  77:      2983.04    0.000000  (  0.000000   0.000000   0.000000)
  78:      2987.83    0.000000  (  0.000000   0.000000   0.000000)
  79:      3000.34    0.000000  (  0.000000   0.000000   0.000000)
  80:      3001.89    0.000000  (  0.000000   0.000000   0.000000)
  81:      3007.19    0.000000  (  0.000000   0.000000   0.000000)
  82:      3040.26    0.000000  (  0.000000   0.000000   0.000000)
  83:      3057.64    0.000000  (  0.000000   0.000000   0.000000)
  84:      3061.09    0.000000  (  0.000000   0.000000   0.000000)
  85:      3067.04    0.000000  (  0.000000   0.000000   0.000000)
  86:      3075.14    0.000000  (  0.000000   0.000000   0.000000)
  87:      3083.88    0.000000  (  0.000000   0.000000   0.000000)
  88:      3229.79    0.000000  (  0.000000   0.000000   0.000000)
  89:      3589.93    0.000000  (  0.000000   0.000000   0.000000)

The first frequency considered to be a vibration is 7
The total number of vibrations considered is 83


--------------------------
THERMOCHEMISTRY AT 298.15K
--------------------------

Temperature         ... 298.15 K
Pressure            ... 1.00 atm
Total Mass          ... 179.26 AMU

Throughout the following assumptions are being made:
  (1) The electronic state is orbitally nondegenerate
  (2) There are no thermally accessible electronically excited states
  (3) Hindered rotations indicated by low frequency modes are not
      treated as such but are treated as vibrations and this may
      cause some error
  (4) All equations used are the standard statistical mechanics
      equations for an ideal gas
  (5) All vibrations are strictly harmonic

freq.      30.94  E(vib)   ...       0.55 
freq.      53.96  E(vib)   ...       0.52 
freq.      63.26  E(vib)   ...       0.51 
freq.      90.51  E(vib)   ...       0.47 
freq.     102.81  E(vib)   ...       0.46 
freq.     119.66  E(vib)   ...       0.44 
freq.     143.26  E(vib)   ...       0.41 
freq.     170.19  E(vib)   ...       0.38 
freq.     188.52  E(vib)   ...       0.36 
freq.     247.30  E(vib)   ...       0.31 
freq.     269.41  E(vib)   ...       0.29 
freq.     274.32  E(vib)   ...       0.28 
freq.     366.47  E(vib)   ...       0.22 
freq.     376.46  E(vib)   ...       0.21 
freq.     380.56  E(vib)   ...       0.21 
freq.     409.20  E(vib)   ...       0.19 
freq.     450.43  E(vib)   ...       0.17 
freq.     485.48  E(vib)   ...       0.15 
freq.     543.75  E(vib)   ...       0.12 
freq.     583.42  E(vib)   ...       0.11 
freq.     591.56  E(vib)   ...       0.10 
freq.     627.84  E(vib)   ...       0.09 
freq.     658.24  E(vib)   ...       0.08 
freq.     752.53  E(vib)   ...       0.06 
freq.     769.24  E(vib)   ...       0.06 
freq.     820.46  E(vib)   ...       0.05 
freq.     850.87  E(vib)   ...       0.04 
freq.     857.30  E(vib)   ...       0.04 
freq.     879.91  E(vib)   ...       0.04 
freq.     901.36  E(vib)   ...       0.03 
freq.     927.56  E(vib)   ...       0.03 
freq.     933.00  E(vib)   ...       0.03 
freq.     937.16  E(vib)   ...       0.03 
freq.     947.25  E(vib)   ...       0.03 
freq.     983.06  E(vib)   ...       0.02 
freq.    1032.19  E(vib)   ...       0.02 
freq.    1065.13  E(vib)   ...       0.02 
freq.    1071.95  E(vib)   ...       0.02 
freq.    1101.41  E(vib)   ...       0.02 
freq.    1115.45  E(vib)   ...       0.01 
freq.    1122.73  E(vib)   ...       0.01 
freq.    1131.24  E(vib)   ...       0.01 
freq.    1179.86  E(vib)   ...       0.01 
freq.    1183.97  E(vib)   ...       0.01 
freq.    1201.13  E(vib)   ...       0.01 
freq.    1218.96  E(vib)   ...       0.01 
freq.    1243.52  E(vib)   ...       0.01 
freq.    1259.89  E(vib)   ...       0.01 
freq.    1269.80  E(vib)   ...       0.01 
freq.    1279.75  E(vib)   ...       0.01 
freq.    1291.56  E(vib)   ...       0.01 
freq.    1309.13  E(vib)   ...       0.01 
freq.    1328.85  E(vib)   ...       0.01 
freq.    1339.68  E(vib)   ...       0.01 
freq.    1367.38  E(vib)   ...       0.01 
freq.    1420.68  E(vib)   ...       0.00 
freq.    1428.09  E(vib)   ...       0.00 
freq.    1451.27  E(vib)   ...       0.00 
freq.    1459.37  E(vib)   ...       0.00 
freq.    1502.70  E(vib)   ...       0.00 
freq.    1503.49  E(vib)   ...       0.00 
freq.    1506.26  E(vib)   ...       0.00 
freq.    1511.86  E(vib)   ...       0.00 
freq.    1557.55  E(vib)   ...       0.00 
freq.    1558.71  E(vib)   ...       0.00 
freq.    1626.01  E(vib)   ...       0.00 
freq.    2939.18  E(vib)   ...       0.00 
freq.    2959.55  E(vib)   ...       0.00 
freq.    2963.95  E(vib)   ...       0.00 
freq.    2969.45  E(vib)   ...       0.00 
freq.    2983.04  E(vib)   ...       0.00 
freq.    2987.83  E(vib)   ...       0.00 
freq.    3000.34  E(vib)   ...       0.00 
freq.    3001.89  E(vib)   ...       0.00 
freq.    3007.19  E(vib)   ...       0.00 
freq.    3040.26  E(vib)   ...       0.00 
freq.    3057.64  E(vib)   ...       0.00 
freq.    3061.09  E(vib)   ...       0.00 
freq.    3067.04  E(vib)   ...       0.00 
freq.    3075.14  E(vib)   ...       0.00 
freq.    3083.88  E(vib)   ...       0.00 
freq.    3229.79  E(vib)   ...       0.00 
freq.    3589.93  E(vib)   ...       0.00 

------------
INNER ENERGY
------------

The inner energy is: U= E(el) + E(ZPE) + E(vib) + E(rot) + E(trans)
    E(el)   - is the total energy from the electronic structure calculation
              = E(kin-el) + E(nuc-el) + E(el-el) + E(nuc-nuc)
    E(ZPE)  - the the zero temperature vibrational energy from the frequency calculation
    E(vib)  - the the finite temperature correction to E(ZPE) due to population
              of excited vibrational states
    E(rot)  - is the rotational thermal energy
    E(trans)- is the translational thermal energy

Summary of contributions to the inner energy U:
Electronic energy                ...    -39.13055655 Eh
Zero point energy                ...      0.25160999 Eh     157.89 kcal/mol
Thermal vibrational correction   ...      0.01167344 Eh       7.33 kcal/mol
Thermal rotational correction    ...      0.00141627 Eh       0.89 kcal/mol
Thermal translational correction ...      0.00141627 Eh       0.89 kcal/mol
-----------------------------------------------------------------------
Total thermal energy                    -38.86444058 Eh


Summary of corrections to the electronic energy:
(perhaps to be used in another calculation)
Total thermal correction                  0.01450598 Eh       9.10 kcal/mol
Non-thermal (ZPE) correction              0.25160999 Eh     157.89 kcal/mol
-----------------------------------------------------------------------
Total correction                          0.26611597 Eh     166.99 kcal/mol


--------
ENTHALPY
--------

The enthalpy is H = U + kB*T
                kB is Boltzmann's constant
Total free energy                 ...    -38.86444058 Eh 
Thermal Enthalpy correction       ...      0.00094421 Eh       0.59 kcal/mol
-----------------------------------------------------------------------
Total Enthalpy                    ...    -38.86349637 Eh


Note: Only C1 symmetry has been detected, increase convergence thresholds 
      if your molecule has a higher symmetry. Symmetry factor of 1.0 is   
      used for the rotational entropy correction. 
 

Note: Rotational entropy computed according to Herzberg 
Infrared and Raman Spectra, Chapter V,1, Van Nostrand Reinhold, 1945 
Point Group:  C1, Symmetry Number:   1  
Rotational constants in cm-1:     0.079247     0.009392     0.009237 

Vibrational entropy computed according to the QRRHO of S. Grimme
Chem.Eur.J. 2012 18 9955


-------
ENTROPY
-------

The entropy contributions are T*S = T*(S(el)+S(vib)+S(rot)+S(trans))
     S(el)   - electronic entropy
     S(vib)  - vibrational entropy
     S(rot)  - rotational entropy
     S(trans)- translational entropy
The entropies will be listed as mutliplied by the temperature to get
units of energy

Electronic entropy                ...      0.00000000 Eh      0.00 kcal/mol
Vibrational entropy               ...      0.02065082 Eh     12.96 kcal/mol
Rotational entropy                ...      0.01512282 Eh      9.49 kcal/mol
Translational entropy             ...      0.01969790 Eh     12.36 kcal/mol
-----------------------------------------------------------------------
Final entropy term                ...      0.05547153 Eh     34.81 kcal/mol

In case the symmetry of your molecule has not been determined correctly
or in case you have a reason to use a different symmetry number we print 
out the resulting rotational entropy values for sn=1,12 :
 --------------------------------------------------------
|  sn= 1 | S(rot)=       0.01512282 Eh      9.49 kcal/mol|
|  sn= 2 | S(rot)=       0.01446836 Eh      9.08 kcal/mol|
|  sn= 3 | S(rot)=       0.01408553 Eh      8.84 kcal/mol|
|  sn= 4 | S(rot)=       0.01381391 Eh      8.67 kcal/mol|
|  sn= 5 | S(rot)=       0.01360322 Eh      8.54 kcal/mol|
|  sn= 6 | S(rot)=       0.01343107 Eh      8.43 kcal/mol|
|  sn= 7 | S(rot)=       0.01328553 Eh      8.34 kcal/mol|
|  sn= 8 | S(rot)=       0.01315945 Eh      8.26 kcal/mol|
|  sn= 9 | S(rot)=       0.01304824 Eh      8.19 kcal/mol|
|  sn=10 | S(rot)=       0.01294876 Eh      8.13 kcal/mol|
|  sn=11 | S(rot)=       0.01285877 Eh      8.07 kcal/mol|
|  sn=12 | S(rot)=       0.01277662 Eh      8.02 kcal/mol|
 --------------------------------------------------------


-------------------
GIBBS FREE ENERGY
-------------------

The Gibbs free energy is G = H - T*S

Total enthalpy                    ...    -38.86349637 Eh 
Total entropy correction          ...     -0.05547153 Eh    -34.81 kcal/mol
-----------------------------------------------------------------------
Final Gibbs free energy         ...    -38.91896790 Eh

For completeness - the Gibbs free energy minus the electronic energy
G-E(el)                           ...      0.21158865 Eh    132.77 kcal/mol


Total Time for Numerical Frequencies  :        84.435 sec
Time for Reference State(s)           :         0.112 sec
Time for Displacements                :        77.204 sec

Timings for individual modules:

Sum of individual times         ...        0.214 sec (=   0.004 min)
XTB module                      ...        0.214 sec (=   0.004 min) 100.0 %
                             ****ORCA TERMINATED NORMALLY****
TOTAL RUN TIME: 0 days 0 hours 1 minutes 25 seconds 23 msec
(SLURM) EXECUTION TIME: 85.041599841 seconds.
