
                                 *****************
                                 * O   R   C   A *
                                 *****************

           --- An Ab Initio, DFT and Semiempirical electronic structure package ---

                  #######################################################
                  #                        -***-                        #
                  #          Department of theory and spectroscopy      #
                  #               Directorship: Frank Neese             #
                  #        Max Planck Institute fuer Kohlenforschung    #
                  #                Kaiser Wilhelm Platz 1               #
                  #                 D-45470 Muelheim/Ruhr               #
                  #                      Germany                        #
                  #                                                     #
                  #                  All rights reserved                #
                  #                        -***-                        #
                  #######################################################


                         Program Version 4.2.1 -  RELEASE  -


 With contributions from (in alphabetic order):
   Daniel Aravena         : Magnetic Suceptibility
   Michael Atanasov       : Ab Initio Ligand Field Theory (pilot matlab implementation)
   Alexander A. Auer      : GIAO ZORA, VPT2
   Ute Becker             : Parallelization
   Giovanni Bistoni       : ED, misc. LED, open-shell LED, HFLD
   Martin Brehm           : Molecular dynamics
   Dmytro Bykov           : SCF Hessian
   Vijay G. Chilkuri      : MRCI spin determinant printing, contributions to CSF-ICE
   Dipayan Datta          : RHF DLPNO-CCSD density
   Achintya Kumar Dutta   : EOM-CC, STEOM-CC
   Dmitry Ganyushin       : Spin-Orbit,Spin-Spin,Magnetic field MRCI
   Miquel Garcia          : C-PCM Hessian, Gaussian charge scheme
   Yang Guo               : DLPNO-NEVPT2, CIM, IAO-localization
   Andreas Hansen         : Spin unrestricted coupled pair/coupled cluster methods
   Benjamin Helmich-Paris : CASSCF linear response (MC-RPA)
   Lee Huntington         : MR-EOM, pCC
   Robert Izsak           : Overlap fitted RIJCOSX, COSX-SCS-MP3, EOM
   Christian Kollmar      : KDIIS, OOCD, Brueckner-CCSD(T), CCSD density
   Simone Kossmann        : Meta GGA functionals, TD-DFT gradient, OOMP2, MP2 Hessian
   Martin Krupicka        : AUTO-CI
   Lucas Lang             : DCDCAS
   Dagmar Lenk            : GEPOL surface, SMD
   Dimitrios Liakos       : Extrapolation schemes; Compound Job, initial MDCI parallelization
   Dimitrios Manganas     : Further ROCIS development; embedding schemes
   Dimitrios Pantazis     : SARC Basis sets
   Taras Petrenko         : DFT Hessian,TD-DFT gradient, ASA, ECA, R-Raman, ABS, FL, XAS/XES, NRVS
   Peter Pinski           : DLPNO-MP2, DLPNO-MP2 Gradient
   Christoph Reimann      : Effective Core Potentials
   Marius Retegan         : Local ZFS, SOC
   Christoph Riplinger    : Optimizer, TS searches, QM/MM, DLPNO-CCSD(T), (RO)-DLPNO pert. Triples
   Tobias Risthaus        : Range-separated hybrids, TD-DFT gradient, RPA, STAB
   Michael Roemelt        : Original ROCIS implementation
   Masaaki Saitow         : Open-shell DLPNO-CCSD energy and density
   Barbara Sandhoefer     : DKH picture change effects
   Avijit Sen             : IP-ROCIS
   Kantharuban Sivalingam : CASSCF convergence, NEVPT2, FIC-MRCI
   Bernardo de Souza      : ESD, SOC TD-DFT
   Georgi Stoychev        : AutoAux, RI-MP2 NMR
   Willem Van den Heuvel  : Paramagnetic NMR
   Boris Wezisla          : Elementary symmetry handling
   Frank Wennmohs         : Technical directorship


 We gratefully acknowledge several colleagues who have allowed us to
 interface, adapt or use parts of their codes:
   Stefan Grimme, W. Hujo, H. Kruse,             : VdW corrections, initial TS optimization,
                  C. Bannwarth                     DFT functionals, gCP, sTDA/sTD-DF
   Ed Valeev, F. Pavosevic, A. Kumar             : LibInt (2-el integral package), F12 methods
   Garnet Chan, S. Sharma, J. Yang, R. Olivares  : DMRG
   Ulf Ekstrom                                   : XCFun DFT Library
   Mihaly Kallay                                 : mrcc  (arbitrary order and MRCC methods)
   Andreas Klamt, Michael Diedenhofen            : otool_cosmo (COSMO solvation model)
   Jiri Pittner, Ondrej Demel                    : Mk-CCSD
   Frank Weinhold                                : gennbo (NPA and NBO analysis)
   Christopher J. Cramer and Donald G. Truhlar   : smd solvation model
   Lars Goerigk                                  : TD-DFT with DH, B97 family of functionals
   V. Asgeirsson, H. Jonsson                     : NEB implementation
   FAccTs GmbH                                   : IRC, NEB, NEB-TS, Multilevel, MM, QM/MM, CI optimization
   S Lehtola, MJT Oliveira, MAL Marques          : LibXC Library


 Your calculation uses the libint2 library for the computation of 2-el integrals
 For citations please refer to: http://libint.valeyev.net

 Your ORCA version has been built with support for libXC version: 4.2.3
 For citations please refer to: https://tddft.org/programs/libxc/

 This ORCA versions uses:
   CBLAS   interface :  Fast vector & matrix operations
   LAPACKE interface :  Fast linear algebra routines
   SCALAPACK package :  Parallel linear algebra routines


----- Orbital basis set information -----
Your calculation utilizes the basis: 6-311G(3df,3pd)
   H, Li - Ne  : R. Krishnan, J. S. Binkley, R. Seeger and J. A. Pople, J. Chem. Phys. 72, 650 (1980).
   Na - Ar     : A. D. McLean and G. S. Chandler J. Chem. Phys. 72, 5639, (1980).
   K  - Ca     : J.-P. Blaudeau, M. P. McGrath, L. A. Curtiss and L. Radom, J. Chem. Phys. 107, 5016 (1997).
   Ga - Kr     : L. A. Curtiss, M. P. McGrath, J.-P. Blandeau, N. E. Davis, R. C. Binning and L. Radom, J. Chem. Phys. 103, 6104 (1995).
   Pol./Diff.
   H, Li - Cl  : T. Clark, J. Chandrasekhar and P. v. R. Schleyer, J. Comp. Chem. 4, 294 (1983).
   H - Ne      : M. J. Frisch, J. A. Pople and J. S. Binkley, J. Chem. Phys. 80, 3265 (1984).

================================================================================
                                        WARNINGS
                       Please study these warnings very carefully!
================================================================================


WARNING: Geometry Optimization
  ===> : Switching off AutoStart
         For restart on a previous wavefunction, please use MOREAD

WARNING: Post HF methods need fully converged wavefunctions
  ===> : Setting SCFConvForced true
         You can overwrite this default with %scf ConvForced false 


INFO   : the flag for use of LIBINT has been found!

================================================================================
                                       INPUT FILE
================================================================================
NAME = staggered.inp
|  1> ! MP2 6-311G(3df,3pd) Opt Freq TightOpt TightSCF NoFrozenCore
|  2> %maxcore 2000
|  3> 
|  4> %pal
|  5>  nprocs 2
|  6> end
|  7> 
|  8> *xyz 0 1
|  9>   C     -0.000000    0.000000    0.759477
| 10>   C     -0.000000   -0.000000   -0.759477
| 11>   H     -0.000000   -1.013934    1.153233
| 12>   H     -0.878093    0.506967    1.153233
| 13>   H      0.878093    0.506967    1.153233
| 14>   H     -0.878093   -0.506967   -1.153233
| 15>   H      0.878093   -0.506967   -1.153233
| 16>   H     -0.000000    1.013934   -1.153233
| 17> *
| 18> 
| 19>                          ****END OF INPUT****
================================================================================

                       *****************************
                       * Geometry Optimization Run *
                       *****************************

Geometry optimization settings:
Update method            Update   .... BFGS
Choice of coordinates    CoordSys .... Z-matrix Internals
Initial Hessian          InHess   .... Almoef's Model

Convergence Tolerances:
Energy Change            TolE     ....  1.0000e-06 Eh
Max. Gradient            TolMAXG  ....  1.0000e-04 Eh/bohr
RMS Gradient             TolRMSG  ....  3.0000e-05 Eh/bohr
Max. Displacement        TolMAXD  ....  1.0000e-03 bohr
RMS Displacement         TolRMSD  ....  6.0000e-04 bohr
Strict Convergence                ....  False
------------------------------------------------------------------------------
                        ORCA OPTIMIZATION COORDINATE SETUP
------------------------------------------------------------------------------

The optimization will be done in new redundant internal coordinates
Making redundant internal coordinates   ...  (new redundants) done
Evaluating the initial hessian          ...  (Almloef) done
Evaluating the coordinates              ...  done
Calculating the B-matrix                .... done
Calculating the G-matrix                .... done
Diagonalizing the G-matrix              .... done
The first mode is                       ....   10
The number of degrees of freedom        ....   18

    -----------------------------------------------------------------
                    Redundant Internal Coordinates


    -----------------------------------------------------------------
         Definition                    Initial Value    Approx d2E/dq
    -----------------------------------------------------------------
      1. B(C   1,C   0)                  1.5190         0.389046   
      2. B(H   2,C   0)                  1.0877         0.363147   
      3. B(H   3,C   0)                  1.0877         0.363146   
      4. B(H   4,C   0)                  1.0877         0.363146   
      5. B(H   5,C   1)                  1.0877         0.363146   
      6. B(H   6,C   1)                  1.0877         0.363146   
      7. B(H   7,C   1)                  1.0877         0.363147   
      8. A(H   2,C   0,H   4)          107.6636         0.291611   
      9. A(C   1,C   0,H   4)          111.2234         0.326943   
     10. A(C   1,C   0,H   2)          111.2234         0.326943   
     11. A(H   3,C   0,H   4)          107.6636         0.291611   
     12. A(H   2,C   0,H   3)          107.6636         0.291611   
     13. A(C   1,C   0,H   3)          111.2234         0.326943   
     14. A(C   0,C   1,H   5)          111.2234         0.326943   
     15. A(H   6,C   1,H   7)          107.6636         0.291611   
     16. A(H   5,C   1,H   7)          107.6636         0.291611   
     17. A(C   0,C   1,H   7)          111.2234         0.326943   
     18. A(H   5,C   1,H   6)          107.6636         0.291611   
     19. A(C   0,C   1,H   6)          111.2234         0.326943   
     20. D(H   5,C   1,C   0,H   3)    -60.0000         0.012036   
     21. D(H   5,C   1,C   0,H   4)    180.0000         0.012036   
     22. D(H   6,C   1,C   0,H   2)    -60.0000         0.012036   
     23. D(H   6,C   1,C   0,H   3)    180.0000         0.012036   
     24. D(H   6,C   1,C   0,H   4)     60.0000         0.012036   
     25. D(H   7,C   1,C   0,H   2)    180.0000         0.012036   
     26. D(H   7,C   1,C   0,H   3)     60.0000         0.012036   
     27. D(H   7,C   1,C   0,H   4)    -60.0000         0.012036   
     28. D(H   5,C   1,C   0,H   2)     60.0000         0.012036   
    -----------------------------------------------------------------

Number of atoms                         .... 8
Number of degrees of freedom            .... 28

         *************************************************************
         *                GEOMETRY OPTIMIZATION CYCLE   1            *
         *************************************************************
---------------------------------
CARTESIAN COORDINATES (ANGSTROEM)
---------------------------------
  C     -0.000000    0.000000    0.759477
  C     -0.000000   -0.000000   -0.759477
  H     -0.000000   -1.013934    1.153233
  H     -0.878093    0.506967    1.153233
  H      0.878093    0.506967    1.153233
  H     -0.878093   -0.506967   -1.153233
  H      0.878093   -0.506967   -1.153233
  H     -0.000000    1.013934   -1.153233

----------------------------
CARTESIAN COORDINATES (A.U.)
----------------------------
  NO LB      ZA    FRAG     MASS         X           Y           Z
   0 C     6.0000    0    12.011   -0.000000    0.000000    1.435204
   1 C     6.0000    0    12.011   -0.000000   -0.000000   -1.435204
   2 H     1.0000    0     1.008   -0.000000   -1.916058    2.179295
   3 H     1.0000    0     1.008   -1.659355    0.958029    2.179295
   4 H     1.0000    0     1.008    1.659355    0.958029    2.179295
   5 H     1.0000    0     1.008   -1.659355   -0.958029   -2.179295
   6 H     1.0000    0     1.008    1.659355   -0.958029   -2.179295
   7 H     1.0000    0     1.008   -0.000000    1.916058   -2.179295

--------------------------------
INTERNAL COORDINATES (ANGSTROEM)
--------------------------------
 C      0   0   0     0.000000000000     0.00000000     0.00000000
 C      1   0   0     1.518954000000     0.00000000     0.00000000
 H      1   2   0     1.087706736162   111.22342195     0.00000000
 H      1   2   3     1.087707057656   111.22341538   240.00001125
 H      1   2   3     1.087707057656   111.22341538   119.99998875
 H      2   1   3     1.087707057656   111.22341538    60.00001125
 H      2   1   3     1.087707057656   111.22341538   299.99998875
 H      2   1   3     1.087706736162   111.22342195   180.00000000

---------------------------
INTERNAL COORDINATES (A.U.)
---------------------------
 C      0   0   0     0.000000000000     0.00000000     0.00000000
 C      1   0   0     2.870407070024     0.00000000     0.00000000
 H      1   2   0     2.055467845367   111.22342195     0.00000000
 H      1   2   3     2.055468452903   111.22341538   240.00001125
 H      1   2   3     2.055468452903   111.22341538   119.99998875
 H      2   1   3     2.055468452903   111.22341538    60.00001125
 H      2   1   3     2.055468452903   111.22341538   299.99998875
 H      2   1   3     2.055467845367   111.22342195   180.00000000

---------------------
BASIS SET INFORMATION
---------------------
There are 2 groups of distinct atoms

 Group   1 Type C   : 11s5p3d1f contracted to 4s3p3d1f pattern {6311/311/111/1}
 Group   2 Type H   : 5s3p1d contracted to 3s3p1d pattern {311/111/1}

Atom   0C    basis set group =>   1
Atom   1C    basis set group =>   1
Atom   2H    basis set group =>   2
Atom   3H    basis set group =>   2
Atom   4H    basis set group =>   2
Atom   5H    basis set group =>   2
Atom   6H    basis set group =>   2
Atom   7H    basis set group =>   2


           ************************************************************
           *        Program running with 2 parallel MPI-processes     *
           *              working on a common directory               *
           ************************************************************
------------------------------------------------------------------------------
                           ORCA GTO INTEGRAL CALCULATION
------------------------------------------------------------------------------

                         BASIS SET STATISTICS AND STARTUP INFO

 # of primitive gaussian shells          ...   94
 # of primitive gaussian functions       ...  210
 # of contracted shells                  ...   64
 # of contracted basis functions         ...  172
 Highest angular momentum                ...    3
 Maximum contraction depth               ...    6
 Integral package used                   ... LIBINT
 Integral threshhold            Thresh   ...  2.500e-11
 Primitive cut-off              TCut     ...  2.500e-12


------------------------------ INTEGRAL EVALUATION ----------------------------


 * One electron integrals 
 Pre-screening matrix                    ... done
 Shell pair data                         ... done (   0.006 sec)



           ************************************************************
           *        Program running with 2 parallel MPI-processes     *
           *              working on a common directory               *
           ************************************************************
-------------------------------------------------------------------------------
                                 ORCA SCF
-------------------------------------------------------------------------------

------------
SCF SETTINGS
------------
Hamiltonian:
 Ab initio Hamiltonian  Method          .... Hartree-Fock(GTOs)


General Settings:
 Integral files         IntName         .... staggered
 Hartree-Fock type      HFTyp           .... RHF
 Total Charge           Charge          ....    0
 Multiplicity           Mult            ....    1
 Number of Electrons    NEL             ....   18
 Basis Dimension        Dim             ....  172
 Nuclear Repulsion      ENuc            ....     42.4409898935 Eh

Convergence Acceleration:
 DIIS                   CNVDIIS         .... on
   Start iteration      DIISMaxIt       ....    12
   Startup error        DIISStart       ....  0.200000
   # of expansion vecs  DIISMaxEq       ....     5
   Bias factor          DIISBfac        ....   1.050
   Max. coefficient     DIISMaxC        ....  10.000
 Newton-Raphson         CNVNR           .... off
 SOSCF                  CNVSOSCF        .... on
   Start iteration      SOSCFMaxIt      ....   150
   Startup grad/error   SOSCFStart      ....  0.003300
 Level Shifting         CNVShift        .... on
   Level shift para.    LevelShift      ....    0.2500
   Turn off err/grad.   ShiftErr        ....    0.0010
 Zerner damping         CNVZerner       .... off
 Static damping         CNVDamp         .... on
   Fraction old density DampFac         ....    0.7000
   Max. Damping (<1)    DampMax         ....    0.9800
   Min. Damping (>=0)   DampMin         ....    0.0000
   Turn off err/grad.   DampErr         ....    0.1000
 Fernandez-Rico         CNVRico         .... off

SCF Procedure:
 Maximum # iterations   MaxIter         ....   125
 SCF integral mode      SCFMode         .... Direct
   Integral package                     .... LIBINT
 Reset frequency        DirectResetFreq ....    20
 Integral Threshold     Thresh          ....  2.500e-11 Eh
 Primitive CutOff       TCut            ....  2.500e-12 Eh

Convergence Tolerance:
 Convergence Check Mode ConvCheckMode   .... Total+1el-Energy
 Convergence forced     ConvForced      .... 1
 Energy Change          TolE            ....  1.000e-08 Eh
 1-El. energy change                    ....  1.000e-05 Eh
 Orbital Gradient       TolG            ....  1.000e-05
 Orbital Rotation angle TolX            ....  1.000e-05
 DIIS Error             TolErr          ....  5.000e-07


Diagonalization of the overlap matrix:
Smallest eigenvalue                        ... 9.274e-05
Time for diagonalization                   ...    0.020 sec
Threshold for overlap eigenvalues          ... 1.000e-08
Number of eigenvalues below threshold      ... 0
Time for construction of square roots      ...    0.011 sec
Total time needed                          ...    0.032 sec

-------------------
DFT GRID GENERATION
-------------------

General Integration Accuracy     IntAcc      ...  4.340
Radial Grid Type                 RadialGrid  ... Gauss-Chebyshev
Angular Grid (max. acc.)         AngularGrid ... Lebedev-110
Angular grid pruning method      GridPruning ... 3 (G Style)
Weight generation scheme         WeightScheme... Becke
Basis function cutoff            BFCut       ...    1.0000e-11
Integration weight cutoff        WCut        ...    1.0000e-14
Grids for H and He will be reduced by one unit

# of grid points (after initial pruning)     ...   8076 (   0.0 sec)
# of grid points (after weights+screening)   ...   7758 (   0.0 sec)
nearest neighbour list constructed           ...    0.0 sec
Grid point re-assignment to atoms done       ...    0.0 sec
Grid point division into batches done        ...    0.0 sec
Reduced shell lists constructed in    0.1 sec

Total number of grid points                  ...     7758
Total number of batches                      ...      124
Average number of points per batch           ...       62
Average number of grid points per atom       ...      970
Average number of shells per batch           ...    54.32 (84.87%)
Average number of basis functions per batch  ...   144.48 (84.00%)
Average number of large shells per batch     ...    47.56 (87.55%)
Average number of large basis fcns per batch ...   126.70 (87.70%)
Maximum spatial batch extension              ...  21.59, 19.10, 19.31 au
Average spatial batch extension              ...   2.12,  2.27,  2.22 au

Time for grid setup =    0.118 sec

------------------------------
INITIAL GUESS: MODEL POTENTIAL
------------------------------
Loading Hartree-Fock densities                     ... done
Calculating cut-offs                               ... done
Setting up the integral package                    ... done
Initializing the effective Hamiltonian             ... done
Starting the Coulomb interaction                   ... done (   0.0 sec)
Reading the grid                                   ... done
Mapping shells                                     ... done
Starting the XC term evaluation                    ... done (   0.1 sec)
Transforming the Hamiltonian                       ... done (   0.0 sec)
Diagonalizing the Hamiltonian                      ... done (   0.0 sec)
Back transforming the eigenvectors                 ... done (   0.0 sec)
Now organizing SCF variables                       ... done
                      ------------------
                      INITIAL GUESS DONE (   0.4 sec)
                      ------------------
--------------
SCF ITERATIONS
--------------
ITER       Energy         Delta-E        Max-DP      RMS-DP      [F,P]     Damp
               ***  Starting incremental Fock matrix formation  ***
  0    -79.0827612048   0.000000000000 0.05723137  0.00083230  0.2740597 0.7000
  1    -79.1460468702  -0.063285665406 0.03859445  0.00063069  0.1768196 0.7000
                               ***Turning on DIIS***
  2    -79.1836593280  -0.037612457822 0.02195765  0.00041174  0.1051712 0.7000
  3    -79.5048550768  -0.321195748809 0.02678075  0.00082245  0.0616498 0.0000
  4    -79.2155231326   0.289331944280 0.00788207  0.00013439  0.0102454 0.0000
                      *** Initiating the SOSCF procedure ***
                           *** Shutting down DIIS ***
                      *** Re-Reading the Fockian *** 
                      *** Removing any level shift *** 
ITER      Energy       Delta-E        Grad      Rot      Max-DP    RMS-DP
  5    -79.25541099  -0.0398878599  0.003163  0.003163  0.001765  0.000042
               *** Restarting incremental Fock matrix formation ***
  6    -79.25832211  -0.0029111145  0.001156  0.001353  0.000724  0.000019
  7    -79.25833132  -0.0000092137  0.000335  0.000663  0.000170  0.000008
  8    -79.25833275  -0.0000014288  0.000059  0.000035  0.000105  0.000002
  9    -79.25833278  -0.0000000346  0.000015  0.000017  0.000018  0.000000
                 **** Energy Check signals convergence ****
              ***Rediagonalizing the Fockian in SOSCF/NRSCF***

               *****************************************************
               *                     SUCCESS                       *
               *           SCF CONVERGED AFTER  10 CYCLES          *
               *****************************************************


----------------
TOTAL SCF ENERGY
----------------

Total Energy       :          -79.25833279 Eh           -2156.72888 eV

Components:
Nuclear Repulsion  :           42.44098989 Eh            1154.87805 eV
Electronic Energy  :         -121.69932268 Eh           -3311.60693 eV
One Electron Energy:         -189.48261599 Eh           -5156.08411 eV
Two Electron Energy:           67.78329331 Eh            1844.47718 eV

Virial components:
Potential Energy   :         -158.47962384 Eh           -4312.44981 eV
Kinetic Energy     :           79.22129105 Eh            2155.72092 eV
Virial Ratio       :            2.00046757


---------------
SCF CONVERGENCE
---------------

  Last Energy change         ...   -2.7342e-09  Tolerance :   1.0000e-08
  Last MAX-Density change    ...    3.8452e-06  Tolerance :   1.0000e-07
  Last RMS-Density change    ...    9.8724e-08  Tolerance :   5.0000e-09
  Last Orbital Gradient      ...    8.5725e-07  Tolerance :   1.0000e-05
  Last Orbital Rotation      ...    9.2141e-07  Tolerance :   1.0000e-05

             **** THE GBW FILE WAS UPDATED (staggered.gbw) ****
             **** DENSITY FILE WAS UPDATED (staggered.scfp) ****
             **** ENERGY FILE WAS UPDATED (staggered.en.tmp) ****
             **** THE GBW FILE WAS UPDATED (staggered.gbw) ****
             **** DENSITY FILE WAS UPDATED (staggered.scfp) ****
----------------
ORBITAL ENERGIES
----------------

  NO   OCC          E(Eh)            E(eV) 
   0   2.0000     -11.208104      -304.9880 
   1   2.0000     -11.207477      -304.9709 
   2   2.0000      -1.019968       -27.7547 
   3   2.0000      -0.841894       -22.9091 
   4   2.0000      -0.598066       -16.2742 
   5   2.0000      -0.598066       -16.2742 
   6   2.0000      -0.511255       -13.9120 
   7   2.0000      -0.486591       -13.2408 
   8   2.0000      -0.486591       -13.2408 
   9   0.0000       0.136316         3.7093 
  10   0.0000       0.158152         4.3035 
  11   0.0000       0.177979         4.8431 
  12   0.0000       0.177979         4.8431 
  13   0.0000       0.218530         5.9465 
  14   0.0000       0.218530         5.9465 
  15   0.0000       0.338574         9.2131 
  16   0.0000       0.338574         9.2131 
  17   0.0000       0.343328         9.3424 
  18   0.0000       0.364560         9.9202 
  19   0.0000       0.364560         9.9202 
  20   0.0000       0.384096        10.4518 
  21   0.0000       0.478776        13.0282 
  22   0.0000       0.478776        13.0282 
  23   0.0000       0.517575        14.0839 
  24   0.0000       0.545019        14.8307 
  25   0.0000       0.598986        16.2992 
  26   0.0000       0.600177        16.3316 
  27   0.0000       0.600177        16.3316 
  28   0.0000       0.621238        16.9048 
  29   0.0000       0.627143        17.0654 
  30   0.0000       0.627143        17.0654 
  31   0.0000       0.677244        18.4287 
  32   0.0000       0.677244        18.4287 
  33   0.0000       0.710966        19.3464 
  34   0.0000       0.742043        20.1920 
  35   0.0000       0.742043        20.1920 
  36   0.0000       0.783768        21.3274 
  37   0.0000       0.814451        22.1623 
  38   0.0000       0.814451        22.1623 
  39   0.0000       0.816331        22.2135 
  40   0.0000       0.837415        22.7872 
  41   0.0000       0.867305        23.6006 
  42   0.0000       0.894612        24.3436 
  43   0.0000       0.894612        24.3436 
  44   0.0000       0.947189        25.7743 
  45   0.0000       0.947189        25.7743 
  46   0.0000       1.042031        28.3551 
  47   0.0000       1.042031        28.3551 
  48   0.0000       1.060261        28.8512 
  49   0.0000       1.080808        29.4103 
  50   0.0000       1.090799        29.6821 
  51   0.0000       1.090799        29.6821 
  52   0.0000       1.106416        30.1071 
  53   0.0000       1.106416        30.1071 
  54   0.0000       1.166050        31.7298 
  55   0.0000       1.175555        31.9885 
  56   0.0000       1.175555        31.9885 
  57   0.0000       1.522300        41.4239 
  58   0.0000       1.714472        46.6532 
  59   0.0000       1.714473        46.6532 
  60   0.0000       1.762351        47.9560 
  61   0.0000       1.762351        47.9560 
  62   0.0000       1.869150        50.8622 
  63   0.0000       1.980067        53.8804 
  64   0.0000       1.980067        53.8804 
  65   0.0000       1.997192        54.3464 
  66   0.0000       1.997192        54.3464 
  67   0.0000       2.038303        55.4650 
  68   0.0000       2.064136        56.1680 
  69   0.0000       2.103517        57.2396 
  70   0.0000       2.103517        57.2396 
  71   0.0000       2.119556        57.6761 
  72   0.0000       2.320020        63.1309 
  73   0.0000       2.320020        63.1310 
  74   0.0000       2.455303        66.8122 
  75   0.0000       2.526744        68.7562 
  76   0.0000       2.564409        69.7811 
  77   0.0000       2.564409        69.7811 
  78   0.0000       2.695254        73.3416 
  79   0.0000       2.695255        73.3416 
  80   0.0000       2.760659        75.1213 
  81   0.0000       2.781680        75.6934 
  82   0.0000       2.802999        76.2735 
  83   0.0000       2.803000        76.2735 
  84   0.0000       2.889763        78.6345 
  85   0.0000       2.897972        78.8578 
  86   0.0000       2.897973        78.8578 
  87   0.0000       2.918940        79.4284 
  88   0.0000       2.918940        79.4284 
  89   0.0000       2.969042        80.7918 
  90   0.0000       2.995651        81.5158 
  91   0.0000       2.995651        81.5158 
  92   0.0000       3.195941        86.9660 
  93   0.0000       3.195941        86.9660 
  94   0.0000       3.221742        87.6681 
  95   0.0000       3.333468        90.7083 
  96   0.0000       3.387173        92.1697 
  97   0.0000       3.397196        92.4424 
  98   0.0000       3.401797        92.5676 
  99   0.0000       3.401797        92.5676 
 100   0.0000       3.510085        95.5143 
 101   0.0000       3.510085        95.5143 
 102   0.0000       3.562112        96.9300 
 103   0.0000       3.562113        96.9300 
 104   0.0000       3.679616       100.1274 
 105   0.0000       3.807713       103.6131 
 106   0.0000       3.807714       103.6132 
 107   0.0000       3.809830       103.6708 
 108   0.0000       3.809830       103.6708 
 109   0.0000       3.880906       105.6048 
 110   0.0000       3.905983       106.2872 
 111   0.0000       4.176242       113.6413 
 112   0.0000       4.274198       116.3068 
 113   0.0000       4.274198       116.3068 
 114   0.0000       4.290039       116.7379 
 115   0.0000       4.498767       122.4177 
 116   0.0000       4.511009       122.7508 
 117   0.0000       4.540199       123.5451 
 118   0.0000       4.540199       123.5451 
 119   0.0000       4.593191       124.9871 
 120   0.0000       4.593191       124.9871 
 121   0.0000       4.675233       127.2196 
 122   0.0000       4.675233       127.2196 
 123   0.0000       4.945544       134.5751 
 124   0.0000       4.950669       134.7145 
 125   0.0000       5.066439       137.8648 
 126   0.0000       5.139768       139.8602 
 127   0.0000       5.139769       139.8602 
 128   0.0000       5.149959       140.1375 
 129   0.0000       5.149961       140.1376 
 130   0.0000       5.150682       140.1572 
 131   0.0000       5.293212       144.0356 
 132   0.0000       5.293212       144.0356 
 133   0.0000       5.447328       148.2293 
 134   0.0000       5.453741       148.4038 
 135   0.0000       5.453741       148.4038 
 136   0.0000       5.453884       148.4077 
 137   0.0000       5.748705       156.4302 
 138   0.0000       5.748706       156.4302 
 139   0.0000       5.768031       156.9561 
 140   0.0000       5.768031       156.9561 
 141   0.0000       5.890674       160.2934 
 142   0.0000       7.883389       214.5179 
 143   0.0000       7.883390       214.5179 
 144   0.0000       8.052500       219.1197 
 145   0.0000       8.052500       219.1197 
 146   0.0000       8.328759       226.6371 
 147   0.0000       8.333711       226.7718 
 148   0.0000       8.333712       226.7718 
 149   0.0000       8.431616       229.4359 
 150   0.0000       8.431616       229.4359 
 151   0.0000       8.782142       238.9742 
 152   0.0000       8.798350       239.4153 
 153   0.0000       8.898250       242.1337 
 154   0.0000       8.898250       242.1337 
 155   0.0000       8.900226       242.1875 
 156   0.0000       8.900226       242.1875 
 157   0.0000       8.941579       243.3127 
 158   0.0000       9.015272       245.3180 
 159   0.0000       9.089669       247.3425 
 160   0.0000       9.089669       247.3425 
 161   0.0000       9.119101       248.1434 
 162   0.0000       9.119101       248.1434 
 163   0.0000       9.214487       250.7389 
 164   0.0000       9.763175       265.6695 
 165   0.0000       9.940692       270.5000 
 166   0.0000      10.227484       278.3040 
 167   0.0000      10.227484       278.3040 
 168   0.0000      10.308664       280.5130 
 169   0.0000      10.308665       280.5130 
 170   0.0000      27.073070       736.6957 
 171   0.0000      27.385874       745.2075 

                    ********************************
                    * MULLIKEN POPULATION ANALYSIS *
                    ********************************

-----------------------
MULLIKEN ATOMIC CHARGES
-----------------------
   0 C :    0.051522
   1 C :    0.051522
   2 H :   -0.017174
   3 H :   -0.017174
   4 H :   -0.017174
   5 H :   -0.017174
   6 H :   -0.017174
   7 H :   -0.017174
Sum of atomic charges:   -0.0000000

--------------------------------
MULLIKEN REDUCED ORBITAL CHARGES
--------------------------------
  0 C s       :     3.159019  s :     3.159019
      pz      :     0.832530  p :     2.737685
      px      :     0.952578
      py      :     0.952578
      dz2     :    -0.001068  d :     0.048179
      dxz     :     0.010720
      dyz     :     0.010720
      dx2y2   :     0.013904
      dxy     :     0.013904
      f0      :     0.001068  f :     0.003594
      f+1     :     0.000666
      f-1     :     0.000666
      f+2     :     0.000175
      f-2     :     0.000175
      f+3     :     0.000000
      f-3     :     0.000842
  1 C s       :     3.159019  s :     3.159019
      pz      :     0.832530  p :     2.737685
      px      :     0.952578
      py      :     0.952578
      dz2     :    -0.001068  d :     0.048179
      dxz     :     0.010720
      dyz     :     0.010720
      dx2y2   :     0.013904
      dxy     :     0.013904
      f0      :     0.001068  f :     0.003594
      f+1     :     0.000666
      f-1     :     0.000666
      f+2     :     0.000175
      f-2     :     0.000175
      f+3     :     0.000000
      f-3     :     0.000842
  2 H s       :     0.986138  s :     0.986138
      pz      :     0.001690  p :     0.027971
      px      :     0.012279
      py      :     0.014002
      dz2     :     0.000462  d :     0.003065
      dxz     :     0.000045
      dyz     :     0.001086
      dx2y2   :     0.000659
      dxy     :     0.000812
  3 H s       :     0.986138  s :     0.986138
      pz      :     0.001690  p :     0.027971
      px      :     0.013571
      py      :     0.012710
      dz2     :     0.000462  d :     0.003065
      dxz     :     0.000826
      dyz     :     0.000306
      dx2y2   :     0.000774
      dxy     :     0.000697
  4 H s       :     0.986138  s :     0.986138
      pz      :     0.001690  p :     0.027971
      px      :     0.013571
      py      :     0.012710
      dz2     :     0.000462  d :     0.003065
      dxz     :     0.000826
      dyz     :     0.000306
      dx2y2   :     0.000774
      dxy     :     0.000697
  5 H s       :     0.986138  s :     0.986138
      pz      :     0.001690  p :     0.027971
      px      :     0.013571
      py      :     0.012710
      dz2     :     0.000462  d :     0.003065
      dxz     :     0.000826
      dyz     :     0.000306
      dx2y2   :     0.000774
      dxy     :     0.000697
  6 H s       :     0.986138  s :     0.986138
      pz      :     0.001690  p :     0.027971
      px      :     0.013571
      py      :     0.012710
      dz2     :     0.000462  d :     0.003065
      dxz     :     0.000826
      dyz     :     0.000306
      dx2y2   :     0.000774
      dxy     :     0.000697
  7 H s       :     0.986138  s :     0.986138
      pz      :     0.001690  p :     0.027971
      px      :     0.012279
      py      :     0.014002
      dz2     :     0.000462  d :     0.003065
      dxz     :     0.000045
      dyz     :     0.001086
      dx2y2   :     0.000659
      dxy     :     0.000812


                     *******************************
                     * LOEWDIN POPULATION ANALYSIS *
                     *******************************

----------------------
LOEWDIN ATOMIC CHARGES
----------------------
   0 C :    0.318929
   1 C :    0.318929
   2 H :   -0.106310
   3 H :   -0.106310
   4 H :   -0.106310
   5 H :   -0.106310
   6 H :   -0.106310
   7 H :   -0.106310

-------------------------------
LOEWDIN REDUCED ORBITAL CHARGES
-------------------------------
  0 C s       :     2.523474  s :     2.523474
      pz      :     0.857615  p :     2.651647
      px      :     0.897016
      py      :     0.897016
      dz2     :     0.112004  d :     0.479626
      dxz     :     0.128929
      dyz     :     0.128929
      dx2y2   :     0.054882
      dxy     :     0.054882
      f0      :     0.005455  f :     0.026324
      f+1     :     0.004471
      f-1     :     0.004471
      f+2     :     0.003702
      f-2     :     0.003702
      f+3     :     0.000000
      f-3     :     0.004524
  1 C s       :     2.523474  s :     2.523474
      pz      :     0.857615  p :     2.651647
      px      :     0.897016
      py      :     0.897016
      dz2     :     0.112004  d :     0.479626
      dxz     :     0.128929
      dyz     :     0.128929
      dx2y2   :     0.054882
      dxy     :     0.054882
      f0      :     0.005455  f :     0.026324
      f+1     :     0.004471
      f-1     :     0.004471
      f+2     :     0.003702
      f-2     :     0.003702
      f+3     :     0.000000
      f-3     :     0.004524
  2 H s       :     0.812627  s :     0.812627
      pz      :     0.070196  p :     0.261501
      px      :     0.074870
      py      :     0.116435
      dz2     :     0.005247  d :     0.032181
      dxz     :     0.000864
      dyz     :     0.009383
      dx2y2   :     0.006616
      dxy     :     0.010072
  3 H s       :     0.812627  s :     0.812627
      pz      :     0.070196  p :     0.261501
      px      :     0.106044
      py      :     0.085261
      dz2     :     0.005247  d :     0.032181
      dxz     :     0.007253
      dyz     :     0.002994
      dx2y2   :     0.009208
      dxy     :     0.007480
  4 H s       :     0.812627  s :     0.812627
      pz      :     0.070196  p :     0.261501
      px      :     0.106044
      py      :     0.085261
      dz2     :     0.005247  d :     0.032181
      dxz     :     0.007253
      dyz     :     0.002994
      dx2y2   :     0.009208
      dxy     :     0.007480
  5 H s       :     0.812627  s :     0.812627
      pz      :     0.070196  p :     0.261501
      px      :     0.106044
      py      :     0.085261
      dz2     :     0.005247  d :     0.032181
      dxz     :     0.007253
      dyz     :     0.002994
      dx2y2   :     0.009208
      dxy     :     0.007480
  6 H s       :     0.812627  s :     0.812627
      pz      :     0.070196  p :     0.261501
      px      :     0.106044
      py      :     0.085261
      dz2     :     0.005247  d :     0.032181
      dxz     :     0.007253
      dyz     :     0.002994
      dx2y2   :     0.009208
      dxy     :     0.007480
  7 H s       :     0.812627  s :     0.812627
      pz      :     0.070196  p :     0.261501
      px      :     0.074870
      py      :     0.116435
      dz2     :     0.005247  d :     0.032181
      dxz     :     0.000864
      dyz     :     0.009383
      dx2y2   :     0.006616
      dxy     :     0.010072


                      *****************************
                      * MAYER POPULATION ANALYSIS *
                      *****************************

  NA   - Mulliken gross atomic population
  ZA   - Total nuclear charge
  QA   - Mulliken gross atomic charge
  VA   - Mayer's total valence
  BVA  - Mayer's bonded valence
  FA   - Mayer's free valence

  ATOM       NA         ZA         QA         VA         BVA        FA
  0 C      5.9485     6.0000     0.0515     3.8274     3.8274     0.0000
  1 C      5.9485     6.0000     0.0515     3.8274     3.8274     0.0000
  2 H      1.0172     1.0000    -0.0172     0.9771     0.9771    -0.0000
  3 H      1.0172     1.0000    -0.0172     0.9771     0.9771     0.0000
  4 H      1.0172     1.0000    -0.0172     0.9771     0.9771    -0.0000
  5 H      1.0172     1.0000    -0.0172     0.9771     0.9771    -0.0000
  6 H      1.0172     1.0000    -0.0172     0.9771     0.9771    -0.0000
  7 H      1.0172     1.0000    -0.0172     0.9771     0.9771    -0.0000

  Mayer bond orders larger than 0.100000
B(  0-C ,  1-C ) :   0.8732 B(  0-C ,  2-H ) :   1.0298 B(  0-C ,  3-H ) :   1.0298 
B(  0-C ,  4-H ) :   1.0298 B(  1-C ,  5-H ) :   1.0298 B(  1-C ,  6-H ) :   1.0298 
B(  1-C ,  7-H ) :   1.0298 

-------
TIMINGS
-------

Total SCF time: 0 days 0 hours 0 min 27 sec 

Total time                  ....      27.938 sec
Sum of individual times     ....      27.624 sec  ( 98.9%)

Fock matrix formation       ....      27.028 sec  ( 96.7%)
Diagonalization             ....       0.076 sec  (  0.3%)
Density matrix formation    ....       0.044 sec  (  0.2%)
Population analysis         ....       0.009 sec  (  0.0%)
Initial guess               ....       0.244 sec  (  0.9%)
Orbital Transformation      ....       0.000 sec  (  0.0%)
Orbital Orthonormalization  ....       0.000 sec  (  0.0%)
DIIS solution               ....       0.027 sec  (  0.1%)
SOSCF solution              ....       0.077 sec  (  0.3%)


           ************************************************************
           *        Program running with 2 parallel MPI-processes     *
           *              working on a common directory               *
           ************************************************************

------------------------------------------------------------------------------
                                ORCA  MP2 
------------------------------------------------------------------------------

MP2 will be done in the AO integral direct mode
The Q1-step will be done using symmetric double matrices
Dimension of the basis                    ...  172
Memory devoted for MP2                    ... 2000 MB   
Memory needed for all in one shot         ...   99 MB
Number of MOs that can be treated together...  101      
MP2 density construction                  ... relaxed
The MP2 gradient is requested => amplitudes will be stored on disk
Total number of MOs              ...    9
Number of MOs treated per batch  ...    5 
Number of batches necessary      ...    1 
OPERATORS   0/  0 PASS   0
-----------------------------------------------
 MP2 CORRELATION ENERGY   :     -0.416369961 Eh
-----------------------------------------------


---------------------
MP2 DENSITY FORMATION
---------------------

Completing the external part of the density      ... done
Storing the unrelaxed density                    ... done

Calculating G(D)                                 ... done
Completing the Lagrangian                        ... done
Solving the Z-vector equations                   ... 

------------------------------------------------------------------------------
                           ORCA CP-SCF CALCULATION
------------------------------------------------------------------------------

Input orbitals are from        ... staggered.gbw
Input Perturbation             ... staggered.pin.tmp
Wavefunction output            ... staggered.pout.tmp
Perturbation mode              ... Real perturbation (singlet)
Solver                         ... POPLE
Max. number of iterations      ... 128
Convergence tolerance          ... 1.000e-08
Integral handling              ... Direct
Number of perturbations        ... 1
Number of operators            ... 1
Orbital ranges used for CP-SCF:
 Operator 0:  Orbitals   0...  8  to   9...171
Variables per vector in CP-SCF ... 1467
Number of vectors sought       ... 1
     CP-SCF ITERATION   0: 
     CP-SCF ITERATION   1:      0.000099359267
     CP-SCF ITERATION   2:      0.000003032722
     CP-SCF ITERATION   3:      0.000000054839
     CP-SCF ITERATION   4:      0.000000000436
                                                 ... done
Finalizing the relaxed density                   ... done
Transforming P to the AO basis                   ... done
Storing the relaxed density                      ... done

------------------------------------
ENERGY WEIGHTED DENSITY FINALIZATION
------------------------------------

Gathering the parts of the W-matrix              ...                                                      done
Forming the Z-density                            ... done
Transforming Z to the AO basis                   ... done
Calculating G(Z)                                 ... done
Finalizing the W-matrix                          ...                                                      done
Transforming W to the AO basis and storing       ... done

                *********************************************
                * UNRELAXED MP2 DENSITY POPULATION ANALYSIS *
                *********************************************

------------------------------------------------------------------------------
                           ORCA POPULATION ANALYSIS
------------------------------------------------------------------------------
Input electron density              ... staggered.pmp2ur
BaseName (.gbw .S,...)              ... staggered

                    ********************************
                    * MULLIKEN POPULATION ANALYSIS *
                    ********************************

-----------------------
MULLIKEN ATOMIC CHARGES
-----------------------
   0 C :    0.039280
   1 C :    0.039280
   2 H :   -0.013094
   3 H :   -0.013093
   4 H :   -0.013093
   5 H :   -0.013093
   6 H :   -0.013093
   7 H :   -0.013094
Sum of atomic charges:   -0.0000000

--------------------------------
MULLIKEN REDUCED ORBITAL CHARGES
--------------------------------
  0 C s       :     3.154895  s :     3.154895
      pz      :     0.826758  p :     2.722378
      px      :     0.947810
      py      :     0.947810
      dz2     :     0.003041  d :     0.076566
      dxz     :     0.016914
      dyz     :     0.016914
      dx2y2   :     0.019849
      dxy     :     0.019849
      f0      :     0.001408  f :     0.006881
      f+1     :     0.001186
      f-1     :     0.001186
      f+2     :     0.000702
      f-2     :     0.000702
      f+3     :     0.000464
      f-3     :     0.001233
  1 C s       :     3.154895  s :     3.154895
      pz      :     0.826758  p :     2.722378
      px      :     0.947810
      py      :     0.947810
      dz2     :     0.003041  d :     0.076566
      dxz     :     0.016914
      dyz     :     0.016914
      dx2y2   :     0.019849
      dxy     :     0.019849
      f0      :     0.001408  f :     0.006881
      f+1     :     0.001186
      f-1     :     0.001186
      f+2     :     0.000702
      f-2     :     0.000702
      f+3     :     0.000464
      f-3     :     0.001233
  2 H s       :     0.978929  s :     0.978929
      pz      :     0.002831  p :     0.030656
      px      :     0.013298
      py      :     0.014526
      dz2     :     0.000546  d :     0.003508
      dxz     :     0.000147
      dyz     :     0.001178
      dx2y2   :     0.000744
      dxy     :     0.000894
  3 H s       :     0.978929  s :     0.978929
      pz      :     0.002831  p :     0.030656
      px      :     0.014219
      py      :     0.013605
      dz2     :     0.000546  d :     0.003508
      dxz     :     0.000920
      dyz     :     0.000405
      dx2y2   :     0.000856
      dxy     :     0.000781
  4 H s       :     0.978929  s :     0.978929
      pz      :     0.002831  p :     0.030656
      px      :     0.014219
      py      :     0.013605
      dz2     :     0.000546  d :     0.003508
      dxz     :     0.000920
      dyz     :     0.000405
      dx2y2   :     0.000856
      dxy     :     0.000781
  5 H s       :     0.978929  s :     0.978929
      pz      :     0.002831  p :     0.030656
      px      :     0.014219
      py      :     0.013605
      dz2     :     0.000546  d :     0.003508
      dxz     :     0.000920
      dyz     :     0.000405
      dx2y2   :     0.000856
      dxy     :     0.000781
  6 H s       :     0.978929  s :     0.978929
      pz      :     0.002831  p :     0.030656
      px      :     0.014219
      py      :     0.013605
      dz2     :     0.000546  d :     0.003508
      dxz     :     0.000920
      dyz     :     0.000405
      dx2y2   :     0.000856
      dxy     :     0.000781
  7 H s       :     0.978929  s :     0.978929
      pz      :     0.002831  p :     0.030656
      px      :     0.013298
      py      :     0.014526
      dz2     :     0.000546  d :     0.003508
      dxz     :     0.000147
      dyz     :     0.001178
      dx2y2   :     0.000744
      dxy     :     0.000894


                     *******************************
                     * LOEWDIN POPULATION ANALYSIS *
                     *******************************

----------------------
LOEWDIN ATOMIC CHARGES
----------------------
   0 C :    0.318200
   1 C :    0.318200
   2 H :   -0.106067
   3 H :   -0.106066
   4 H :   -0.106066
   5 H :   -0.106066
   6 H :   -0.106066
   7 H :   -0.106067

-------------------------------
LOEWDIN REDUCED ORBITAL CHARGES
-------------------------------
  0 C s       :     2.521391  s :     2.521391
      pz      :     0.850220  p :     2.630460
      px      :     0.890120
      py      :     0.890120
      dz2     :     0.115881  d :     0.498971
      dxz     :     0.132299
      dyz     :     0.132299
      dx2y2   :     0.059246
      dxy     :     0.059246
      f0      :     0.006437  f :     0.030979
      f+1     :     0.005111
      f-1     :     0.005111
      f+2     :     0.004296
      f-2     :     0.004296
      f+3     :     0.000533
      f-3     :     0.005195
  1 C s       :     2.521391  s :     2.521391
      pz      :     0.850220  p :     2.630460
      px      :     0.890120
      py      :     0.890120
      dz2     :     0.115881  d :     0.498971
      dxz     :     0.132299
      dyz     :     0.132299
      dx2y2   :     0.059246
      dxy     :     0.059246
      f0      :     0.006437  f :     0.030979
      f+1     :     0.005111
      f-1     :     0.005111
      f+2     :     0.004296
      f-2     :     0.004296
      f+3     :     0.000533
      f-3     :     0.005195
  2 H s       :     0.805207  s :     0.805207
      pz      :     0.071835  p :     0.267050
      px      :     0.076010
      py      :     0.119205
      dz2     :     0.005465  d :     0.033810
      dxz     :     0.001040
      dyz     :     0.009850
      dx2y2   :     0.007195
      dxy     :     0.010260
  3 H s       :     0.805207  s :     0.805207
      pz      :     0.071835  p :     0.267050
      px      :     0.108406
      py      :     0.086809
      dz2     :     0.005465  d :     0.033810
      dxz     :     0.007647
      dyz     :     0.003242
      dx2y2   :     0.009494
      dxy     :     0.007962
  4 H s       :     0.805207  s :     0.805207
      pz      :     0.071835  p :     0.267050
      px      :     0.108406
      py      :     0.086809
      dz2     :     0.005465  d :     0.033810
      dxz     :     0.007647
      dyz     :     0.003242
      dx2y2   :     0.009494
      dxy     :     0.007962
  5 H s       :     0.805207  s :     0.805207
      pz      :     0.071835  p :     0.267050
      px      :     0.108406
      py      :     0.086809
      dz2     :     0.005465  d :     0.033810
      dxz     :     0.007647
      dyz     :     0.003242
      dx2y2   :     0.009494
      dxy     :     0.007962
  6 H s       :     0.805207  s :     0.805207
      pz      :     0.071835  p :     0.267050
      px      :     0.108406
      py      :     0.086809
      dz2     :     0.005465  d :     0.033810
      dxz     :     0.007647
      dyz     :     0.003242
      dx2y2   :     0.009494
      dxy     :     0.007962
  7 H s       :     0.805207  s :     0.805207
      pz      :     0.071835  p :     0.267050
      px      :     0.076010
      py      :     0.119205
      dz2     :     0.005465  d :     0.033810
      dxz     :     0.001040
      dyz     :     0.009850
      dx2y2   :     0.007195
      dxy     :     0.010260


                      *****************************
                      * MAYER POPULATION ANALYSIS *
                      *****************************

  NA   - Mulliken gross atomic population
  ZA   - Total nuclear charge
  QA   - Mulliken gross atomic charge
  VA   - Mayer's total valence
  BVA  - Mayer's bonded valence
  FA   - Mayer's free valence

  ATOM       NA         ZA         QA         VA         BVA        FA
  0 C      5.9607     6.0000     0.0393     3.9419     3.6517     0.2902
  1 C      5.9607     6.0000     0.0393     3.9419     3.6517     0.2902
  2 H      1.0131     1.0000    -0.0131     0.9895     0.9342     0.0553
  3 H      1.0131     1.0000    -0.0131     0.9895     0.9342     0.0553
  4 H      1.0131     1.0000    -0.0131     0.9895     0.9342     0.0553
  5 H      1.0131     1.0000    -0.0131     0.9895     0.9342     0.0553
  6 H      1.0131     1.0000    -0.0131     0.9895     0.9342     0.0553
  7 H      1.0131     1.0000    -0.0131     0.9895     0.9342     0.0553

  Mayer bond orders larger than 0.100000
B(  0-C ,  1-C ) :   0.8244 B(  0-C ,  2-H ) :   0.9873 B(  0-C ,  3-H ) :   0.9873 
B(  0-C ,  4-H ) :   0.9873 B(  1-C ,  5-H ) :   0.9873 B(  1-C ,  6-H ) :   0.9873 
B(  1-C ,  7-H ) :   0.9873 


                *******************************************
                * RELAXED MP2 DENSITY POPULATION ANALYSIS *
                *******************************************

------------------------------------------------------------------------------
                           ORCA POPULATION ANALYSIS
------------------------------------------------------------------------------
Input electron density              ... staggered.pmp2re
BaseName (.gbw .S,...)              ... staggered

                    ********************************
                    * MULLIKEN POPULATION ANALYSIS *
                    ********************************

-----------------------
MULLIKEN ATOMIC CHARGES
-----------------------
   0 C :    0.011360
   1 C :    0.011360
   2 H :   -0.003787
   3 H :   -0.003787
   4 H :   -0.003787
   5 H :   -0.003787
   6 H :   -0.003787
   7 H :   -0.003787
Sum of atomic charges:   -0.0000000

--------------------------------
MULLIKEN REDUCED ORBITAL CHARGES
--------------------------------
  0 C s       :     3.179779  s :     3.179779
      pz      :     0.826913  p :     2.730120
      px      :     0.951603
      py      :     0.951603
      dz2     :     0.001467  d :     0.071968
      dxz     :     0.019614
      dyz     :     0.019614
      dx2y2   :     0.015637
      dxy     :     0.015637
      f0      :     0.001350  f :     0.006774
      f+1     :     0.001194
      f-1     :     0.001194
      f+2     :     0.000675
      f-2     :     0.000675
      f+3     :     0.000464
      f-3     :     0.001222
  1 C s       :     3.179779  s :     3.179779
      pz      :     0.826913  p :     2.730120
      px      :     0.951603
      py      :     0.951603
      dz2     :     0.001467  d :     0.071968
      dxz     :     0.019614
      dyz     :     0.019614
      dx2y2   :     0.015637
      dxy     :     0.015637
      f0      :     0.001350  f :     0.006774
      f+1     :     0.001194
      f-1     :     0.001194
      f+2     :     0.000675
      f-2     :     0.000675
      f+3     :     0.000464
      f-3     :     0.001222
  2 H s       :     0.966694  s :     0.966694
      pz      :     0.005543  p :     0.033770
      px      :     0.015113
      py      :     0.013115
      dz2     :     0.000535  d :     0.003322
      dxz     :     0.000151
      dyz     :     0.001097
      dx2y2   :     0.000656
      dxy     :     0.000884
  3 H s       :     0.966694  s :     0.966694
      pz      :     0.005543  p :     0.033770
      px      :     0.013614
      py      :     0.014613
      dz2     :     0.000535  d :     0.003322
      dxz     :     0.000860
      dyz     :     0.000387
      dx2y2   :     0.000827
      dxy     :     0.000713
  4 H s       :     0.966694  s :     0.966694
      pz      :     0.005543  p :     0.033770
      px      :     0.013614
      py      :     0.014613
      dz2     :     0.000535  d :     0.003322
      dxz     :     0.000860
      dyz     :     0.000387
      dx2y2   :     0.000827
      dxy     :     0.000713
  5 H s       :     0.966694  s :     0.966694
      pz      :     0.005543  p :     0.033770
      px      :     0.013614
      py      :     0.014613
      dz2     :     0.000535  d :     0.003322
      dxz     :     0.000860
      dyz     :     0.000387
      dx2y2   :     0.000827
      dxy     :     0.000713
  6 H s       :     0.966694  s :     0.966694
      pz      :     0.005543  p :     0.033770
      px      :     0.013614
      py      :     0.014613
      dz2     :     0.000535  d :     0.003322
      dxz     :     0.000860
      dyz     :     0.000387
      dx2y2   :     0.000827
      dxy     :     0.000713
  7 H s       :     0.966694  s :     0.966694
      pz      :     0.005543  p :     0.033770
      px      :     0.015113
      py      :     0.013115
      dz2     :     0.000535  d :     0.003322
      dxz     :     0.000151
      dyz     :     0.001097
      dx2y2   :     0.000656
      dxy     :     0.000884


                     *******************************
                     * LOEWDIN POPULATION ANALYSIS *
                     *******************************

----------------------
LOEWDIN ATOMIC CHARGES
----------------------
   0 C :    0.311414
   1 C :    0.311414
   2 H :   -0.103805
   3 H :   -0.103804
   4 H :   -0.103804
   5 H :   -0.103804
   6 H :   -0.103804
   7 H :   -0.103805

-------------------------------
LOEWDIN REDUCED ORBITAL CHARGES
-------------------------------
  0 C s       :     2.523836  s :     2.523836
      pz      :     0.850037  p :     2.649278
      px      :     0.899620
      py      :     0.899621
      dz2     :     0.110687  d :     0.484763
      dxz     :     0.132256
      dyz     :     0.132256
      dx2y2   :     0.054782
      dxy     :     0.054782
      f0      :     0.006281  f :     0.030709
      f+1     :     0.005201
      f-1     :     0.005201
      f+2     :     0.004222
      f-2     :     0.004222
      f+3     :     0.000533
      f-3     :     0.005051
  1 C s       :     2.523836  s :     2.523836
      pz      :     0.850037  p :     2.649278
      px      :     0.899620
      py      :     0.899621
      dz2     :     0.110687  d :     0.484763
      dxz     :     0.132256
      dyz     :     0.132256
      dx2y2   :     0.054782
      dxy     :     0.054782
      f0      :     0.006281  f :     0.030709
      f+1     :     0.005201
      f-1     :     0.005201
      f+2     :     0.004222
      f-2     :     0.004222
      f+3     :     0.000533
      f-3     :     0.005051
  2 H s       :     0.796697  s :     0.796697
      pz      :     0.074622  p :     0.272638
      px      :     0.078427
      py      :     0.119589
      dz2     :     0.005429  d :     0.034469
      dxz     :     0.001114
      dyz     :     0.010077
      dx2y2   :     0.007472
      dxy     :     0.010377
  3 H s       :     0.796697  s :     0.796697
      pz      :     0.074622  p :     0.272638
      px      :     0.109299
      py      :     0.088718
      dz2     :     0.005429  d :     0.034469
      dxz     :     0.007836
      dyz     :     0.003355
      dx2y2   :     0.009651
      dxy     :     0.008198
  4 H s       :     0.796697  s :     0.796697
      pz      :     0.074622  p :     0.272638
      px      :     0.109299
      py      :     0.088718
      dz2     :     0.005429  d :     0.034469
      dxz     :     0.007836
      dyz     :     0.003355
      dx2y2   :     0.009651
      dxy     :     0.008198
  5 H s       :     0.796697  s :     0.796697
      pz      :     0.074622  p :     0.272638
      px      :     0.109299
      py      :     0.088718
      dz2     :     0.005429  d :     0.034469
      dxz     :     0.007836
      dyz     :     0.003355
      dx2y2   :     0.009651
      dxy     :     0.008198
  6 H s       :     0.796697  s :     0.796697
      pz      :     0.074622  p :     0.272638
      px      :     0.109299
      py      :     0.088718
      dz2     :     0.005429  d :     0.034469
      dxz     :     0.007836
      dyz     :     0.003355
      dx2y2   :     0.009651
      dxy     :     0.008198
  7 H s       :     0.796697  s :     0.796697
      pz      :     0.074622  p :     0.272638
      px      :     0.078427
      py      :     0.119589
      dz2     :     0.005429  d :     0.034469
      dxz     :     0.001114
      dyz     :     0.010077
      dx2y2   :     0.007472
      dxy     :     0.010377


                      *****************************
                      * MAYER POPULATION ANALYSIS *
                      *****************************

  NA   - Mulliken gross atomic population
  ZA   - Total nuclear charge
  QA   - Mulliken gross atomic charge
  VA   - Mayer's total valence
  BVA  - Mayer's bonded valence
  FA   - Mayer's free valence

  ATOM       NA         ZA         QA         VA         BVA        FA
  0 C      5.9886     6.0000     0.0114     3.9493     3.6625     0.2868
  1 C      5.9886     6.0000     0.0114     3.9493     3.6625     0.2868
  2 H      1.0038     1.0000    -0.0038     0.9965     0.9415     0.0550
  3 H      1.0038     1.0000    -0.0038     0.9965     0.9415     0.0550
  4 H      1.0038     1.0000    -0.0038     0.9965     0.9415     0.0550
  5 H      1.0038     1.0000    -0.0038     0.9965     0.9415     0.0550
  6 H      1.0038     1.0000    -0.0038     0.9965     0.9415     0.0550
  7 H      1.0038     1.0000    -0.0038     0.9965     0.9415     0.0550

  Mayer bond orders larger than 0.100000
B(  0-C ,  1-C ) :   0.8321 B(  0-C ,  2-H ) :   0.9756 B(  0-C ,  3-H ) :   0.9756 
B(  0-C ,  4-H ) :   0.9756 B(  1-C ,  5-H ) :   0.9756 B(  1-C ,  6-H ) :   0.9756 
B(  1-C ,  7-H ) :   0.9756 


----------------------------------
MP2 DERIVATIVE INTEGRAL GENERATION
----------------------------------


Input Wavefunction Amplitudes       ... staggered.mp2tsaa.tmp
Input Correlated Electron Density   ... staggered.pmp2re
Input Energy Weighted Density       ... staggered.wmp2.tmp
Input SCF Electron Density          ... staggered.scfp

One-Electron Terms    ...
                        ... One-Electron Terms done
Prescreening matrices              ... done

Batch handling in the gradient evaluation:
Memory available                      ... 2000.0 MB
Memory per occupied orbital in Q2     ...    2.0 MB
Memory per occupied orbital in Q3     ...    0.1 MB
Total memory requirement per |i>      ...    2.1 MB
Max. Number of orbitals possible      ...    954
Number of orbitals treated per batch  ...      9
Number of batches to be done          ...      1
Batch   0: i=    0 ...     8

---------------------------------------
MP2 TOTAL ENERGY:      -79.674702748 Eh
---------------------------------------

-----------------------------------
NORM OF THE MP2 GRADIENT:  0.000027
-----------------------------------

-------------------------   --------------------
FINAL SINGLE POINT ENERGY       -79.674702747771
-------------------------   --------------------

------------------------------------------------------------------------------
                         ORCA GEOMETRY RELAXATION STEP
------------------------------------------------------------------------------

Reading the OPT-File                    .... done
Getting information on internals        .... done
Copying old internal coords+grads       .... done
Making the new internal coordinates     .... (new redundants).... done
Validating the new internal coordinates .... (new redundants).... done
Calculating the B-matrix                .... done
Calculating the G,G- and P matrices     .... done
Transforming gradient to internals      .... done
Projecting the internal gradient        .... done
Number of atoms                         ....   8
Number of internal coordinates          ....  28
Current Energy                          ....   -79.674702748 Eh
Current gradient norm                   ....     0.000027370 Eh/bohr
Maximum allowed component of the step   ....  0.300
Current trust radius                    ....  0.300
Evaluating the initial hessian          ....  (Almloef) done
Projecting the Hessian                  .... done
Forming the augmented Hessian           .... done
Diagonalizing the augmented Hessian     .... done
Last element of RFO vector              ....  0.999999993
Lowest eigenvalues of augmented Hessian:
 -0.000000005  0.012035699  0.105745451  0.105745451  0.105745473
Length of the computed step             ....  0.000116306
The final length of the internal step   ....  0.000116306
Converting the step to cartesian space:
 Initial RMS(Int)=    0.0000219798
Transforming coordinates:
 Iter   0:  RMS(Cart)=    0.0000438195 RMS(Int)=    1.1874104119
 Iter   1:  RMS(Cart)=    0.0000000001 RMS(Int)=    0.0000000001
done
Storing new coordinates                 .... done

                                .--------------------.
          ----------------------|Geometry convergence|-------------------------
          Item                value                   Tolerance       Converged
          ---------------------------------------------------------------------
          RMS gradient        0.0000080300            0.0000300000      YES
          MAX gradient        0.0000349342            0.0001000000      YES
          RMS step            0.0000219798            0.0006000000      YES
          MAX step            0.0000897945            0.0010000000      YES
          ........................................................
          Max(Bonds)      0.0000      Max(Angles)    0.00
          Max(Dihed)        0.00      Max(Improp)    0.00
          ---------------------------------------------------------------------

                    ***********************HURRAY********************
                    ***        THE OPTIMIZATION HAS CONVERGED     ***
                    *************************************************


    ---------------------------------------------------------------------------
                         Redundant Internal Coordinates

                          --- Optimized Parameters ---  
                            (Angstroem and degrees)

        Definition                    OldVal   dE/dq     Step     FinalVal
    ----------------------------------------------------------------------------
     1. B(C   1,C   0)                1.5190 -0.000035  0.0000    1.5190   
     2. B(H   2,C   0)                1.0877 -0.000006  0.0000    1.0877   
     3. B(H   3,C   0)                1.0877 -0.000006  0.0000    1.0877   
     4. B(H   4,C   0)                1.0877 -0.000006  0.0000    1.0877   
     5. B(H   5,C   1)                1.0877 -0.000006  0.0000    1.0877   
     6. B(H   6,C   1)                1.0877 -0.000006  0.0000    1.0877   
     7. B(H   7,C   1)                1.0877 -0.000006  0.0000    1.0877   
     8. A(H   2,C   0,H   4)          107.66  0.000006   -0.00    107.66   
     9. A(C   1,C   0,H   4)          111.22 -0.000005    0.00    111.22   
    10. A(C   1,C   0,H   2)          111.22 -0.000005    0.00    111.22   
    11. A(H   3,C   0,H   4)          107.66  0.000006   -0.00    107.66   
    12. A(H   2,C   0,H   3)          107.66  0.000006   -0.00    107.66   
    13. A(C   1,C   0,H   3)          111.22 -0.000005    0.00    111.22   
    14. A(C   0,C   1,H   5)          111.22 -0.000005    0.00    111.22   
    15. A(H   6,C   1,H   7)          107.66  0.000006   -0.00    107.66   
    16. A(H   5,C   1,H   7)          107.66  0.000006   -0.00    107.66   
    17. A(C   0,C   1,H   7)          111.22 -0.000005    0.00    111.22   
    18. A(H   5,C   1,H   6)          107.66  0.000006   -0.00    107.66   
    19. A(C   0,C   1,H   6)          111.22 -0.000005    0.00    111.22   
    20. D(H   5,C   1,C   0,H   3)    -60.00  0.000000   -0.00    -60.00   
    21. D(H   5,C   1,C   0,H   4)    180.00  0.000000   -0.00    180.00   
    22. D(H   6,C   1,C   0,H   2)    -60.00 -0.000000    0.00    -60.00   
    23. D(H   6,C   1,C   0,H   3)    180.00  0.000000   -0.00    180.00   
    24. D(H   6,C   1,C   0,H   4)     60.00 -0.000000    0.00     60.00   
    25. D(H   7,C   1,C   0,H   2)    180.00 -0.000000    0.00    180.00   
    26. D(H   7,C   1,C   0,H   3)     60.00  0.000000   -0.00     60.00   
    27. D(H   7,C   1,C   0,H   4)    -60.00 -0.000000    0.00    -60.00   
    28. D(H   5,C   1,C   0,H   2)     60.00  0.000000   -0.00     60.00   
    ----------------------------------------------------------------------------
                 *******************************************************
                 *** FINAL ENERGY EVALUATION AT THE STATIONARY POINT ***
                 ***               (AFTER    1 CYCLES)               ***
                 *******************************************************
---------------------------------
CARTESIAN COORDINATES (ANGSTROEM)
---------------------------------
  C     -0.000000    0.000000    0.759501
  C      0.000000   -0.000000   -0.759501
  H      0.000000   -1.013936    1.153277
  H     -0.878094    0.506968    1.153277
  H      0.878094    0.506968    1.153277
  H     -0.878094   -0.506968   -1.153277
  H      0.878094   -0.506968   -1.153277
  H     -0.000000    1.013936   -1.153277

----------------------------
CARTESIAN COORDINATES (A.U.)
----------------------------
  NO LB      ZA    FRAG     MASS         X           Y           Z
   0 C     6.0000    0    12.011   -0.000000    0.000000    1.435248
   1 C     6.0000    0    12.011    0.000000   -0.000000   -1.435248
   2 H     1.0000    0     1.008    0.000000   -1.916061    2.179378
   3 H     1.0000    0     1.008   -1.659358    0.958031    2.179378
   4 H     1.0000    0     1.008    1.659358    0.958031    2.179378
   5 H     1.0000    0     1.008   -1.659358   -0.958031   -2.179378
   6 H     1.0000    0     1.008    1.659358   -0.958031   -2.179378
   7 H     1.0000    0     1.008   -0.000000    1.916061   -2.179378

--------------------------------
INTERNAL COORDINATES (ANGSTROEM)
--------------------------------
 C      0   0   0     0.000000000000     0.00000000     0.00000000
 C      1   0   0     1.519001517217     0.00000000     0.00000000
 H      1   2   0     1.087716090962   111.22439236     0.00000000
 H      1   2   3     1.087716088599   111.22438774   240.00000428
 H      1   2   3     1.087716088627   111.22438774   119.99999572
 H      2   1   3     1.087716088616   111.22438774    60.00000428
 H      2   1   3     1.087716088624   111.22438774   299.99999572
 H      2   1   3     1.087716090962   111.22439236   180.00000085

---------------------------
INTERNAL COORDINATES (A.U.)
---------------------------
 C      0   0   0     0.000000000000     0.00000000     0.00000000
 C      1   0   0     2.870496864551     0.00000000     0.00000000
 H      1   2   0     2.055485523377   111.22439236     0.00000000
 H      1   2   3     2.055485518913   111.22438774   240.00000428
 H      1   2   3     2.055485518965   111.22438774   119.99999572
 H      2   1   3     2.055485518944   111.22438774    60.00000428
 H      2   1   3     2.055485518959   111.22438774   299.99999572
 H      2   1   3     2.055485523377   111.22439236   180.00000085

---------------------
BASIS SET INFORMATION
---------------------
There are 2 groups of distinct atoms

 Group   1 Type C   : 11s5p3d1f contracted to 4s3p3d1f pattern {6311/311/111/1}
 Group   2 Type H   : 5s3p1d contracted to 3s3p1d pattern {311/111/1}

Atom   0C    basis set group =>   1
Atom   1C    basis set group =>   1
Atom   2H    basis set group =>   2
Atom   3H    basis set group =>   2
Atom   4H    basis set group =>   2
Atom   5H    basis set group =>   2
Atom   6H    basis set group =>   2
Atom   7H    basis set group =>   2


           ************************************************************
           *        Program running with 2 parallel MPI-processes     *
           *              working on a common directory               *
           ************************************************************
------------------------------------------------------------------------------
                           ORCA GTO INTEGRAL CALCULATION
------------------------------------------------------------------------------

                         BASIS SET STATISTICS AND STARTUP INFO

 # of primitive gaussian shells          ...   94
 # of primitive gaussian functions       ...  210
 # of contracted shells                  ...   64
 # of contracted basis functions         ...  172
 Highest angular momentum                ...    3
 Maximum contraction depth               ...    6
 Integral package used                   ... LIBINT
 Integral threshhold            Thresh   ...  2.500e-11
 Primitive cut-off              TCut     ...  2.500e-12


------------------------------ INTEGRAL EVALUATION ----------------------------


 * One electron integrals 
 Pre-screening matrix                    ... done
 Shell pair data                         ... done (   0.001 sec)



           ************************************************************
           *        Program running with 2 parallel MPI-processes     *
           *              working on a common directory               *
           ************************************************************
-------------------------------------------------------------------------------
                                 ORCA SCF
-------------------------------------------------------------------------------

------------
SCF SETTINGS
------------
Hamiltonian:
 Ab initio Hamiltonian  Method          .... Hartree-Fock(GTOs)


General Settings:
 Integral files         IntName         .... staggered
 Hartree-Fock type      HFTyp           .... RHF
 Total Charge           Charge          ....    0
 Multiplicity           Mult            ....    1
 Number of Electrons    NEL             ....   18
 Basis Dimension        Dim             ....  172
 Nuclear Repulsion      ENuc            ....     42.4401468252 Eh

Convergence Acceleration:
 DIIS                   CNVDIIS         .... on
   Start iteration      DIISMaxIt       ....    12
   Startup error        DIISStart       ....  0.200000
   # of expansion vecs  DIISMaxEq       ....     5
   Bias factor          DIISBfac        ....   1.050
   Max. coefficient     DIISMaxC        ....  10.000
 Newton-Raphson         CNVNR           .... off
 SOSCF                  CNVSOSCF        .... on
   Start iteration      SOSCFMaxIt      ....   150
   Startup grad/error   SOSCFStart      ....  0.003300
 Level Shifting         CNVShift        .... on
   Level shift para.    LevelShift      ....    0.2500
   Turn off err/grad.   ShiftErr        ....    0.0010
 Zerner damping         CNVZerner       .... off
 Static damping         CNVDamp         .... on
   Fraction old density DampFac         ....    0.7000
   Max. Damping (<1)    DampMax         ....    0.9800
   Min. Damping (>=0)   DampMin         ....    0.0000
   Turn off err/grad.   DampErr         ....    0.1000
 Fernandez-Rico         CNVRico         .... off

SCF Procedure:
 Maximum # iterations   MaxIter         ....   125
 SCF integral mode      SCFMode         .... Direct
   Integral package                     .... LIBINT
 Reset frequency        DirectResetFreq ....    20
 Integral Threshold     Thresh          ....  2.500e-11 Eh
 Primitive CutOff       TCut            ....  2.500e-12 Eh

Convergence Tolerance:
 Convergence Check Mode ConvCheckMode   .... Total+1el-Energy
 Convergence forced     ConvForced      .... 1
 Energy Change          TolE            ....  1.000e-08 Eh
 1-El. energy change                    ....  1.000e-05 Eh
 Orbital Gradient       TolG            ....  1.000e-05
 Orbital Rotation angle TolX            ....  1.000e-05
 DIIS Error             TolErr          ....  5.000e-07


Diagonalization of the overlap matrix:
Smallest eigenvalue                        ... 9.276e-05
Time for diagonalization                   ...    0.007 sec
Threshold for overlap eigenvalues          ... 1.000e-08
Number of eigenvalues below threshold      ... 0
Time for construction of square roots      ...    0.006 sec
Total time needed                          ...    0.013 sec

---------------------
INITIAL GUESS: MOREAD
---------------------
Guess MOs are being read from file: staggered.gbw
Input Geometry matches current geometry (good)
Input basis set matches current basis set (good)
MOs were renormalized
MOs were reorthogonalized (Cholesky)
                      ------------------
                      INITIAL GUESS DONE (   0.0 sec)
                      ------------------
--------------
SCF ITERATIONS
--------------
ITER       Energy         Delta-E        Max-DP      RMS-DP      [F,P]     Damp
               ***  Starting incremental Fock matrix formation  ***
                      *** Initiating the SOSCF procedure ***
                      *** Re-Reading the Fockian *** 
                      *** Removing any level shift *** 
ITER      Energy       Delta-E        Grad      Rot      Max-DP    RMS-DP
  0    -79.25833278 -79.2583327807  0.000008  0.000008  0.000036  0.000000
               *** Restarting incremental Fock matrix formation ***
                  ***Gradient check signals convergence***
              ***Rediagonalizing the Fockian in SOSCF/NRSCF***

               *****************************************************
               *                     SUCCESS                       *
               *           SCF CONVERGED AFTER   1 CYCLES          *
               *****************************************************


----------------
TOTAL SCF ENERGY
----------------

Total Energy       :          -79.25833278 Eh           -2156.72888 eV

Components:
Nuclear Repulsion  :           42.44014683 Eh            1154.85511 eV
Electronic Energy  :         -121.69847961 Eh           -3311.58399 eV
One Electron Energy:         -189.48096726 Eh           -5156.03925 eV
Two Electron Energy:           67.78248765 Eh            1844.45526 eV

Virial components:
Potential Energy   :         -158.47945485 Eh           -4312.44521 eV
Kinetic Energy     :           79.22112207 Eh            2155.71633 eV
Virial Ratio       :            2.00046971


---------------
SCF CONVERGENCE
---------------

  Last Energy change         ...   -4.5637e-10  Tolerance :   1.0000e-08
  Last MAX-Density change    ...    6.4445e-06  Tolerance :   1.0000e-07
  Last RMS-Density change    ...    8.1422e-08  Tolerance :   5.0000e-09
  Last Orbital Gradient      ...    1.2509e-06  Tolerance :   1.0000e-05
  Last Orbital Rotation      ...    1.1807e-06  Tolerance :   1.0000e-05

             **** THE GBW FILE WAS UPDATED (staggered.gbw) ****
             **** DENSITY FILE WAS UPDATED (staggered.scfp) ****
             **** ENERGY FILE WAS UPDATED (staggered.en.tmp) ****
             **** THE GBW FILE WAS UPDATED (staggered.gbw) ****
             **** DENSITY FILE WAS UPDATED (staggered.scfp) ****
----------------
ORBITAL ENERGIES
----------------

  NO   OCC          E(Eh)            E(eV) 
   0   2.0000     -11.208115      -304.9883 
   1   2.0000     -11.207487      -304.9712 
[...]

Dipole Moment Calculation                       ... on
Quadrupole Moment Calculation                   ... off
Polarizability Calculation                      ... off
GBWName                                         ... staggered.gbw
Electron density file                           ... staggered.pmp2ur
The origin for moment calculation is the CENTER OF MASS  = (-0.000000,  0.000000 -0.000000)

-------------
DIPOLE MOMENT
-------------
                                X             Y             Z
Electronic contribution:     -0.00000       0.00000      -0.00000
Nuclear contribution   :      0.00000      -0.00000       0.00000
                        -----------------------------------------
Total Dipole Moment    :     -0.00000       0.00000       0.00000
                        -----------------------------------------
Magnitude (a.u.)       :      0.00000
Magnitude (Debye)      :      0.00000



--------------------
Rotational spectrum 
--------------------
 
Rotational constants in cm-1:     2.711215     0.674039     0.674039 
Rotational constants in MHz : 81280.183363 20207.185690 20207.185046 

 Dipole components along the rotational axes: 
x,y,z [a.u.] :     0.000000     0.000000    -0.000000 
x,y,z [Debye]:     0.000000     0.000000    -0.000000 

 

                           *** MP2 RELAXED DENSITY ***

------------------------------------------------------------------------------
                       ORCA ELECTRIC PROPERTIES CALCULATION
------------------------------------------------------------------------------

Dipole Moment Calculation                       ... on
Quadrupole Moment Calculation                   ... off
Polarizability Calculation                      ... off
GBWName                                         ... staggered.gbw
Electron density file                           ... staggered.pmp2re
The origin for moment calculation is the CENTER OF MASS  = (-0.000000,  0.000000 -0.000000)

-------------
DIPOLE MOMENT
-------------
                                X             Y             Z
Electronic contribution:     -0.00000       0.00000      -0.00000
Nuclear contribution   :      0.00000      -0.00000       0.00000
                        -----------------------------------------
Total Dipole Moment    :      0.00000       0.00000       0.00000
                        -----------------------------------------
Magnitude (a.u.)       :      0.00000
Magnitude (Debye)      :      0.00000



--------------------
Rotational spectrum 
--------------------
 
Rotational constants in cm-1:     2.711215     0.674039     0.674039 
Rotational constants in MHz : 81280.183363 20207.185690 20207.185046 

 Dipole components along the rotational axes: 
x,y,z [a.u.] :     0.000000    -0.000000    -0.000000 
x,y,z [Debye]:     0.000000    -0.000000    -0.000000 

 
------------------------------------------------------------------------------
                         ORCA MP2 H E S S I A N CALCULATION
------------------------------------------------------------------------------

Calculating analytic MP2 second derivatives ... (>staggered.last_mp2) done

-----------------------
VIBRATIONAL FREQUENCIES
-----------------------

Scaling factor for frequencies =  1.000000000  (already applied!)

   0:         0.00 cm**-1
   1:         0.00 cm**-1
   2:         0.00 cm**-1
   3:         0.00 cm**-1
   4:         0.00 cm**-1
   5:         0.00 cm**-1
   6:       324.66 cm**-1
   7:       832.01 cm**-1
   8:       832.02 cm**-1
   9:      1036.59 cm**-1
  10:      1231.45 cm**-1
  11:      1231.46 cm**-1
  12:      1419.10 cm**-1
  13:      1436.53 cm**-1
  14:      1521.11 cm**-1
  15:      1521.15 cm**-1
  16:      1523.07 cm**-1
  17:      1523.10 cm**-1
  18:      3065.05 cm**-1
  19:      3065.95 cm**-1
  20:      3142.09 cm**-1
  21:      3142.09 cm**-1
  22:      3163.89 cm**-1
  23:      3163.90 cm**-1


------------
NORMAL MODES
------------

These modes are the Cartesian displacements weighted by the diagonal matrix
M(i,i)=1/sqrt(m[i]) where m[i] is the mass of the displaced atom
Thus, these vectors are normalized but *not* orthogonal

                  0          1          2          3          4          5    
      0       0.000000   0.000000   0.000000   0.000000   0.000000   0.000000
      1       0.000000   0.000000   0.000000   0.000000   0.000000   0.000000
      2       0.000000   0.000000   0.000000   0.000000   0.000000   0.000000
      3       0.000000   0.000000   0.000000   0.000000   0.000000   0.000000
      4       0.000000   0.000000   0.000000   0.000000   0.000000   0.000000
      5       0.000000   0.000000   0.000000   0.000000   0.000000   0.000000
      6       0.000000   0.000000   0.000000   0.000000   0.000000   0.000000
      7       0.000000   0.000000   0.000000   0.000000   0.000000   0.000000
      8       0.000000   0.000000   0.000000   0.000000   0.000000   0.000000
      9       0.000000   0.000000   0.000000   0.000000   0.000000   0.000000
     10       0.000000   0.000000   0.000000   0.000000   0.000000   0.000000
     11       0.000000   0.000000   0.000000   0.000000   0.000000   0.000000
     12       0.000000   0.000000   0.000000   0.000000   0.000000   0.000000
     13       0.000000   0.000000   0.000000   0.000000   0.000000   0.000000
     14       0.000000   0.000000   0.000000   0.000000   0.000000   0.000000
     15       0.000000   0.000000   0.000000   0.000000   0.000000   0.000000
     16       0.000000   0.000000   0.000000   0.000000   0.000000   0.000000
     17       0.000000   0.000000   0.000000   0.000000   0.000000   0.000000
     18       0.000000   0.000000   0.000000   0.000000   0.000000   0.000000
     19       0.000000   0.000000   0.000000   0.000000   0.000000   0.000000
     20       0.000000   0.000000   0.000000   0.000000   0.000000   0.000000
     21       0.000000   0.000000   0.000000   0.000000   0.000000   0.000000
     22       0.000000   0.000000   0.000000   0.000000   0.000000   0.000000
     23       0.000000   0.000000   0.000000   0.000000   0.000000   0.000000
                  6          7          8          9         10         11    
      0      -0.000002   0.000432  -0.047901  -0.000000   0.144667  -0.013276
      1      -0.000000   0.047902   0.000432   0.000005  -0.013276  -0.144666
      2      -0.000000  -0.000001   0.000000  -0.307160  -0.000001  -0.000004
      3      -0.000002   0.000432  -0.047901   0.000000  -0.144667   0.013276
      4      -0.000000   0.047902   0.000432  -0.000005   0.013276   0.144666
      5      -0.000000  -0.000001   0.000000   0.307160   0.000001   0.000004
      6       0.408267  -0.002034   0.225690   0.000000  -0.272116   0.024973
      7       0.000000  -0.154814  -0.001395  -0.015240   0.004989   0.054361
      8       0.000001  -0.506815  -0.004568  -0.367411   0.044921   0.489491
      9      -0.204120  -0.032258   0.172266  -0.013207  -0.100145   0.104265
     10      -0.353545  -0.208260   0.028833   0.007607  -0.074317   0.226317
     11       0.000010   0.249457   0.441204  -0.367400  -0.446367  -0.205850
     12      -0.204120   0.029147   0.172819   0.013207  -0.117449  -0.084296
     13       0.353545  -0.207706  -0.032583   0.007607   0.114268   0.209010
     14      -0.000011   0.257369  -0.436635  -0.367400   0.401445  -0.283653
     15      -0.204120   0.029147   0.172820  -0.013207   0.117449   0.084296
     16       0.353545  -0.207706  -0.032583  -0.007607  -0.114268  -0.209010
     17      -0.000011   0.257369  -0.436636   0.367400  -0.401445   0.283654
     18      -0.204120  -0.032258   0.172266   0.013207   0.100145  -0.104265
     19      -0.353545  -0.208260   0.028833  -0.007607   0.074317  -0.226317
     20       0.000010   0.249457   0.441204   0.367400   0.446367   0.205850
     21       0.408267  -0.002034   0.225690  -0.000000   0.272116  -0.024972
     22       0.000000  -0.154814  -0.001396   0.015240  -0.004989  -0.054361
     23       0.000000  -0.506815  -0.004568   0.367411  -0.044921  -0.489491
                 12         13         14         15         16         17    
      0      -0.000000   0.000000  -0.049257  -0.000009  -0.019035   0.000020
      1      -0.000003   0.000000   0.000008  -0.049256  -0.000019  -0.019039
      2       0.093103  -0.111641  -0.000000  -0.000004  -0.000000  -0.000003
      3       0.000000  -0.000000  -0.049257  -0.000008   0.019035  -0.000019
      4      -0.000003  -0.000000   0.000009  -0.049256   0.000019   0.019039
      5       0.093103   0.111641  -0.000000  -0.000004   0.000000   0.000003
      6       0.000000  -0.000001   0.514211   0.000091   0.479782  -0.000487
      7      -0.164414   0.174326   0.000020  -0.122920  -0.000117  -0.117930
      8      -0.369812   0.363488   0.000036  -0.228416  -0.000298  -0.298304
      9      -0.142363   0.150970   0.036314   0.275917   0.031755   0.258787
     10       0.082223  -0.087166   0.275848   0.354970   0.259147   0.330100
     11      -0.369786   0.363486  -0.197843   0.114199  -0.258199   0.149413
     12       0.142362  -0.150970   0.036403  -0.275904   0.031239  -0.258851
     13       0.082223  -0.087165  -0.275962   0.354872  -0.258489   0.330625
     14      -0.369786   0.363485   0.197808   0.114270   0.258499   0.148890
     15       0.142363   0.150970   0.036408  -0.275905  -0.031235   0.258849
     16       0.082223   0.087165  -0.275968   0.354876   0.258484  -0.330619
     17      -0.369786  -0.363485   0.197804   0.114266  -0.258500  -0.148893
     18      -0.142363  -0.150970   0.036309   0.275917  -0.031759  -0.258787
     19       0.082223   0.087166   0.275841   0.354966  -0.259152  -0.330105
     20      -0.369786  -0.363486  -0.197846   0.114203   0.258198  -0.149409
     21       0.000000   0.000001   0.514211   0.000084  -0.479783   0.000477
     22      -0.164414  -0.174326   0.000022  -0.122920   0.000119   0.117930
     23      -0.369812  -0.363488   0.000042  -0.228417   0.000301   0.298303
                 18         19         20         21         22         23    
      0       0.000001  -0.000000   0.065335   0.000534  -0.001046  -0.065742
      1       0.000004   0.000003   0.000534  -0.065335  -0.065743   0.001046
      2       0.036990  -0.034360  -0.000000   0.000003  -0.000003   0.000000
      3      -0.000001  -0.000000  -0.065335  -0.000534  -0.001046  -0.065742
      4      -0.000004   0.000003  -0.000534   0.065335  -0.065743   0.001046
      5      -0.036990  -0.034360   0.000000  -0.000003  -0.000003   0.000000
      6       0.000000  -0.000000   0.015631   0.000128  -0.000220  -0.013803
      7       0.383320  -0.384289  -0.004396   0.537117   0.536020  -0.008531
      8      -0.138718   0.136488   0.001673  -0.204356  -0.206941   0.003294
      9       0.332014  -0.332748  -0.396953  -0.242574  -0.231774   0.402374
     10      -0.191683   0.192125   0.238333   0.124490   0.119884  -0.240064
     11      -0.138737   0.136465   0.176136   0.103611   0.100633  -0.180873
     12      -0.332020   0.332749  -0.400863   0.236047   0.244462   0.394793
     13      -0.191687   0.192126  -0.240335   0.120575   0.127463   0.236127
     14      -0.138740   0.136465  -0.177804   0.100715   0.106339   0.177578
     15       0.332021   0.332749   0.400863  -0.236048   0.244462   0.394793
     16       0.191687   0.192126   0.240335  -0.120575   0.127463   0.236127
     17       0.138740   0.136465   0.177804  -0.100715   0.106339   0.177578
     18      -0.332014  -0.332747   0.396953   0.242573  -0.231774   0.402375
     19       0.191684   0.192125  -0.238333  -0.124490   0.119884  -0.240065
     20       0.138738   0.136465  -0.176136  -0.103610   0.100633  -0.180874
     21      -0.000000  -0.000000  -0.015631  -0.000128  -0.000220  -0.013803
     22      -0.383320  -0.384289   0.004397  -0.537117   0.536020  -0.008531
     23       0.138718   0.136487  -0.001673   0.204356  -0.206941   0.003294


-----------
IR SPECTRUM
-----------

 Mode    freq (cm**-1)   T**2         TX         TY         TZ
-------------------------------------------------------------------
   6:       324.66    0.000003  ( -0.001808   0.000003  -0.000000)
   7:       832.01    3.452416  ( -0.016752  -1.857992  -0.000324)
   8:       832.02    3.453935  (  1.858401  -0.016746  -0.000004)
   9:      1036.59    0.000000  (  0.000000   0.000000  -0.000000)
  10:      1231.45    0.000000  (  0.000000  -0.000000  -0.000000)
  11:      1231.46    0.000000  (  0.000000  -0.000000   0.000000)
  12:      1419.10    1.265537  ( -0.000001  -0.000083  -1.124961)
  13:      1436.53    0.000000  ( -0.000001  -0.000000   0.000000)
  14:      1521.11    8.820337  (  2.969905  -0.000507  -0.000000)
  15:      1521.15    8.811336  (  0.000507   2.968389   0.000649)
  16:      1523.07    0.000000  ( -0.000002  -0.000021   0.000000)
  17:      1523.10    0.000000  ( -0.000028   0.000002   0.000000)
  18:      3065.05    0.000000  ( -0.000001   0.000000  -0.000004)
  19:      3065.95   46.411475  ( -0.000014  -0.000048  -6.812597)
  20:      3142.09    0.000000  (  0.000000  -0.000002   0.000001)
  21:      3142.09    0.000000  (  0.000005   0.000000  -0.000000)
  22:      3163.89   44.425315  ( -0.106087  -6.664387  -0.000351)
  23:      3163.90   44.432774  ( -6.664947   0.106078   0.000021)

The first frequency considered to be a vibration is 6
The total number of vibrations considered is 18


--------------------------
THERMOCHEMISTRY AT 298.15K
--------------------------

Temperature         ... 298.15 K
Pressure            ... 1.00 atm
Total Mass          ... 30.07 AMU

Throughout the following assumptions are being made:
  (1) The electronic state is orbitally nondegenerate
  (2) There are no thermally accessible electronically excited states
  (3) Hindered rotations indicated by low frequency modes are not
      treated as such but are treated as vibrations and this may
      cause some error
  (4) All equations used are the standard statistical mechanics
      equations for an ideal gas
  (5) All vibrations are strictly harmonic

freq.     324.66  E(vib)   ...       0.24 
freq.     832.01  E(vib)   ...       0.04 
freq.     832.02  E(vib)   ...       0.04 
freq.    1036.59  E(vib)   ...       0.02 
freq.    1231.45  E(vib)   ...       0.01 
freq.    1231.46  E(vib)   ...       0.01 
freq.    1419.10  E(vib)   ...       0.00 
freq.    1436.53  E(vib)   ...       0.00 
freq.    1521.11  E(vib)   ...       0.00 
freq.    1521.15  E(vib)   ...       0.00 
freq.    1523.07  E(vib)   ...       0.00 
freq.    1523.10  E(vib)   ...       0.00 
freq.    3065.05  E(vib)   ...       0.00 
freq.    3065.95  E(vib)   ...       0.00 
freq.    3142.09  E(vib)   ...       0.00 
freq.    3142.09  E(vib)   ...       0.00 
freq.    3163.89  E(vib)   ...       0.00 
freq.    3163.90  E(vib)   ...       0.00 

------------
INNER ENERGY
------------

The inner energy is: U= E(el) + E(ZPE) + E(vib) + E(rot) + E(trans)
    E(el)   - is the total energy from the electronic structure calculation
              = E(kin-el) + E(nuc-el) + E(el-el) + E(nuc-nuc)
    E(ZPE)  - the the zero temperature vibrational energy from the frequency calculation
    E(vib)  - the the finite temperature correction to E(ZPE) due to population
              of excited vibrational states
    E(rot)  - is the rotational thermal energy
    E(trans)- is the translational thermal energy

Summary of contributions to the inner energy U:
Electronic energy                ...    -79.67470274 Eh
Zero point energy                ...      0.07557874 Eh      47.43 kcal/mol
Thermal vibrational correction   ...      0.00062229 Eh       0.39 kcal/mol
Thermal rotational correction    ...      0.00141627 Eh       0.89 kcal/mol
Thermal translational correction ...      0.00141627 Eh       0.89 kcal/mol
-----------------------------------------------------------------------
Total thermal energy                    -79.59566917 Eh


Summary of corrections to the electronic energy:
(perhaps to be used in another calculation)
Total thermal correction                  0.00345483 Eh       2.17 kcal/mol
Non-thermal (ZPE) correction              0.07557874 Eh      47.43 kcal/mol
-----------------------------------------------------------------------
Total correction                          0.07903357 Eh      49.59 kcal/mol


--------
ENTHALPY
--------

The enthalpy is H = U + kB*T
                kB is Boltzmann's constant
Total free energy                 ...    -79.59566917 Eh 
Thermal Enthalpy correction       ...      0.00094421 Eh       0.59 kcal/mol
-----------------------------------------------------------------------
Total Enthalpy                    ...    -79.59472496 Eh


Note: Rotational entropy computed according to Herzberg 
Infrared and Raman Spectra, Chapter V,1, Van Nostrand Reinhold, 1945 
Point Group:  D3d, Symmetry Number:   6  
Rotational constants in cm-1:     2.711215     0.674039     0.674039 

Vibrational entropy computed according to the QRRHO of S. Grimme
Chem.Eur.J. 2012 18 9955


-------
ENTROPY
-------

The entropy contributions are T*S = T*(S(el)+S(vib)+S(rot)+S(trans))
     S(el)   - electronic entropy
     S(vib)  - vibrational entropy
     S(rot)  - rotational entropy
     S(trans)- translational entropy
The entropies will be listed as mutliplied by the temperature to get
units of energy

Electronic entropy                ...      0.00000000 Eh      0.00 kcal/mol
Vibrational entropy               ...      0.00089525 Eh      0.56 kcal/mol
Rotational entropy                ...      0.00772065 Eh      4.84 kcal/mol
Translational entropy             ...      0.01716939 Eh     10.77 kcal/mol
-----------------------------------------------------------------------
Final entropy term                ...      0.02578529 Eh     16.18 kcal/mol

In case the symmetry of your molecule has not been determined correctly
or in case you have a reason to use a different symmetry number we print 
out the resulting rotational entropy values for sn=1,12 :
 --------------------------------------------------------
|  sn= 1 | S(rot)=       0.00941240 Eh      5.91 kcal/mol|
|  sn= 2 | S(rot)=       0.00875794 Eh      5.50 kcal/mol|
|  sn= 3 | S(rot)=       0.00837511 Eh      5.26 kcal/mol|
|  sn= 4 | S(rot)=       0.00810348 Eh      5.09 kcal/mol|
|  sn= 5 | S(rot)=       0.00789280 Eh      4.95 kcal/mol|
|  sn= 6 | S(rot)=       0.00772065 Eh      4.84 kcal/mol|
|  sn= 7 | S(rot)=       0.00757511 Eh      4.75 kcal/mol|
|  sn= 8 | S(rot)=       0.00744903 Eh      4.67 kcal/mol|
|  sn= 9 | S(rot)=       0.00733782 Eh      4.60 kcal/mol|
|  sn=10 | S(rot)=       0.00723834 Eh      4.54 kcal/mol|
|  sn=11 | S(rot)=       0.00714835 Eh      4.49 kcal/mol|
|  sn=12 | S(rot)=       0.00706620 Eh      4.43 kcal/mol|
 --------------------------------------------------------


-------------------
GIBBS FREE ENERGY
-------------------

The Gibbs free energy is G = H - T*S

Total enthalpy                    ...    -79.59472496 Eh 
Total entropy correction          ...     -0.02578529 Eh    -16.18 kcal/mol
-----------------------------------------------------------------------
Final Gibbs free energy         ...    -79.62051025 Eh

For completeness - the Gibbs free energy minus the electronic energy
G-E(el)                           ...      0.05419249 Eh     34.01 kcal/mol


Timings for individual modules:

Sum of individual times         ...     2606.370 sec (=  43.440 min)
GTO integral calculation        ...        1.285 sec (=   0.021 min)   0.0 %
SCF iterations                  ...       34.255 sec (=   0.571 min)   1.3 %
MP2 module                      ...      113.085 sec (=   1.885 min)   4.3 %
Geometry relaxation             ...        0.721 sec (=   0.012 min)   0.0 %
Analytical frequency calculation...     2457.024 sec (=  40.950 min)  94.3 %
                             ****ORCA TERMINATED NORMALLY****
TOTAL RUN TIME: 0 days 0 hours 43 minutes 27 seconds 129 msec
