
                                 *****************
                                 * O   R   C   A *
                                 *****************

           --- An Ab Initio, DFT and Semiempirical electronic structure package ---

                  #######################################################
                  #                        -***-                        #
                  #          Department of theory and spectroscopy      #
                  #               Directorship: Frank Neese             #
                  #        Max Planck Institute fuer Kohlenforschung    #
                  #                Kaiser Wilhelm Platz 1               #
                  #                 D-45470 Muelheim/Ruhr               #
                  #                      Germany                        #
                  #                                                     #
                  #                  All rights reserved                #
                  #                        -***-                        #
                  #######################################################


                         Program Version 4.2.1 -  RELEASE  -


 With contributions from (in alphabetic order):
   Daniel Aravena         : Magnetic Suceptibility
   Michael Atanasov       : Ab Initio Ligand Field Theory (pilot matlab implementation)
   Alexander A. Auer      : GIAO ZORA, VPT2
   Ute Becker             : Parallelization
   Giovanni Bistoni       : ED, misc. LED, open-shell LED, HFLD
   Martin Brehm           : Molecular dynamics
   Dmytro Bykov           : SCF Hessian
   Vijay G. Chilkuri      : MRCI spin determinant printing, contributions to CSF-ICE
   Dipayan Datta          : RHF DLPNO-CCSD density
   Achintya Kumar Dutta   : EOM-CC, STEOM-CC
   Dmitry Ganyushin       : Spin-Orbit,Spin-Spin,Magnetic field MRCI
   Miquel Garcia          : C-PCM Hessian, Gaussian charge scheme
   Yang Guo               : DLPNO-NEVPT2, CIM, IAO-localization
   Andreas Hansen         : Spin unrestricted coupled pair/coupled cluster methods
   Benjamin Helmich-Paris : CASSCF linear response (MC-RPA)
   Lee Huntington         : MR-EOM, pCC
   Robert Izsak           : Overlap fitted RIJCOSX, COSX-SCS-MP3, EOM
   Christian Kollmar      : KDIIS, OOCD, Brueckner-CCSD(T), CCSD density
   Simone Kossmann        : Meta GGA functionals, TD-DFT gradient, OOMP2, MP2 Hessian
   Martin Krupicka        : AUTO-CI
   Lucas Lang             : DCDCAS
   Dagmar Lenk            : GEPOL surface, SMD
   Dimitrios Liakos       : Extrapolation schemes; Compound Job, initial MDCI parallelization
   Dimitrios Manganas     : Further ROCIS development; embedding schemes
   Dimitrios Pantazis     : SARC Basis sets
   Taras Petrenko         : DFT Hessian,TD-DFT gradient, ASA, ECA, R-Raman, ABS, FL, XAS/XES, NRVS
   Peter Pinski           : DLPNO-MP2, DLPNO-MP2 Gradient
   Christoph Reimann      : Effective Core Potentials
   Marius Retegan         : Local ZFS, SOC
   Christoph Riplinger    : Optimizer, TS searches, QM/MM, DLPNO-CCSD(T), (RO)-DLPNO pert. Triples
   Tobias Risthaus        : Range-separated hybrids, TD-DFT gradient, RPA, STAB
   Michael Roemelt        : Original ROCIS implementation
   Masaaki Saitow         : Open-shell DLPNO-CCSD energy and density
   Barbara Sandhoefer     : DKH picture change effects
   Avijit Sen             : IP-ROCIS
   Kantharuban Sivalingam : CASSCF convergence, NEVPT2, FIC-MRCI
   Bernardo de Souza      : ESD, SOC TD-DFT
   Georgi Stoychev        : AutoAux, RI-MP2 NMR
   Willem Van den Heuvel  : Paramagnetic NMR
   Boris Wezisla          : Elementary symmetry handling
   Frank Wennmohs         : Technical directorship


 We gratefully acknowledge several colleagues who have allowed us to
 interface, adapt or use parts of their codes:
   Stefan Grimme, W. Hujo, H. Kruse,             : VdW corrections, initial TS optimization,
                  C. Bannwarth                     DFT functionals, gCP, sTDA/sTD-DF
   Ed Valeev, F. Pavosevic, A. Kumar             : LibInt (2-el integral package), F12 methods
   Garnet Chan, S. Sharma, J. Yang, R. Olivares  : DMRG
   Ulf Ekstrom                                   : XCFun DFT Library
   Mihaly Kallay                                 : mrcc  (arbitrary order and MRCC methods)
   Andreas Klamt, Michael Diedenhofen            : otool_cosmo (COSMO solvation model)
   Jiri Pittner, Ondrej Demel                    : Mk-CCSD
   Frank Weinhold                                : gennbo (NPA and NBO analysis)
   Christopher J. Cramer and Donald G. Truhlar   : smd solvation model
   Lars Goerigk                                  : TD-DFT with DH, B97 family of functionals
   V. Asgeirsson, H. Jonsson                     : NEB implementation
   FAccTs GmbH                                   : IRC, NEB, NEB-TS, Multilevel, MM, QM/MM, CI optimization
   S Lehtola, MJT Oliveira, MAL Marques          : LibXC Library


 Your calculation uses the libint2 library for the computation of 2-el integrals
 For citations please refer to: http://libint.valeyev.net

 Your ORCA version has been built with support for libXC version: 4.2.3
 For citations please refer to: https://tddft.org/programs/libxc/

 This ORCA versions uses:
   CBLAS   interface :  Fast vector & matrix operations
   LAPACKE interface :  Fast linear algebra routines
   SCALAPACK package :  Parallel linear algebra routines




***************************************
The coordinates will be read from file: init.xyz
***************************************


Your calculation utilizes the SMD solvation module
Please cite in your paper:
A.V. Marenich, C.J. Cramer, D.G. Truhlar J. Phys. Chem. B, 113, (2009), 6378 

Your calculation utilizes the semiempirical GFN2-xTB method
Please cite in your paper:
C. Bannwarth, Ehlert S., S. Grimme,  J. Chem. Theory Comput., 15, (2019), 1652.
   

----- Orbital basis set information -----
Your calculation utilizes the basis: def2-SVP
   F. Weigend and R. Ahlrichs, Phys. Chem. Chem. Phys. 7, 3297 (2005).

================================================================================
                                        WARNINGS
                       Please study these warnings very carefully!
================================================================================


WARNING: The environment variable RSH_COMMAND is not set!
  ===> : All Displacements for the Numerical Hessian calculation
         will be started on localhost

WARNING: Geometry Optimization
  ===> : Switching off AutoStart
         For restart on a previous wavefunction, please use MOREAD

WARNING: Found dipole moment calculation with XTB calculation
  ===> : Switching off dipole moment calculation


INFO   : the flag for use of LIBINT has been found!

================================================================================
                                       INPUT FILE
================================================================================
NAME = opt+numfreq.inp
|  1> ! xTB2 Opt NumFreq
|  2> 
|  3> *xyzfile 0 1 init.xyz
|  4> 
|  5> %cpcm
|  6>  smd true
|  7>  SMDsolvent "METHANOL"
|  8> end
|  9> 
| 10> %pal
| 11>  nprocs 2
| 12> end
| 13> 
| 14>                          ****END OF INPUT****
================================================================================

                       *****************************
                       * Geometry Optimization Run *
                       *****************************

Geometry optimization settings:
Update method            Update   .... BFGS
Choice of coordinates    CoordSys .... Z-matrix Internals
Initial Hessian          InHess   .... Almoef's Model

Convergence Tolerances:
Energy Change            TolE     ....  5.0000e-06 Eh
Max. Gradient            TolMAXG  ....  3.0000e-04 Eh/bohr
RMS Gradient             TolRMSG  ....  1.0000e-04 Eh/bohr
Max. Displacement        TolMAXD  ....  4.0000e-03 bohr
RMS Displacement         TolRMSD  ....  2.0000e-03 bohr
Strict Convergence                ....  False
------------------------------------------------------------------------------
                        ORCA OPTIMIZATION COORDINATE SETUP
------------------------------------------------------------------------------

The optimization will be done in new redundant internal coordinates
Making redundant internal coordinates   ...  (new redundants) done
Evaluating the initial hessian          ...  (Almloef) done
Evaluating the coordinates              ...  done
Calculating the B-matrix                .... done
Calculating the G-matrix                .... done
Diagonalizing the G-matrix              .... done
The first mode is                       ....   60
The number of degrees of freedom        ....   48

    -----------------------------------------------------------------
                    Redundant Internal Coordinates


    -----------------------------------------------------------------
         Definition                    Initial Value    Approx d2E/dq
    -----------------------------------------------------------------
      1. B(C   1,C   0)                  1.5262         0.378888   
      2. B(C   4,C   2)                  1.5293         0.374599   
      3. B(C   4,C   1)                  1.5262         0.378876   
      4. B(H   5,C   2)                  1.0921         0.357327   
      5. B(H   6,C   2)                  1.0928         0.356475   
      6. B(C   7,C   0)                  1.5293         0.374605   
      7. B(H   8,C   1)                  1.0922         0.357256   
      8. B(H   9,C   1)                  1.0912         0.358529   
      9. B(C  10,C   7)                  1.5172         0.391544   
     10. B(C  10,H   3)                  1.0921         0.357285   
     11. B(C  10,C   2)                  1.5172         0.391566   
     12. B(H  11,C   7)                  1.0927         0.356481   
     13. B(H  12,C   7)                  1.0921         0.357324   
     14. B(H  13,C   4)                  1.0924         0.356936   
     15. B(H  14,C   4)                  1.0909         0.358919   
     16. B(H  15,C   0)                  1.0924         0.356943   
     17. B(H  16,C   0)                  1.0909         0.358922   
     18. B(Br 17,C  10)                  1.9992         0.224056   
     19. A(H  15,C   0,H  16)          107.9306         0.290288   
     20. A(C   1,C   0,H  16)          110.2095         0.324897   
     21. A(C   1,C   0,C   7)          110.5783         0.364402   
     22. A(C   7,C   0,H  16)          109.1904         0.324291   
     23. A(C   7,C   0,H  15)          109.3565         0.323997   
     24. A(C   1,C   0,H  15)          109.5269         0.324602   
     25. A(C   0,C   1,H   8)          109.4319         0.324649   
     26. A(H   8,C   1,H   9)          107.9128         0.290278   
     27. A(C   4,C   1,H   9)          109.8227         0.324837   
     28. A(C   0,C   1,H   9)          109.8217         0.324839   
     29. A(C   4,C   1,H   8)          109.4324         0.324647   
     30. A(C   0,C   1,C   4)          110.3773         0.365109   
     31. A(C   4,C   2,H   5)          110.1760         0.324053   
     32. A(C   4,C   2,C  10)          109.1243         0.366460   
     33. A(H   6,C   2,C  10)          109.4725         0.326293   
     34. A(H   5,C   2,H   6)          108.0293         0.290026   
     35. A(C   4,C   2,H   6)          109.7124         0.323926   
     36. A(H   5,C   2,C  10)          110.3106         0.326422   
     37. A(H  13,C   4,H  14)          107.9327         0.290287   
     38. A(C   1,C   4,H  14)          110.2093         0.324895   
     39. A(C   2,C   4,H  13)          109.3568         0.323995   
     40. A(C   1,C   4,H  13)          109.5242         0.324599   
     41. A(C   2,C   4,H  14)          109.1893         0.324290   
     42. A(C   1,C   4,C   2)          110.5798         0.364398   
     43. A(H  11,C   7,H  12)          108.0291         0.290026   
     44. A(C  10,C   7,H  12)          110.3086         0.326418   
     45. A(C   0,C   7,H  12)          110.1755         0.324053   
     46. A(C  10,C   7,H  11)          109.4705         0.326291   
     47. A(C   0,C   7,H  11)          109.7119         0.323928   
     48. A(C   0,C   7,C  10)          109.1296         0.366457   
     49. A(C   2,C  10,H   3)          110.8751         0.326415   
     50. A(C   7,C  10,Br 17)          109.5875         0.356971   
     51. A(H   3,C  10,C   7)          110.8777         0.326412   
     52. A(H   3,C  10,Br 17)          103.9952         0.316012   
     53. A(C   2,C  10,Br 17)          109.5672         0.356975   
     54. A(C   2,C  10,C   7)          111.6575         0.369252   
     55. D(H   9,C   1,C   0,H  15)    -58.1445         0.011445   
     56. D(H   8,C   1,C   0,H  15)   -176.4287         0.011445   
     57. D(H   8,C   1,C   0,C   7)     62.9881         0.011445   
     58. D(C   4,C   1,C   0,H  16)   -178.3221         0.011445   
     59. D(H   9,C   1,C   0,H  16)     60.4517         0.011445   
     60. D(C   4,C   1,C   0,C   7)    -57.5014         0.011445   
     61. D(C   4,C   1,C   0,H  15)     63.0818         0.011445   
     62. D(H   9,C   1,C   0,C   7)   -178.7277         0.011445   
     63. D(H   8,C   1,C   0,H  16)    -57.8326         0.011445   
     64. D(H  13,C   4,C   1,H   8)    176.4349         0.011444   
     65. D(C   1,C   4,C   2,C  10)    -57.5974         0.011201   
     66. D(H  13,C   4,C   2,H   5)    -58.1679         0.011201   
     67. D(H  13,C   4,C   2,C  10)     63.0852         0.011201   
     68. D(H  13,C   4,C   1,H   9)     58.1497         0.011444   
     69. D(H  13,C   4,C   1,C   0)    -63.0759         0.011444   
     70. D(C   2,C   4,C   1,H   9)    178.7325         0.011444   
     71. D(C   2,C   4,C   1,C   0)     57.5069         0.011444   
     72. D(C   1,C   4,C   2,H   6)     62.3386         0.011201   
     73. D(C   1,C   4,C   2,H   5)   -178.8505         0.011201   
     74. D(H  14,C   4,C   2,H   6)    -59.0864         0.011201   
     75. D(H  14,C   4,C   2,H   5)     59.7244         0.011201   
     76. D(H  13,C   4,C   2,H   6)   -176.9788         0.011201   
     77. D(H  14,C   4,C   1,H   9)    -60.4473         0.011444   
     78. D(C   2,C   4,C   1,H   8)    -62.9823         0.011444   
     79. D(H  14,C   4,C   1,H   8)     57.8379         0.011444   
     80. D(H  14,C   4,C   1,C   0)    178.3271         0.011444   
     81. D(H  14,C   4,C   2,C  10)   -179.0224         0.011201   
     82. D(H  11,C   7,C   0,C   1)    -62.3462         0.011202   
     83. D(C  10,C   7,C   0,H  16)    179.0153         0.011202   
     84. D(C  10,C   7,C   0,H  15)    -63.0945         0.011202   
     85. D(C  10,C   7,C   0,C   1)     57.5903         0.011202   
     86. D(H  12,C   7,C   0,H  16)    -59.7311         0.011202   
     87. D(H  12,C   7,C   0,H  15)     58.1591         0.011202   
     88. D(H  12,C   7,C   0,C   1)    178.8439         0.011202   
     89. D(H  11,C   7,C   0,H  16)     59.0789         0.011202   
     90. D(H  11,C   7,C   0,H  15)    176.9690         0.011202   
     91. D(Br 17,C  10,C   7,H  12)     58.1476         0.012184   
     92. D(Br 17,C  10,C   7,H  11)    -60.5946         0.012184   
     93. D(Br 17,C  10,C   7,C   0)    179.3203         0.012184   
     94. D(H   3,C  10,C   7,H  12)    -56.0859         0.012184   
     95. D(H   3,C  10,C   7,H  11)   -174.8281         0.012184   
     96. D(H   3,C  10,C   7,C   0)     65.0868         0.012184   
     97. D(C   2,C  10,C   7,H  12)    179.7341         0.012184   
     98. D(C   2,C  10,C   7,H  11)     60.9919         0.012184   
     99. D(C   2,C  10,C   7,C   0)    -59.0933         0.012184   
    100. D(Br 17,C  10,C   2,H   6)     60.6091         0.012185   
    101. D(Br 17,C  10,C   2,H   5)    -58.1359         0.012185   
    102. D(Br 17,C  10,C   2,C   4)   -179.3071         0.012185   
    103. D(C   7,C  10,C   2,H   6)    -60.9890         0.012185   
    104. D(C   7,C  10,C   2,H   5)   -179.7341         0.012185   
    105. D(C   7,C  10,C   2,C   4)     59.0947         0.012185   
    106. D(H   3,C  10,C   2,H   6)    174.8294         0.012185   
    107. D(H   3,C  10,C   2,H   5)     56.0844         0.012185   
    108. D(H   3,C  10,C   2,C   4)    -65.0868         0.012185   
    -----------------------------------------------------------------

Number of atoms                         .... 18
Number of degrees of freedom            .... 108

         *************************************************************
         *                GEOMETRY OPTIMIZATION CYCLE   1            *
         *************************************************************
      -----------------------------------------------------------      
     |                   =====================                   |     
     |                           x T B                           |     
     |                   =====================                   |     
     |                         S. Grimme                         |     
     |          Mulliken Center for Theoretical Chemistry        |     
     |                    University of Bonn                     |     
      -----------------------------------------------------------      

   * xtb version 6.4.0 (d4b70c2) compiled by 'ehlert@majestix' on 2021-02-01

   xtb is free software: you can redistribute it and/or modify it under
   the terms of the GNU Lesser General Public License as published by
   the Free Software Foundation, either version 3 of the License, or
   (at your option) any later version.
   
   xtb is distributed in the hope that it will be useful,
   but WITHOUT ANY WARRANTY; without even the implied warranty of
   MERCHANTABILITY or FITNESS FOR A PARTICULAR PURPOSE.  See the
   GNU Lesser General Public License for more details.
   
   Cite this work as:
   * C. Bannwarth, E. Caldeweyher, S. Ehlert, A. Hansen, P. Pracht,
     J. Seibert, S. Spicher, S. Grimme, WIREs Comput. Mol. Sci., 2020,
     e01493. DOI: 10.1002/wcms.1493
   
   for GFN2-xTB:
   * C. Bannwarth, S. Ehlert and S. Grimme., J. Chem. Theory Comput., 2019,
     15, 1652-1671. DOI: 10.1021/acs.jctc.8b01176
   for GFN1-xTB:
   * S. Grimme, C. Bannwarth, P. Shushkov, J. Chem. Theory Comput., 2017,
     13, 1989-2009. DOI: 10.1021/acs.jctc.7b00118
   for GFN0-xTB:
   * P. Pracht, E. Caldeweyher, S. Ehlert, S. Grimme, ChemRxiv, 2019, preprint.
     DOI: 10.26434/chemrxiv.8326202.v1
   for GFN-FF:
   * S. Spicher and S. Grimme, Angew. Chem. Int. Ed., 2020, 59, 15665-15673.
     DOI: 10.1002/anie.202004239
   
   for DFT-D4:
   * E. Caldeweyher, C. Bannwarth and S. Grimme, J. Chem. Phys., 2017,
     147, 034112. DOI: 10.1063/1.4993215
   * E. Caldeweyher, S. Ehlert, A. Hansen, H. Neugebauer, S. Spicher,
     C. Bannwarth and S. Grimme, J. Chem. Phys., 2019, 150, 154122.
     DOI: 10.1063/1.5090222
   * E. Caldeweyher, J.-M. Mewes, S. Ehlert and S. Grimme, Phys. Chem. Chem. Phys.
     2020, 22, 8499-8512. DOI: 10.1039/D0CP00502A
   
   for sTDA-xTB:
   * S. Grimme and C. Bannwarth, J. Chem. Phys., 2016, 145, 054103.
     DOI: 10.1063/1.4959605
   
   in the mass-spec context:
   * V. Asgeirsson, C. Bauer and S. Grimme, Chem. Sci., 2017, 8, 4879.
     DOI: 10.1039/c7sc00601b
   * J. Koopman and S. Grimme, ACS Omega 2019, 4, 12, 15120-15133.
     DOI: 10.1021/acsomega.9b02011
   
   for metadynamics refer to:
   * S. Grimme, J. Chem. Theory Comput., 2019, 155, 2847-2862
     DOI: 10.1021/acs.jctc.9b00143
   
   with help from (in alphabetical order)
   P. Atkinson, C. Bannwarth, F. Bohle, G. Brandenburg, E. Caldeweyher
   M. Checinski, S. Dohm, S. Ehlert, S. Ehrlich, I. Gerasimov, J. Koopman
   C. Lavinge, S. Lehtola, F. März, M. Müller, F. Musil, H. Neugebauer
   J. Pisarek, P. Pracht, J. Seibert, P. Shushkov, S. Spicher, M. Stahn
   T. Strunk, J. Stückrath, T. Rose, and J. Unsleber
   
 * started run on 2021/11/09 at 16:18:20.960     

           -------------------------------------------------
          |                Calculation Setup                |
           -------------------------------------------------

          program call               : /opt/orca/otool_xtb opt+numfreq_XTB.xyz --grad -c 0 -u 0 -P 2 --namespace opt+numfreq --gbsa methanol
          calculation namespace      : opt+numfreq
          coordinate file            : opt+numfreq_XTB.xyz
          omp threads                :                     2
          number of atoms            :                    18
          number of electrons        :                    42
          charge                     :                     0
          spin                       :                   0.0
          first test random number   :      0.12260187855976

   ID    Z sym.   atoms
    1    6 C      1-3, 5, 8, 11
    2    1 H      4, 6, 7, 9, 10, 12-17
    3   35 Br     18
########################################################################
[WARNING] Please study the warnings concerning your input carefully
-1- prog_main_parseArguments: Process number higher than OMP_NUM_THREADS, I hope you know what you are doing.
########################################################################

           -------------------------------------------------
          |                 G F N 2 - x T B                 |
           -------------------------------------------------

        Reference                      10.1021/acs.jctc.8b01176
      * Hamiltonian:
        H0-scaling (s, p, d)           1.850000    2.230000    2.230000
        zeta-weighting                 0.500000
      * Dispersion:
        s8                             2.700000
        a1                             0.520000
        a2                             5.000000
        s9                             5.000000
      * Repulsion:
        kExp                           1.500000    1.000000
        rExp                           1.000000
      * Coulomb:
        alpha                          2.000000
        third order                    shell-resolved
        anisotropic                    true
        a3                             3.000000
        a5                             4.000000
        cn-shift                       1.200000
        cn-exp                         4.000000
        max-rad                        5.000000

      * Solvation model:               GBSA
        Solvent                        methanol
        Parameter file                 internal GFN2-xTB/GBSA
        Dielectric constant                3.2700E+01
        Reference state                gsolv [1 M gas/solution]
        Free energy shift                  3.3569E-03 Eh       2.1065E+00 kcal/mol
        Temperature                        2.9815E+02 K
        Density                            7.9200E-01 kg/L
        Solvent mass                       3.2040E+01 g/mol
        Interaction kernel             Still
        Born radius scaling (c1)           1.6087E+00
        Born radii integrator          GBOBC
        Born offset                        5.6550E-04 a0       1.0686E-03 AA
        H-bond correction              true
        Ion screening                  false
        Surface tension                    1.0000E-05 Eh       1.5569E+01 dyn/cm
        Grid points                               230 per atom

          ...................................................
          :                      SETUP                      :
          :.................................................:
          :  # basis functions                  45          :
          :  # atomic orbitals                  44          :
          :  # shells                           26          :
          :  # electrons                        42          :
          :  max. iterations                   250          :
          :  Hamiltonian                  GFN2-xTB          :
          :  restarted?                      false          :
          :  GBSA solvation                   true          :
          :  PC potential                    false          :
          :  electronic temp.          300.0000000     K    :
          :  accuracy                    1.0000000          :
          :  -> integral cutoff          0.2500000E+02      :
          :  -> integral neglect         0.1000000E-07      :
          :  -> SCF convergence          0.1000000E-05 Eh   :
          :  -> wf. convergence          0.1000000E-03 e    :
          :  Broyden damping             0.4000000          :
          ...................................................

 iter      E             dE          RMSdq      gap      omega  full diag
   1    -22.7916655 -0.227917E+02  0.381E+00    5.67       0.0  T
   2    -22.8400890 -0.484235E-01  0.279E+00    5.05       1.0  T
   3    -22.8431490 -0.306006E-02  0.103E+00    5.22       1.0  T
   4    -22.8450483 -0.189928E-02  0.439E-01    5.03       1.0  T
   5    -22.8452810 -0.232646E-03  0.297E-01    5.06       1.0  T
   6    -22.8454783 -0.197375E-03  0.178E-01    5.01       1.0  T
   7    -22.8455778 -0.995093E-04  0.651E-02    5.00       1.0  T
   8    -22.8455897 -0.118604E-04  0.180E-02    4.99       1.3  T
   9    -22.8455899 -0.231710E-06  0.246E-03    4.99       9.6  T
  10    -22.8455899 -0.944202E-08  0.111E-03    4.99      21.1  T
  11    -22.8455899 -0.152484E-08  0.619E-04    4.99      38.1  T
  12    -22.8455899 -0.605404E-09  0.310E-04    4.99      76.1  T

   *** convergence criteria satisfied after 12 iterations ***

         #    Occupation            Energy/Eh            Energy/eV
      -------------------------------------------------------------
         1        2.0000           -0.8329707             -22.6663
       ...           ...                  ...                  ...
        15        2.0000           -0.4574224             -12.4471
        16        2.0000           -0.4499273             -12.2431
        17        2.0000           -0.4319378             -11.7536
        18        2.0000           -0.4288352             -11.6692
        19        2.0000           -0.4286396             -11.6639
        20        2.0000           -0.4027601             -10.9597
        21        2.0000           -0.4023639             -10.9489 (HOMO)
        22                         -0.2190933              -5.9618 (LUMO)
        23                          0.0282783               0.7695
        24                          0.0406278               1.1055
        25                          0.0488343               1.3288
        26                          0.0515585               1.4030
       ...                                ...                  ...
        44                          0.3486633               9.4876
      -------------------------------------------------------------
                  HL-Gap            0.1832706 Eh            4.9870 eV
             Fermi-level           -0.3107286 Eh           -8.4554 eV

 SCC (total)                   0 d,  0 h,  0 min,  0.023 sec
 SCC setup                      ...        0 min,  0.001 sec (  4.306%)
 Dispersion                     ...        0 min,  0.000 sec (  0.612%)
 classical contributions        ...        0 min,  0.000 sec (  0.138%)
 integral evaluation            ...        0 min,  0.004 sec ( 16.082%)
 iterations                     ...        0 min,  0.011 sec ( 47.786%)
 molecular gradient             ...        0 min,  0.007 sec ( 28.565%)
 printout                       ...        0 min,  0.001 sec (  2.256%)

         :::::::::::::::::::::::::::::::::::::::::::::::::::::
         ::                     SUMMARY                     ::
         :::::::::::::::::::::::::::::::::::::::::::::::::::::
         :: total energy             -22.576339787137 Eh    ::
         :: total w/o Gsasa/hb       -22.568725474914 Eh    ::
         :: gradient norm              0.000631667582 Eh/a0 ::
         :: HOMO-LUMO gap              4.987047213645 eV    ::
         ::.................................................::
         :: SCC energy               -22.845589946185 Eh    ::
         :: -> isotropic ES            0.011125532121 Eh    ::
         :: -> anisotropic ES          0.002352551325 Eh    ::
         :: -> anisotropic XC          0.009225240381 Eh    ::
         :: -> dispersion             -0.013407379231 Eh    ::
         :: -> Gsolv                  -0.009858364008 Eh    ::
         ::    -> Gborn               -0.002244051784 Eh    ::
         ::    -> Gsasa               -0.010220341377 Eh    ::
         ::    -> Ghb                 -0.000750900369 Eh    ::
         ::    -> Gshift               0.003356929523 Eh    ::
         :: repulsion energy           0.269207088998 Eh    ::
         :: add. restraining           0.000000000000 Eh    ::
         :: total charge              -0.000000000000 e     ::
         :::::::::::::::::::::::::::::::::::::::::::::::::::::

           -------------------------------------------------
          |                Property Printout                |
           -------------------------------------------------

    * Orbital Energies and Occupations

         #    Occupation            Energy/Eh            Energy/eV
      -------------------------------------------------------------
         1        2.0000           -0.8329707             -22.6663
       ...           ...                  ...                  ...
         9        2.0000           -0.5158783             -14.0378
        10        2.0000           -0.5131330             -13.9631
        11        2.0000           -0.5026659             -13.6782
        12        2.0000           -0.4887867             -13.3006
        13        2.0000           -0.4785648             -13.0224
        14        2.0000           -0.4778110             -13.0019
        15        2.0000           -0.4574224             -12.4471
        16        2.0000           -0.4499273             -12.2431
        17        2.0000           -0.4319378             -11.7536
        18        2.0000           -0.4288352             -11.6692
        19        2.0000           -0.4286396             -11.6639
        20        2.0000           -0.4027601             -10.9597
        21        2.0000           -0.4023639             -10.9489 (HOMO)
        22                         -0.2190933              -5.9618 (LUMO)
        23                          0.0282783               0.7695
        24                          0.0406278               1.1055
        25                          0.0488343               1.3288
        26                          0.0515585               1.4030
        27                          0.0762915               2.0760
        28                          0.0816413               2.2216
        29                          0.0892046               2.4274
        30                          0.1065027               2.8981
        31                          0.1236423               3.3645
        32                          0.1344762               3.6593
       ...                                ...                  ...
        44                          0.3486633               9.4876
      -------------------------------------------------------------
                  HL-Gap            0.1832706 Eh            4.9870 eV
             Fermi-level           -0.3107286 Eh           -8.4554 eV

     #   Z          covCN         q      C6AA      α(0)
     1   6 C        3.807    -0.061    21.663     6.626
     2   6 C        3.805    -0.063    21.704     6.632
     3   6 C        3.862    -0.056    21.531     6.599
     4   1 H        0.925     0.055     2.261     2.352
     5   6 C        3.807    -0.061    21.664     6.626
     6   1 H        0.924     0.043     2.413     2.429
     7   1 H        0.924     0.049     2.337     2.391
     8   6 C        3.862    -0.056    21.531     6.599
     9   1 H        0.924     0.041     2.432     2.439
    10   1 H        0.924     0.041     2.439     2.442
    11   6 C        3.795     0.070    19.414     6.274
    12   1 H        0.924     0.049     2.337     2.391
    13   1 H        0.924     0.043     2.413     2.429
    14   1 H        0.924     0.039     2.464     2.455
    15   1 H        0.924     0.045     2.388     2.417
    16   1 H        0.924     0.039     2.464     2.455
    17   1 H        0.924     0.045     2.388     2.417
    18  35 Br       1.023    -0.261   192.338    22.361

 Mol. C6AA /au·bohr⁶  :       3415.284862
 Mol. C8AA /au·bohr⁸  :     100872.106826
 Mol. α(0) /au        :         88.332497


Wiberg/Mayer (AO) data.
largest (>0.10) Wiberg bond orders for each atom

 ---------------------------------------------------------------------------
     #   Z sym  total        # sym  WBO       # sym  WBO       # sym  WBO
 ---------------------------------------------------------------------------
     1   6 C    3.996 --     2 C    1.010     8 C    0.996    16 H    0.977
                            17 H    0.975
     2   6 C    3.997 --     1 C    1.010     5 C    1.010     9 H    0.977
                            10 H    0.976
     3   6 C    3.994 --    11 C    1.010     5 C    0.996     6 H    0.976
                             7 H    0.975
     4   1 H    0.997 --    11 C    0.968
     5   6 C    3.996 --     2 C    1.010     3 C    0.996    14 H    0.977
                            15 H    0.975
     6   1 H    0.998 --     3 C    0.976
     7   1 H    0.998 --     3 C    0.975
     8   6 C    3.994 --    11 C    1.010     1 C    0.996    13 H    0.976
                            12 H    0.975
     9   1 H    0.998 --     2 C    0.977
    10   1 H    0.997 --     2 C    0.976
    11   6 C    3.931 --     3 C    1.010     8 C    1.010     4 H    0.968
                            18 Br   0.908
    12   1 H    0.998 --     8 C    0.975
    13   1 H    0.998 --     8 C    0.976
    14   1 H    0.998 --     5 C    0.977
    15   1 H    0.998 --     5 C    0.975
    16   1 H    0.998 --     1 C    0.977
    17   1 H    0.998 --     1 C    0.975
    18  35 Br   0.984 --    11 C    0.908
 ---------------------------------------------------------------------------

Topologies differ in total number of bonds
Writing topology from bond orders to xtbtopo.mol

molecular dipole:
                 x           y           z       tot (Debye)
 q only:        1.408      -0.000      -0.098
   full:        1.834      -0.000      -0.248       4.703
molecular quadrupole (traceless):
                xx          xy          yy          xz          yz          zz
 q only:       -1.471      -0.000       1.359       0.192       0.000       0.113
  q+dip:       -7.200      -0.001       2.901       0.862       0.000       4.299
   full:       -5.508      -0.000       2.608       0.518       0.000       2.900


           -------------------------------------------------
          | TOTAL ENERGY              -22.576339787137 Eh   |
          | GRADIENT NORM               0.000631667582 Eh/α |
          | HOMO-LUMO GAP               4.987047213645 eV   |
           -------------------------------------------------

------------------------------------------------------------------------
 * finished run on 2021/11/09 at 16:18:21.021     
------------------------------------------------------------------------
 total:
 * wall-time:     0 d,  0 h,  0 min,  0.061 sec
 *  cpu-time:     0 d,  0 h,  0 min,  0.090 sec
 * ratio c/w:     1.481 speedup
 SCF:
 * wall-time:     0 d,  0 h,  0 min,  0.024 sec
 *  cpu-time:     0 d,  0 h,  0 min,  0.041 sec
 * ratio c/w:     1.729 speedup


-------------------------   --------------------
FINAL SINGLE POINT ENERGY       -22.576339787140
-------------------------   --------------------

------------------------------------------------------------------------------
                         ORCA GEOMETRY RELAXATION STEP
------------------------------------------------------------------------------

Reading the OPT-File                    .... done
Getting information on internals        .... done
Copying old internal coords+grads       .... done
Making the new internal coordinates     .... (new redundants).... done
Validating the new internal coordinates .... (new redundants).... done
Calculating the B-matrix                .... done
Calculating the G,G- and P matrices     .... done
Transforming gradient to internals      .... done
Projecting the internal gradient        .... done
Number of atoms                         ....  18
Number of internal coordinates          .... 108
Current Energy                          ....   -22.576339787 Eh
Current gradient norm                   ....     0.000631668 Eh/bohr
Maximum allowed component of the step   ....  0.300
Current trust radius                    ....  0.300
Evaluating the initial hessian          ....  (Almloef) done
Projecting the Hessian                  .... done
Forming the augmented Hessian           .... done
Diagonalizing the augmented Hessian     .... done
Last element of RFO vector              ....  0.999996085
Lowest eigenvalues of augmented Hessian:
 -0.000001112  0.014560568  0.014912751  0.016855115  0.041313824
Length of the computed step             ....  0.002798062
The final length of the internal step   ....  0.002798062
Converting the step to cartesian space:
 Initial RMS(Int)=    0.0002692436
Transforming coordinates:
 Iter   0:  RMS(Cart)=    0.0003991447 RMS(Int)=    0.0002692597
 Iter   1:  RMS(Cart)=    0.0000001412 RMS(Int)=    0.0000000757
 Iter   2:  RMS(Cart)=    0.0000000000 RMS(Int)=    0.0000000000
done
Storing new coordinates                 .... done

                                .--------------------.
          ----------------------|Geometry convergence|-------------------------
          Item                value                   Tolerance       Converged
          ---------------------------------------------------------------------
          RMS gradient        0.0000474060            0.0001000000      YES
          MAX gradient        0.0001419592            0.0003000000      YES
          RMS step            0.0002692436            0.0020000000      YES
          MAX step            0.0008304087            0.0040000000      YES
          ........................................................
          Max(Bonds)      0.0003      Max(Angles)    0.05
          Max(Dihed)        0.05      Max(Improp)    0.00
          ---------------------------------------------------------------------

                    ***********************HURRAY********************
                    ***        THE OPTIMIZATION HAS CONVERGED     ***
                    *************************************************


    ---------------------------------------------------------------------------
                         Redundant Internal Coordinates

                          --- Optimized Parameters ---  
                            (Angstroem and degrees)

        Definition                    OldVal   dE/dq     Step     FinalVal
    ----------------------------------------------------------------------------
     1. B(C   1,C   0)                1.5262 -0.000016  0.0000    1.5262   
     2. B(C   4,C   2)                1.5293 -0.000100  0.0001    1.5294   
     3. B(C   4,C   1)                1.5262 -0.000008  0.0000    1.5262   
     4. B(H   5,C   2)                1.0921 -0.000040  0.0001    1.0922   
     5. B(H   6,C   2)                1.0928  0.000010 -0.0000    1.0927   
     6. B(C   7,C   0)                1.5293 -0.000104  0.0001    1.5294   
     7. B(H   8,C   1)                1.0922 -0.000048  0.0001    1.0922   
     8. B(H   9,C   1)                1.0912 -0.000052  0.0001    1.0913   
     9. B(C  10,C   7)                1.5172  0.000095 -0.0001    1.5171   
    10. B(C  10,H   3)                1.0921  0.000058 -0.0001    1.0921   
    11. B(C  10,C   2)                1.5172  0.000072 -0.0001    1.5171   
    12. B(H  11,C   7)                1.0927  0.000006 -0.0000    1.0927   
    13. B(H  12,C   7)                1.0921 -0.000040  0.0001    1.0922   
    14. B(H  13,C   4)                1.0924 -0.000046  0.0001    1.0925   
    15. B(H  14,C   4)                1.0909 -0.000090  0.0001    1.0910   
    16. B(H  15,C   0)                1.0924 -0.000050  0.0001    1.0925   
    17. B(H  16,C   0)                1.0909 -0.000091  0.0001    1.0910   
    18. B(Br 17,C  10)                1.9992  0.000123 -0.0003    1.9989   
    19. A(H  15,C   0,H  16)          107.93  0.000018   -0.00    107.93   
    20. A(C   1,C   0,H  16)          110.21  0.000019   -0.01    110.20   
    21. A(C   1,C   0,C   7)          110.58  0.000062   -0.01    110.57   
    22. A(C   7,C   0,H  16)          109.19 -0.000061    0.01    109.20   
    23. A(C   7,C   0,H  15)          109.36 -0.000009    0.00    109.36   
    24. A(C   1,C   0,H  15)          109.53 -0.000032    0.00    109.53   
    25. A(C   0,C   1,H   8)          109.43  0.000008    0.00    109.43   
    26. A(H   8,C   1,H   9)          107.91  0.000003   -0.00    107.91   
    27. A(C   4,C   1,H   9)          109.82  0.000005   -0.00    109.82   
    28. A(C   0,C   1,H   9)          109.82  0.000001   -0.00    109.82   
    29. A(C   4,C   1,H   8)          109.43  0.000006    0.00    109.43   
    30. A(C   0,C   1,C   4)          110.38 -0.000022    0.00    110.38   
    31. A(C   4,C   2,H   5)          110.18  0.000029   -0.00    110.18   
    32. A(C   4,C   2,C  10)          109.12 -0.000142    0.03    109.15   
    33. A(H   6,C   2,C  10)          109.47  0.000051   -0.02    109.46   
    34. A(H   5,C   2,H   6)          108.03 -0.000024   -0.01    108.02   
    35. A(C   4,C   2,H   6)          109.71  0.000046   -0.01    109.70   
    36. A(H   5,C   2,C  10)          110.31  0.000044   -0.00    110.31   
    37. A(H  13,C   4,H  14)          107.93  0.000023   -0.00    107.93   
    38. A(C   1,C   4,H  14)          110.21  0.000018   -0.01    110.20   
    39. A(C   2,C   4,H  13)          109.36 -0.000008    0.00    109.36   
    40. A(C   1,C   4,H  13)          109.52 -0.000039    0.00    109.53   
    41. A(C   2,C   4,H  14)          109.19 -0.000070    0.01    109.20   
    42. A(C   1,C   4,C   2)          110.58  0.000076   -0.01    110.57   
    43. A(H  11,C   7,H  12)          108.03 -0.000021   -0.00    108.02   
    44. A(C  10,C   7,H  12)          110.31  0.000040   -0.00    110.31   
    45. A(C   0,C   7,H  12)          110.18  0.000025    0.00    110.18   
    46. A(C  10,C   7,H  11)          109.47  0.000047   -0.01    109.46   
    47. A(C   0,C   7,H  11)          109.71  0.000042   -0.01    109.70   
    48. A(C   0,C   7,C  10)          109.13 -0.000130    0.03    109.16   
    49. A(C   2,C  10,H   3)          110.88 -0.000022   -0.01    110.87   
    50. A(C   7,C  10,Br 17)          109.59 -0.000065    0.03    109.62   
    51. A(H   3,C  10,C   7)          110.88 -0.000025   -0.01    110.87   
    52. A(H   3,C  10,Br 17)          104.00  0.000113   -0.05    103.95   
    53. A(C   2,C  10,Br 17)          109.57 -0.000111    0.04    109.61   
    54. A(C   2,C  10,C   7)          111.66  0.000105   -0.01    111.65   
    55. D(H   9,C   1,C   0,H  15)    -58.14 -0.000002    0.01    -58.14   
    56. D(H   8,C   1,C   0,H  15)   -176.43 -0.000010    0.01   -176.42   
    57. D(H   8,C   1,C   0,C   7)     62.99 -0.000019    0.01     63.00   
    58. D(C   4,C   1,C   0,H  16)   -178.32  0.000006   -0.00   -178.33   
    59. D(H   9,C   1,C   0,H  16)     60.45  0.000013   -0.00     60.45   
    60. D(C   4,C   1,C   0,C   7)    -57.50 -0.000017    0.01    -57.50   
    61. D(C   4,C   1,C   0,H  15)     63.08 -0.000009    0.00     63.09   
    62. D(H   9,C   1,C   0,C   7)   -178.73 -0.000010    0.01   -178.72   
    63. D(H   8,C   1,C   0,H  16)    -57.83  0.000004    0.00    -57.83   
    64. D(H  13,C   4,C   1,H   8)    176.43  0.000011   -0.01    176.42   
    65. D(C   1,C   4,C   2,C  10)    -57.60  0.000008    0.01    -57.58   
    66. D(H  13,C   4,C   2,H   5)    -58.17  0.000021   -0.01    -58.17   
    67. D(H  13,C   4,C   2,C  10)     63.09  0.000002    0.01     63.10   
    68. D(H  13,C   4,C   1,H   9)     58.15  0.000001   -0.01     58.14   
    69. D(H  13,C   4,C   1,C   0)    -63.08  0.000010   -0.01    -63.08   
    70. D(C   2,C   4,C   1,H   9)    178.73  0.000013   -0.01    178.72   
    71. D(C   2,C   4,C   1,C   0)     57.51  0.000023   -0.01     57.50   
    72. D(C   1,C   4,C   2,H   6)     62.34  0.000011    0.01     62.35   
    73. D(C   1,C   4,C   2,H   5)   -178.85  0.000027   -0.00   -178.85   
    74. D(H  14,C   4,C   2,H   6)    -59.09 -0.000014    0.01    -59.08   
    75. D(H  14,C   4,C   2,H   5)     59.72  0.000003   -0.00     59.72   
    76. D(H  13,C   4,C   2,H   6)   -176.98  0.000005    0.01   -176.97   
    77. D(H  14,C   4,C   1,H   9)    -60.45 -0.000014   -0.00    -60.45   
    78. D(C   2,C   4,C   1,H   8)    -62.98  0.000023   -0.02    -63.00   
    79. D(H  14,C   4,C   1,H   8)     57.84 -0.000004   -0.01     57.83   
    80. D(H  14,C   4,C   1,C   0)    178.33 -0.000004    0.00    178.33   
    81. D(H  14,C   4,C   2,C  10)   -179.02 -0.000016    0.02   -179.01   
    82. D(H  11,C   7,C   0,C   1)    -62.35 -0.000011   -0.00    -62.35   
    83. D(C  10,C   7,C   0,H  16)    179.02  0.000016   -0.01    179.00   
    84. D(C  10,C   7,C   0,H  15)    -63.09 -0.000003   -0.01    -63.10   
    85. D(C  10,C   7,C   0,C   1)     57.59 -0.000008   -0.01     57.58   
    86. D(H  12,C   7,C   0,H  16)    -59.73 -0.000003    0.00    -59.73   
    87. D(H  12,C   7,C   0,H  15)     58.16 -0.000021    0.01     58.17   
    88. D(H  12,C   7,C   0,C   1)    178.84 -0.000027    0.01    178.85   
    89. D(H  11,C   7,C   0,H  16)     59.08  0.000013   -0.01     59.07   
    90. D(H  11,C   7,C   0,H  15)    176.97 -0.000005   -0.00    176.97   
    91. D(Br 17,C  10,C   7,H  12)     58.15  0.000081   -0.05     58.10   
    92. D(Br 17,C  10,C   7,H  11)    -60.59  0.000054   -0.03    -60.63   
    93. D(Br 17,C  10,C   7,C   0)    179.32  0.000054   -0.03    179.29   
    94. D(H   3,C  10,C   7,H  12)    -56.09 -0.000004   -0.00    -56.09   
    95. D(H   3,C  10,C   7,H  11)   -174.83 -0.000030    0.01   -174.82   
    96. D(H   3,C  10,C   7,C   0)     65.09 -0.000031    0.02     65.10   
    97. D(C   2,C  10,C   7,H  12)    179.73 -0.000034    0.02    179.75   
    98. D(C   2,C  10,C   7,H  11)     60.99 -0.000061    0.03     61.02   
    99. D(C   2,C  10,C   7,C   0)    -59.09 -0.000061    0.03    -59.06   
   100. D(Br 17,C  10,C   2,H   6)     60.61 -0.000036    0.03     60.63   
   101. D(Br 17,C  10,C   2,H   5)    -58.14 -0.000065    0.04    -58.09   
   102. D(Br 17,C  10,C   2,C   4)   -179.31 -0.000036    0.02   -179.28   
   103. D(C   7,C  10,C   2,H   6)    -60.99  0.000052   -0.03    -61.02   
   104. D(C   7,C  10,C   2,H   5)   -179.73  0.000024   -0.02   -179.75   
   105. D(C   7,C  10,C   2,C   4)     59.09  0.000052   -0.03     59.06   
   106. D(H   3,C  10,C   2,H   6)    174.83  0.000024   -0.01    174.82   
   107. D(H   3,C  10,C   2,H   5)     56.08 -0.000004    0.00     56.09   
   108. D(H   3,C  10,C   2,C   4)    -65.09  0.000024   -0.01    -65.10   
    ----------------------------------------------------------------------------
                 *******************************************************
                 *** FINAL ENERGY EVALUATION AT THE STATIONARY POINT ***
                 ***               (AFTER    1 CYCLES)               ***
                 *******************************************************
      -----------------------------------------------------------      
     |                   =====================                   |     
     |                           x T B                           |     
     |                   =====================                   |     
     |                         S. Grimme                         |     
     |          Mulliken Center for Theoretical Chemistry        |     
     |                    University of Bonn                     |     
      -----------------------------------------------------------      

   * xtb version 6.4.0 (d4b70c2) compiled by 'ehlert@majestix' on 2021-02-01

   xtb is free software: you can redistribute it and/or modify it under
   the terms of the GNU Lesser General Public License as published by
   the Free Software Foundation, either version 3 of the License, or
   (at your option) any later version.
   
   xtb is distributed in the hope that it will be useful,
   but WITHOUT ANY WARRANTY; without even the implied warranty of
   MERCHANTABILITY or FITNESS FOR A PARTICULAR PURPOSE.  See the
   GNU Lesser General Public License for more details.
   
   Cite this work as:
   * C. Bannwarth, E. Caldeweyher, S. Ehlert, A. Hansen, P. Pracht,
     J. Seibert, S. Spicher, S. Grimme, WIREs Comput. Mol. Sci., 2020,
     e01493. DOI: 10.1002/wcms.1493
   
   for GFN2-xTB:
   * C. Bannwarth, S. Ehlert and S. Grimme., J. Chem. Theory Comput., 2019,
     15, 1652-1671. DOI: 10.1021/acs.jctc.8b01176
   for GFN1-xTB:
   * S. Grimme, C. Bannwarth, P. Shushkov, J. Chem. Theory Comput., 2017,
     13, 1989-2009. DOI: 10.1021/acs.jctc.7b00118
   for GFN0-xTB:
   * P. Pracht, E. Caldeweyher, S. Ehlert, S. Grimme, ChemRxiv, 2019, preprint.
     DOI: 10.26434/chemrxiv.8326202.v1
   for GFN-FF:
   * S. Spicher and S. Grimme, Angew. Chem. Int. Ed., 2020, 59, 15665-15673.
     DOI: 10.1002/anie.202004239
   
   for DFT-D4:
   * E. Caldeweyher, C. Bannwarth and S. Grimme, J. Chem. Phys., 2017,
     147, 034112. DOI: 10.1063/1.4993215
   * E. Caldeweyher, S. Ehlert, A. Hansen, H. Neugebauer, S. Spicher,
     C. Bannwarth and S. Grimme, J. Chem. Phys., 2019, 150, 154122.
     DOI: 10.1063/1.5090222
   * E. Caldeweyher, J.-M. Mewes, S. Ehlert and S. Grimme, Phys. Chem. Chem. Phys.
     2020, 22, 8499-8512. DOI: 10.1039/D0CP00502A
   
   for sTDA-xTB:
   * S. Grimme and C. Bannwarth, J. Chem. Phys., 2016, 145, 054103.
     DOI: 10.1063/1.4959605
   
   in the mass-spec context:
   * V. Asgeirsson, C. Bauer and S. Grimme, Chem. Sci., 2017, 8, 4879.
     DOI: 10.1039/c7sc00601b
   * J. Koopman and S. Grimme, ACS Omega 2019, 4, 12, 15120-15133.
     DOI: 10.1021/acsomega.9b02011
   
   for metadynamics refer to:
   * S. Grimme, J. Chem. Theory Comput., 2019, 155, 2847-2862
     DOI: 10.1021/acs.jctc.9b00143
   
   with help from (in alphabetical order)
   P. Atkinson, C. Bannwarth, F. Bohle, G. Brandenburg, E. Caldeweyher
   M. Checinski, S. Dohm, S. Ehlert, S. Ehrlich, I. Gerasimov, J. Koopman
   C. Lavinge, S. Lehtola, F. März, M. Müller, F. Musil, H. Neugebauer
   J. Pisarek, P. Pracht, J. Seibert, P. Shushkov, S. Spicher, M. Stahn
   T. Strunk, J. Stückrath, T. Rose, and J. Unsleber
   
 * started run on 2021/11/09 at 16:18:21.223     

           -------------------------------------------------
          |                Calculation Setup                |
           -------------------------------------------------

          program call               : /opt/orca/otool_xtb opt+numfreq_XTB.xyz --grad -c 0 -u 0 -P 2 --namespace opt+numfreq --gbsa methanol
          calculation namespace      : opt+numfreq
          coordinate file            : opt+numfreq_XTB.xyz
          omp threads                :                     2
          number of atoms            :                    18
          number of electrons        :                    42
          charge                     :                     0
          spin                       :                   0.0
          first test random number   :      0.56486271741489

   ID    Z sym.   atoms
    1    6 C      1-3, 5, 8, 11
    2    1 H      4, 6, 7, 9, 10, 12-17
    3   35 Br     18
########################################################################
[WARNING] Please study the warnings concerning your input carefully
-1- prog_main_parseArguments: Process number higher than OMP_NUM_THREADS, I hope you know what you are doing.
########################################################################

           -------------------------------------------------
          |                 G F N 2 - x T B                 |
           -------------------------------------------------

        Reference                      10.1021/acs.jctc.8b01176
      * Hamiltonian:
        H0-scaling (s, p, d)           1.850000    2.230000    2.230000
        zeta-weighting                 0.500000
      * Dispersion:
        s8                             2.700000
        a1                             0.520000
        a2                             5.000000
        s9                             5.000000
      * Repulsion:
        kExp                           1.500000    1.000000
        rExp                           1.000000
      * Coulomb:
        alpha                          2.000000
        third order                    shell-resolved
        anisotropic                    true
        a3                             3.000000
        a5                             4.000000
        cn-shift                       1.200000
        cn-exp                         4.000000
        max-rad                        5.000000

      * Solvation model:               GBSA
        Solvent                        methanol
        Parameter file                 internal GFN2-xTB/GBSA
        Dielectric constant                3.2700E+01
        Reference state                gsolv [1 M gas/solution]
        Free energy shift                  3.3569E-03 Eh       2.1065E+00 kcal/mol
        Temperature                        2.9815E+02 K
        Density                            7.9200E-01 kg/L
        Solvent mass                       3.2040E+01 g/mol
        Interaction kernel             Still
        Born radius scaling (c1)           1.6087E+00
        Born radii integrator          GBOBC
        Born offset                        5.6550E-04 a0       1.0686E-03 AA
        H-bond correction              true
        Ion screening                  false
        Surface tension                    1.0000E-05 Eh       1.5569E+01 dyn/cm
        Grid points                               230 per atom

          ...................................................
          :                      SETUP                      :
          :.................................................:
          :  # basis functions                  45          :
          :  # atomic orbitals                  44          :
          :  # shells                           26          :
          :  # electrons                        42          :
          :  max. iterations                   250          :
          :  Hamiltonian                  GFN2-xTB          :
          :  restarted?                      false          :
          :  GBSA solvation                   true          :
          :  PC potential                    false          :
          :  electronic temp.          300.0000000     K    :
          :  accuracy                    1.0000000          :
          :  -> integral cutoff          0.2500000E+02      :
          :  -> integral neglect         0.1000000E-07      :
          :  -> SCF convergence          0.1000000E-05 Eh   :
          :  -> wf. convergence          0.1000000E-03 e    :
          :  Broyden damping             0.4000000          :
          ...................................................

 iter      E             dE          RMSdq      gap      omega  full diag
   1    -22.7916119 -0.227916E+02  0.381E+00    5.67       0.0  T
   2    -22.8400247 -0.484128E-01  0.279E+00    5.05       1.0  T
   3    -22.8430789 -0.305415E-02  0.103E+00    5.22       1.0  T
   4    -22.8449767 -0.189785E-02  0.439E-01    5.03       1.0  T
   5    -22.8452095 -0.232761E-03  0.297E-01    5.06       1.0  T
   6    -22.8454069 -0.197451E-03  0.178E-01    5.01       1.0  T
   7    -22.8455065 -0.995935E-04  0.650E-02    5.00       1.0  T
   8    -22.8455183 -0.118144E-04  0.180E-02    4.99       1.3  T
   9    -22.8455186 -0.231638E-06  0.246E-03    4.99       9.6  T
  10    -22.8455186 -0.946778E-08  0.111E-03    4.99      21.2  T
  11    -22.8455186 -0.152061E-08  0.618E-04    4.99      38.1  T
  12    -22.8455186 -0.602199E-09  0.309E-04    4.99      76.4  T

   *** convergence criteria satisfied after 12 iterations ***

         #    Occupation            Energy/Eh            Energy/eV
      -------------------------------------------------------------
         1        2.0000           -0.8329928             -22.6669
       ...           ...                  ...                  ...
        15        2.0000           -0.4574042             -12.4466
        16        2.0000           -0.4499209             -12.2430
        17        2.0000           -0.4319278             -11.7534
        18        2.0000           -0.4288436             -11.6694
        19        2.0000           -0.4286614             -11.6645
        20        2.0000           -0.4027827             -10.9603
        21        2.0000           -0.4023731             -10.9491 (HOMO)
        22                         -0.2190537              -5.9608 (LUMO)
        23                          0.0281967               0.7673
        24                          0.0406298               1.1056
        25                          0.0488074               1.3281
        26                          0.0515456               1.4026
       ...                                ...                  ...
        44                          0.3489196               9.4946
      -------------------------------------------------------------
                  HL-Gap            0.1833195 Eh            4.9884 eV
             Fermi-level           -0.3107134 Eh           -8.4549 eV

 SCC (total)                   0 d,  0 h,  0 min,  0.022 sec
 SCC setup                      ...        0 min,  0.001 sec (  3.100%)
 Dispersion                     ...        0 min,  0.000 sec (  0.698%)
 classical contributions        ...        0 min,  0.000 sec (  0.154%)
 integral evaluation            ...        0 min,  0.003 sec ( 14.128%)
 iterations                     ...        0 min,  0.011 sec ( 51.190%)
 molecular gradient             ...        0 min,  0.006 sec ( 29.851%)
 printout                       ...        0 min,  0.000 sec (  0.674%)

         :::::::::::::::::::::::::::::::::::::::::::::::::::::
         ::                     SUMMARY                     ::
         :::::::::::::::::::::::::::::::::::::::::::::::::::::
         :: total energy             -22.576340550904 Eh    ::
         :: total w/o Gsasa/hb       -22.568726145837 Eh    ::
         :: gradient norm              0.000322615404 Eh/a0 ::
         :: HOMO-LUMO gap              4.988376376841 eV    ::
         ::.................................................::
         :: SCC energy               -22.845518576549 Eh    ::
         :: -> isotropic ES            0.011117830926 Eh    ::
         :: -> anisotropic ES          0.002356949562 Eh    ::
         :: -> anisotropic XC          0.009218927724 Eh    ::
         :: -> dispersion             -0.013406926223 Eh    ::
         :: -> Gsolv                  -0.009856498675 Eh    ::
         ::    -> Gborn               -0.002242093608 Eh    ::
         ::    -> Gsasa               -0.010220937646 Eh    ::
         ::    -> Ghb                 -0.000750396943 Eh    ::
         ::    -> Gshift               0.003356929523 Eh    ::
         :: repulsion energy           0.269134951741 Eh    ::
         :: add. restraining           0.000000000000 Eh    ::
         :: total charge               0.000000000000 e     ::
         :::::::::::::::::::::::::::::::::::::::::::::::::::::

           -------------------------------------------------
          |                Property Printout                |
           -------------------------------------------------

    * Orbital Energies and Occupations

         #    Occupation            Energy/Eh            Energy/eV
      -------------------------------------------------------------
         1        2.0000           -0.8329928             -22.6669
       ...           ...                  ...                  ...
         9        2.0000           -0.5158845             -14.0379
        10        2.0000           -0.5131155             -13.9626
        11        2.0000           -0.5026706             -13.6784
        12        2.0000           -0.4887977             -13.3009
        13        2.0000           -0.4786024             -13.0234
        14        2.0000           -0.4777965             -13.0015
        15        2.0000           -0.4574042             -12.4466
        16        2.0000           -0.4499209             -12.2430
        17        2.0000           -0.4319278             -11.7534
        18        2.0000           -0.4288436             -11.6694
        19        2.0000           -0.4286614             -11.6645
        20        2.0000           -0.4027827             -10.9603
        21        2.0000           -0.4023731             -10.9491 (HOMO)
        22                         -0.2190537              -5.9608 (LUMO)
        23                          0.0281967               0.7673
        24                          0.0406298               1.1056
        25                          0.0488074               1.3281
        26                          0.0515456               1.4026
        27                          0.0763805               2.0784
        28                          0.0816054               2.2206
        29                          0.0892096               2.4275
        30                          0.1064808               2.8975
        31                          0.1236317               3.3642
        32                          0.1342740               3.6538
       ...                                ...                  ...
        44                          0.3489196               9.4946
      -------------------------------------------------------------
                  HL-Gap            0.1833195 Eh            4.9884 eV
             Fermi-level           -0.3107134 Eh           -8.4549 eV

     #   Z          covCN         q      C6AA      α(0)
     1   6 C        3.807    -0.061    21.663     6.626
     2   6 C        3.805    -0.063    21.704     6.632
     3   6 C        3.862    -0.056    21.531     6.599
     4   1 H        0.925     0.055     2.262     2.352
     5   6 C        3.807    -0.061    21.663     6.626
     6   1 H        0.924     0.043     2.413     2.429
     7   1 H        0.924     0.049     2.337     2.391
     8   6 C        3.862    -0.056    21.531     6.599
     9   1 H        0.924     0.041     2.432     2.439
    10   1 H        0.924     0.041     2.439     2.442
    11   6 C        3.795     0.070    19.414     6.274
    12   1 H        0.924     0.049     2.337     2.391
    13   1 H        0.924     0.043     2.413     2.429
    14   1 H        0.924     0.039     2.464     2.455
    15   1 H        0.924     0.045     2.389     2.417
    16   1 H        0.924     0.039     2.464     2.455
    17   1 H        0.924     0.045     2.389     2.417
    18  35 Br       1.023    -0.261   192.335    22.361

 Mol. C6AA /au·bohr⁶  :       3415.344225
 Mol. C8AA /au·bohr⁸  :     100872.796262
 Mol. α(0) /au        :         88.333355


Wiberg/Mayer (AO) data.
largest (>0.10) Wiberg bond orders for each atom

 ---------------------------------------------------------------------------
     #   Z sym  total        # sym  WBO       # sym  WBO       # sym  WBO
 ---------------------------------------------------------------------------
     1   6 C    3.996 --     2 C    1.010     8 C    0.996    16 H    0.977
                            17 H    0.975
     2   6 C    3.997 --     5 C    1.010     1 C    1.010     9 H    0.977
                            10 H    0.976
     3   6 C    3.994 --    11 C    1.010     5 C    0.996     6 H    0.976
                             7 H    0.975
     4   1 H    0.997 --    11 C    0.968
     5   6 C    3.996 --     2 C    1.010     3 C    0.996    14 H    0.977
                            15 H    0.975
     6   1 H    0.998 --     3 C    0.976
     7   1 H    0.998 --     3 C    0.975
     8   6 C    3.994 --    11 C    1.010     1 C    0.996    13 H    0.976
                            12 H    0.975
     9   1 H    0.998 --     2 C    0.977
    10   1 H    0.997 --     2 C    0.976
    11   6 C    3.931 --     8 C    1.010     3 C    1.010     4 H    0.968
                            18 Br   0.908
    12   1 H    0.998 --     8 C    0.975
    13   1 H    0.998 --     8 C    0.976
    14   1 H    0.998 --     5 C    0.977
    15   1 H    0.998 --     5 C    0.975
    16   1 H    0.998 --     1 C    0.977
    17   1 H    0.998 --     1 C    0.975
    18  35 Br   0.984 --    11 C    0.908
 ---------------------------------------------------------------------------

Topologies differ in total number of bonds
Writing topology from bond orders to xtbtopo.mol

molecular dipole:
                 x           y           z       tot (Debye)
 q only:        1.407      -0.000      -0.098
   full:        1.834      -0.000      -0.247       4.703
molecular quadrupole (traceless):
                xx          xy          yy          xz          yz          zz
 q only:       -1.471      -0.000       1.358       0.190       0.000       0.113
  q+dip:       -7.199      -0.001       2.900       0.861       0.000       4.299
   full:       -5.508      -0.001       2.608       0.517       0.000       2.900


           -------------------------------------------------
          | TOTAL ENERGY              -22.576340550904 Eh   |
          | GRADIENT NORM               0.000322615404 Eh/α |
          | HOMO-LUMO GAP               4.988376376841 eV   |
           -------------------------------------------------

------------------------------------------------------------------------
 * finished run on 2021/11/09 at 16:18:21.284     
------------------------------------------------------------------------
 total:
 * wall-time:     0 d,  0 h,  0 min,  0.061 sec
 *  cpu-time:     0 d,  0 h,  0 min,  0.094 sec
 * ratio c/w:     1.545 speedup
 SCF:
 * wall-time:     0 d,  0 h,  0 min,  0.022 sec
 *  cpu-time:     0 d,  0 h,  0 min,  0.040 sec
 * ratio c/w:     1.860 speedup


-------------------------   --------------------
FINAL SINGLE POINT ENERGY       -22.576340550900
-------------------------   --------------------

                                *** OPTIMIZATION RUN DONE ***

----------------------------------------------------------------------------
                           ORCA NUMERICAL FREQUENCIES
                              (2-process run)
----------------------------------------------------------------------------

Number of atoms                ... 18
Central differences            ... used
Number of displacements        ... 108
Numerical increment            ... 5.000e-03 bohr
IR-spectrum generation         ... on
Raman-spectrum generation      ... off
Surface Crossing Hessian       ... off
List of participating nodes    ...  opt+numfreq.hostnames

The output will be reduced. Please look at the following files:
SCF program output             ... >opt+numfreq.lastscf
Integral program output        ... >opt+numfreq.lastint
Gradient program output        ... >opt+numfreq.lastgrad
Dipole moment program output   ... >opt+numfreq.lastmom
AutoCI program output          ... >opt+numfreq.lastautoci


         <<< Energy and Gradient at the input geometry >>>

        <<< Energy and Gradient at displaced geometries >>>
             <<<Displacing   1/coordinate 2 (+)>>>
             <<<Displacing   1/coordinate 1 (+)>>>
             <<<Displacing   1/coordinate 1 (-)>>>
             <<<Displacing   1/coordinate 2 (-)>>>
             <<<Displacing   1/coordinate 3 (+)>>>
             <<<Displacing   1/coordinate 3 (-)>>>
             <<<Displacing   2/coordinate 1 (+)>>>
             <<<Displacing   2/coordinate 1 (-)>>>
             <<<Displacing   2/coordinate 3 (+)>>>
             <<<Displacing   2/coordinate 2 (+)>>>
             <<<Displacing   2/coordinate 3 (-)>>>
             <<<Displacing   2/coordinate 2 (-)>>>
             <<<Displacing   3/coordinate 2 (+)>>>
             <<<Displacing   3/coordinate 1 (+)>>>
             <<<Displacing   3/coordinate 2 (-)>>>
             <<<Displacing   3/coordinate 1 (-)>>>
             <<<Displacing   3/coordinate 3 (+)>>>
             <<<Displacing   4/coordinate 1 (+)>>>
             <<<Displacing   3/coordinate 3 (-)>>>
             <<<Displacing   4/coordinate 1 (-)>>>
             <<<Displacing   4/coordinate 2 (+)>>>
             <<<Displacing   4/coordinate 2 (-)>>>
             <<<Displacing   4/coordinate 3 (+)>>>
             <<<Displacing   4/coordinate 3 (-)>>>
             <<<Displacing   5/coordinate 2 (+)>>>
             <<<Displacing   5/coordinate 1 (+)>>>
             <<<Displacing   5/coordinate 2 (-)>>>
             <<<Displacing   5/coordinate 1 (-)>>>
             <<<Displacing   5/coordinate 3 (+)>>>
             <<<Displacing   5/coordinate 3 (-)>>>
             <<<Displacing   6/coordinate 1 (+)>>>
             <<<Displacing   6/coordinate 1 (-)>>>
             <<<Displacing   6/coordinate 2 (+)>>>
             <<<Displacing   6/coordinate 2 (-)>>>
             <<<Displacing   6/coordinate 3 (+)>>>
             <<<Displacing   6/coordinate 3 (-)>>>
             <<<Displacing   7/coordinate 1 (+)>>>
             <<<Displacing   7/coordinate 1 (-)>>>
             <<<Displacing   7/coordinate 2 (+)>>>
             <<<Displacing   7/coordinate 2 (-)>>>
             <<<Displacing   7/coordinate 3 (+)>>>
             <<<Displacing   7/coordinate 3 (-)>>>
             <<<Displacing   8/coordinate 1 (+)>>>
             <<<Displacing   8/coordinate 1 (-)>>>
             <<<Displacing   8/coordinate 2 (+)>>>
             <<<Displacing   8/coordinate 3 (+)>>>
             <<<Displacing   8/coordinate 2 (-)>>>
             <<<Displacing   8/coordinate 3 (-)>>>
             <<<Displacing   9/coordinate 1 (+)>>>
             <<<Displacing   9/coordinate 2 (+)>>>
             <<<Displacing   9/coordinate 1 (-)>>>
             <<<Displacing   9/coordinate 2 (-)>>>
             <<<Displacing   9/coordinate 3 (+)>>>
             <<<Displacing  10/coordinate 1 (+)>>>
             <<<Displacing   9/coordinate 3 (-)>>>
             <<<Displacing  10/coordinate 1 (-)>>>
             <<<Displacing  10/coordinate 2 (+)>>>
             <<<Displacing  10/coordinate 2 (-)>>>
             <<<Displacing  10/coordinate 3 (+)>>>
             <<<Displacing  10/coordinate 3 (-)>>>
             <<<Displacing  11/coordinate 1 (+)>>>
             <<<Displacing  11/coordinate 2 (+)>>>
             <<<Displacing  11/coordinate 1 (-)>>>
             <<<Displacing  11/coordinate 2 (-)>>>
             <<<Displacing  11/coordinate 3 (+)>>>
             <<<Displacing  12/coordinate 1 (+)>>>
             <<<Displacing  12/coordinate 1 (-)>>>
             <<<Displacing  11/coordinate 3 (-)>>>
             <<<Displacing  12/coordinate 2 (+)>>>
             <<<Displacing  12/coordinate 2 (-)>>>
             <<<Displacing  12/coordinate 3 (+)>>>
             <<<Displacing  12/coordinate 3 (-)>>>
             <<<Displacing  13/coordinate 2 (+)>>>
             <<<Displacing  13/coordinate 1 (+)>>>
             <<<Displacing  13/coordinate 2 (-)>>>
             <<<Displacing  13/coordinate 1 (-)>>>
             <<<Displacing  13/coordinate 3 (+)>>>
             <<<Displacing  14/coordinate 1 (+)>>>
             <<<Displacing  13/coordinate 3 (-)>>>
             <<<Displacing  14/coordinate 1 (-)>>>
             <<<Displacing  14/coordinate 2 (+)>>>
             <<<Displacing  14/coordinate 2 (-)>>>
             <<<Displacing  14/coordinate 3 (+)>>>
             <<<Displacing  14/coordinate 3 (-)>>>
             <<<Displacing  15/coordinate 1 (+)>>>
             <<<Displacing  15/coordinate 1 (-)>>>
             <<<Displacing  15/coordinate 2 (+)>>>
             <<<Displacing  15/coordinate 2 (-)>>>
             <<<Displacing  15/coordinate 3 (+)>>>
             <<<Displacing  16/coordinate 1 (+)>>>
             <<<Displacing  15/coordinate 3 (-)>>>
             <<<Displacing  16/coordinate 1 (-)>>>
             <<<Displacing  16/coordinate 3 (+)>>>
             <<<Displacing  16/coordinate 2 (+)>>>
             <<<Displacing  16/coordinate 2 (-)>>>
             <<<Displacing  16/coordinate 3 (-)>>>
             <<<Displacing  17/coordinate 1 (+)>>>
             <<<Displacing  17/coordinate 1 (-)>>>
             <<<Displacing  17/coordinate 2 (+)>>>
             <<<Displacing  17/coordinate 2 (-)>>>
             <<<Displacing  17/coordinate 3 (+)>>>
             <<<Displacing  17/coordinate 3 (-)>>>
             <<<Displacing  18/coordinate 1 (+)>>>
             <<<Displacing  18/coordinate 1 (-)>>>
             <<<Displacing  18/coordinate 2 (+)>>>
             <<<Displacing  18/coordinate 2 (-)>>>
             <<<Displacing  18/coordinate 3 (+)>>>
             <<<Displacing  18/coordinate 3 (-)>>>

-----------------------
VIBRATIONAL FREQUENCIES
-----------------------

Scaling factor for frequencies =  1.000000000 (already applied!)

   0:         0.00 cm**-1
   1:         0.00 cm**-1
   2:         0.00 cm**-1
   3:         0.00 cm**-1
   4:         0.00 cm**-1
   5:         0.00 cm**-1
   6:       121.49 cm**-1
   7:       207.04 cm**-1
   8:       228.31 cm**-1
   9:       238.90 cm**-1
  10:       315.80 cm**-1
  11:       419.69 cm**-1
  12:       428.43 cm**-1
  13:       499.06 cm**-1
  14:       670.27 cm**-1
  15:       821.95 cm**-1
  16:       854.73 cm**-1
  17:       894.18 cm**-1
  18:       930.10 cm**-1
  19:       930.26 cm**-1
  20:       966.59 cm**-1
  21:       987.98 cm**-1
  22:      1063.78 cm**-1
  23:      1084.46 cm**-1
  24:      1104.70 cm**-1
  25:      1133.87 cm**-1
  26:      1134.83 cm**-1
  27:      1196.91 cm**-1
  28:      1204.63 cm**-1
  29:      1239.25 cm**-1
  30:      1239.97 cm**-1
  31:      1252.63 cm**-1
  32:      1290.63 cm**-1
  33:      1331.20 cm**-1
  34:      1335.92 cm**-1
  35:      1337.67 cm**-1
  36:      1347.28 cm**-1
  37:      1352.27 cm**-1
  38:      1475.47 cm**-1
  39:      1480.69 cm**-1
  40:      1482.86 cm**-1
  41:      1485.79 cm**-1
  42:      1498.55 cm**-1
  43:      2949.96 cm**-1
  44:      2963.44 cm**-1
  45:      2963.76 cm**-1
  46:      2970.00 cm**-1
  47:      2971.60 cm**-1
  48:      2978.30 cm**-1
  49:      2980.62 cm**-1
  50:      2981.46 cm**-1
  51:      2983.65 cm**-1
  52:      2989.43 cm**-1
  53:      2993.94 cm**-1


------------
NORMAL MODES
------------

These modes are the cartesian displacements weighted by the diagonal matrix
M(i,i)=1/sqrt(m[i]) where m[i] is the mass of the displaced atom
Thus, these vectors are normalized but *not* orthogonal

                  0          1          2          3          4          5    
      0       0.000000   0.000000   0.000000   0.000000   0.000000   0.000000
      1       0.000000   0.000000   0.000000   0.000000   0.000000   0.000000
      2       0.000000   0.000000   0.000000   0.000000   0.000000   0.000000
      3       0.000000   0.000000   0.000000   0.000000   0.000000   0.000000
      4       0.000000   0.000000   0.000000   0.000000   0.000000   0.000000
      5       0.000000   0.000000   0.000000   0.000000   0.000000   0.000000
      6       0.000000   0.000000   0.000000   0.000000   0.000000   0.000000
      7       0.000000   0.000000   0.000000   0.000000   0.000000   0.000000
      8       0.000000   0.000000   0.000000   0.000000   0.000000   0.000000
      9       0.000000   0.000000   0.000000   0.000000   0.000000   0.000000
     10       0.000000   0.000000   0.000000   0.000000   0.000000   0.000000
     11       0.000000   0.000000   0.000000   0.000000   0.000000   0.000000
     12       0.000000   0.000000   0.000000   0.000000   0.000000   0.000000
     13       0.000000   0.000000   0.000000   0.000000   0.000000   0.000000
     14       0.000000   0.000000   0.000000   0.000000   0.000000   0.000000
     15       0.000000   0.000000   0.000000   0.000000   0.000000   0.000000
     16       0.000000   0.000000   0.000000   0.000000   0.000000   0.000000
     17       0.000000   0.000000   0.000000   0.000000   0.000000   0.000000
     18       0.000000   0.000000   0.000000   0.000000   0.000000   0.000000
     19       0.000000   0.000000   0.000000   0.000000   0.000000   0.000000
     20       0.000000   0.000000   0.000000   0.000000   0.000000   0.000000
     21       0.000000   0.000000   0.000000   0.000000   0.000000   0.000000
     22       0.000000   0.000000   0.000000   0.000000   0.000000   0.000000
     23       0.000000   0.000000   0.000000   0.000000   0.000000   0.000000
     24       0.000000   0.000000   0.000000   0.000000   0.000000   0.000000
     25       0.000000   0.000000   0.000000   0.000000   0.000000   0.000000
     26       0.000000   0.000000   0.000000   0.000000   0.000000   0.000000
     27       0.000000   0.000000   0.000000   0.000000   0.000000   0.000000
     28       0.000000   0.000000   0.000000   0.000000   0.000000   0.000000
     29       0.000000   0.000000   0.000000   0.000000   0.000000   0.000000
     30       0.000000   0.000000   0.000000   0.000000   0.000000   0.000000
     31       0.000000   0.000000   0.000000   0.000000   0.000000   0.000000
     32       0.000000   0.000000   0.000000   0.000000   0.000000   0.000000
     33       0.000000   0.000000   0.000000   0.000000   0.000000   0.000000
     34       0.000000   0.000000   0.000000   0.000000   0.000000   0.000000
     35       0.000000   0.000000   0.000000   0.000000   0.000000   0.000000
     36       0.000000   0.000000   0.000000   0.000000   0.000000   0.000000
     37       0.000000   0.000000   0.000000   0.000000   0.000000   0.000000
     38       0.000000   0.000000   0.000000   0.000000   0.000000   0.000000
     39       0.000000   0.000000   0.000000   0.000000   0.000000   0.000000
     40       0.000000   0.000000   0.000000   0.000000   0.000000   0.000000
     41       0.000000   0.000000   0.000000   0.000000   0.000000   0.000000
     42       0.000000   0.000000   0.000000   0.000000   0.000000   0.000000
     43       0.000000   0.000000   0.000000   0.000000   0.000000   0.000000
     44       0.000000   0.000000   0.000000   0.000000   0.000000   0.000000
     45       0.000000   0.000000   0.000000   0.000000   0.000000   0.000000
     46       0.000000   0.000000   0.000000   0.000000   0.000000   0.000000
     47       0.000000   0.000000   0.000000   0.000000   0.000000   0.000000
     48       0.000000   0.000000   0.000000   0.000000   0.000000   0.000000
     49       0.000000   0.000000   0.000000   0.000000   0.000000   0.000000
     50       0.000000   0.000000   0.000000   0.000000   0.000000   0.000000
     51       0.000000   0.000000   0.000000   0.000000   0.000000   0.000000
     52       0.000000   0.000000   0.000000   0.000000   0.000000   0.000000
     53       0.000000   0.000000   0.000000   0.000000   0.000000   0.000000
                  6          7          8          9         10         11    
      0      -0.017808  -0.139141   0.019568   0.241349  -0.004311  -0.020041
      1      -0.015791  -0.020699  -0.028650   0.056190   0.054515   0.097163
      2      -0.018748  -0.019984   0.123126  -0.008100  -0.112625  -0.012252
      3       0.097380  -0.000021   0.000016   0.252491  -0.093945   0.069295
      4       0.000004  -0.111087   0.038586  -0.000035  -0.000004   0.000017
      5      -0.191248  -0.000026  -0.000015   0.088965   0.103193   0.072051
[...]
                 42         43         44         45         46         47    
      0       0.014960   0.000443  -0.002570   0.001954  -0.000763  -0.005408
      1      -0.028831  -0.000656   0.010963  -0.010576  -0.001460   0.014697
      2      -0.016486   0.002336  -0.042813   0.040424   0.006495  -0.041405
      3       0.041584   0.001350  -0.022490  -0.000251  -0.024426   0.000078
      4       0.000003   0.000000   0.000001  -0.000175   0.000002   0.001061
      5       0.029352  -0.002199   0.042468   0.000474   0.044939  -0.000146
      6      -0.016456   0.002903   0.001669   0.006483  -0.007538   0.011295
      7       0.030390  -0.007550  -0.005875  -0.017815   0.020696  -0.024694
      8       0.020397   0.014042   0.015926   0.039402  -0.044196   0.038086
      9       0.020715  -0.015422   0.001845   0.000014  -0.005165   0.000012
     10      -0.000003  -0.000018  -0.000031   0.003051  -0.000007   0.000051
     11       0.000503   0.955236  -0.045446  -0.000181   0.241643  -0.000484
     12       0.014947   0.000443  -0.002531  -0.002012  -0.000730   0.005409
     13       0.028820   0.000658  -0.010745  -0.010812   0.001552   0.014683
     14      -0.016478   0.002341  -0.041954  -0.041313   0.006764   0.041328
     15       0.074678  -0.054032  -0.040579  -0.124582   0.145326  -0.177503
     16      -0.084938   0.098323   0.074708   0.229000  -0.270295   0.327055
     17      -0.289032  -0.040555  -0.028503  -0.093832   0.112476  -0.145116
     18       0.150945   0.017091   0.023022   0.048059  -0.049185   0.037924
     19      -0.276223  -0.007793  -0.005321  -0.012326   0.014852  -0.014370
     20       0.027824  -0.158318  -0.187270  -0.408225   0.434407  -0.312600
     21      -0.016455   0.002907   0.001806  -0.006461  -0.007596  -0.011280
     22      -0.030399   0.007560   0.006251  -0.017728  -0.020819  -0.024637
     23       0.020400   0.014057   0.016748  -0.039113  -0.044332  -0.037864
     24      -0.391187  -0.001053   0.024555   0.000275   0.026419  -0.000085
     25      -0.000027  -0.000000  -0.000041   0.003575  -0.000008  -0.000910
     26      -0.017255   0.023108  -0.514868  -0.005725  -0.492245   0.001595
     27      -0.086306  -0.014618   0.246499   0.002747   0.275817  -0.000886
     28      -0.000013  -0.000001   0.000016   0.000035   0.000013  -0.001814
     29      -0.370824   0.003191  -0.048345  -0.000540  -0.057601   0.000185
     30      -0.008071   0.000092   0.000017  -0.000000  -0.000636   0.000001
     31       0.000001   0.000002   0.000009  -0.000830  -0.000004  -0.001603
     32       0.000245  -0.074959   0.005074   0.000028  -0.022009   0.000046
     33       0.150931   0.017111   0.024028  -0.047631  -0.049313  -0.037669
     34       0.276289   0.007805   0.005587  -0.012251  -0.014933  -0.014327
     35       0.027840  -0.158441  -0.195742   0.404608   0.435236   0.310098
     36       0.074693  -0.054090  -0.043203   0.123957   0.146174   0.177052
     37       0.084968  -0.098460  -0.079557   0.227925   0.271942   0.326319
     38      -0.289083  -0.040617  -0.030497   0.093461   0.113241   0.144867
     39      -0.127588   0.000116  -0.052539  -0.052243   0.009331   0.046098
     40      -0.244121   0.000387  -0.016867  -0.013179   0.000529   0.014188
     41      -0.023726  -0.018161   0.498099   0.476807  -0.078600  -0.418777
     42      -0.059623  -0.005864   0.076292   0.075267  -0.007925  -0.108556
     43      -0.075656  -0.010661   0.142576   0.140084  -0.015620  -0.203465
     44       0.253699  -0.004174   0.048856   0.048488  -0.004093  -0.082496
     45      -0.127686   0.000110  -0.053646   0.051149   0.009026  -0.046212
     46       0.244220  -0.000387   0.017170  -0.012846  -0.000441   0.014230
     47      -0.023762  -0.018100   0.508016  -0.466269  -0.075809   0.419615
     48      -0.059680  -0.005859   0.077849  -0.073626  -0.007253   0.108697
     49       0.075702   0.010649  -0.145431   0.136976   0.014356  -0.203678
     50       0.253824  -0.004172   0.049851  -0.047425  -0.003591   0.082588
     51       0.000209   0.000247   0.000038   0.000000   0.000044  -0.000000
     52      -0.000000  -0.000000  -0.000000   0.000004   0.000000   0.000011
     53       0.000050  -0.000128   0.000001  -0.000000  -0.000018   0.000000
                 48         49         50         51         52         53    
      0       0.008016  -0.008151  -0.006411   0.008710  -0.021804   0.019010
      1      -0.019230   0.010918   0.006715  -0.018605   0.038686  -0.032905
      2       0.030860   0.009801   0.023838  -0.002073  -0.000623   0.001818
      3      -0.031583  -0.000118  -0.000220  -0.044470   0.000054   0.037957
      4      -0.000002   0.001155  -0.000008  -0.000005   0.001830   0.000001
      5       0.035897   0.000218   0.028768  -0.018392   0.000010   0.008347
      6       0.014370   0.019118  -0.013836  -0.009803  -0.007576  -0.004305
      7      -0.026233  -0.028339   0.019105   0.017945   0.014632   0.008790
      8       0.015649  -0.021168   0.026566   0.004655   0.002611   0.000707
      9       0.001054   0.000004   0.000178  -0.000222  -0.000001  -0.000774
     10       0.000005  -0.001357   0.000010   0.000002   0.000706  -0.000000
     11      -0.120106  -0.000746  -0.076934   0.010306   0.000028   0.003999
     12       0.008013   0.008132  -0.006539   0.008683   0.021818   0.018961
     13       0.019248   0.010975  -0.006896   0.018572   0.038719   0.032827
     14       0.030938  -0.009389   0.023969  -0.002061   0.000616   0.001810
     15      -0.187039  -0.195175   0.127399   0.117834   0.096006   0.056966
     16       0.349003   0.367147  -0.242939  -0.222895  -0.177328  -0.104380
     17      -0.166750  -0.194014   0.133576   0.113316   0.089928   0.052212
     18       0.010336  -0.037768   0.040906   0.012555   0.009620   0.004331
     19      -0.013966  -0.009672   0.004021   0.006398   0.004976   0.003320
     20      -0.018488   0.458633  -0.459388  -0.173666  -0.124358  -0.059316
     21       0.014427  -0.019277  -0.013581  -0.009728   0.007543  -0.004305
     22       0.026313  -0.028552  -0.018731  -0.017830   0.014577  -0.008796
     23       0.015502   0.021614   0.026296   0.004607  -0.002607   0.000710
     24       0.008892   0.000113   0.027543  -0.053382   0.000051   0.035504
     25      -0.000002   0.000072  -0.000003   0.000000   0.001354  -0.000001
     26      -0.332965  -0.002286  -0.364434   0.418512  -0.000345  -0.254268
     27       0.391769   0.001381  -0.023830   0.610013  -0.000718  -0.501278
     28       0.000026  -0.000479   0.000001   0.000040   0.002132  -0.000034
     29      -0.096382  -0.000299   0.020387  -0.186373   0.000212   0.148535
     30       0.001038  -0.000003  -0.000599  -0.000629  -0.000001  -0.000479
     31       0.000003  -0.002193   0.000014   0.000004   0.000295   0.000000
     32       0.010185   0.000074   0.007905  -0.000506  -0.000002  -0.000498
     33       0.010115   0.038436   0.040440   0.012458  -0.009601   0.004339
     34       0.013984  -0.009674  -0.003876  -0.006349   0.004948  -0.003318
     35      -0.016078  -0.465610  -0.453459  -0.172295   0.123963  -0.059372
     36      -0.187520   0.196474   0.124774   0.117003  -0.095597   0.056981
     37      -0.350021   0.369761   0.238073   0.221404  -0.176619   0.104436
     38      -0.167337   0.195532   0.131014   0.112550  -0.089576   0.052242
     39       0.031744  -0.014757   0.031448  -0.009361  -0.014762  -0.010284
     40       0.014653   0.003095   0.002162   0.007302   0.014201   0.011888
     41      -0.252754   0.190881  -0.338225   0.137813   0.248147   0.192714
     42      -0.137568  -0.075699   0.043005  -0.120248  -0.258495  -0.218560
     43      -0.262448  -0.146733   0.085064  -0.228202  -0.492740  -0.420946
     44      -0.117701  -0.079030   0.054548  -0.116642  -0.249788  -0.211055
     45       0.031668   0.015244   0.031242  -0.009390   0.014751  -0.010314
     46      -0.014650   0.002973  -0.002237  -0.007306   0.014178  -0.011906
     47      -0.251852  -0.195577  -0.335378   0.138204  -0.247896   0.193178
     48      -0.137494   0.075279   0.041765  -0.120505   0.258350  -0.219140
     49       0.262246  -0.145932  -0.082644   0.228633  -0.492318   0.421931
     50      -0.117669   0.078841   0.053266  -0.116896   0.249637  -0.211605
     51      -0.000077   0.000000   0.000074   0.000077   0.000000   0.000073
     52       0.000000   0.000002  -0.000000  -0.000000   0.000010  -0.000000
     53       0.000018  -0.000000  -0.000019  -0.000010  -0.000000  -0.000011


-----------
IR SPECTRUM  
-----------

 Mode    freq (cm**-1)   T**2         TX         TY         TZ
-------------------------------------------------------------------
   6:       121.49    0.000000  (  0.000000   0.000000   0.000000)
   7:       207.04    0.000000  (  0.000000   0.000000   0.000000)
   8:       228.31    0.000000  (  0.000000   0.000000   0.000000)
   9:       238.90    0.000000  (  0.000000   0.000000   0.000000)
  10:       315.80    0.000000  (  0.000000   0.000000   0.000000)
  11:       419.69    0.000000  (  0.000000   0.000000   0.000000)
  12:       428.43    0.000000  (  0.000000   0.000000   0.000000)
  13:       499.06    0.000000  (  0.000000   0.000000   0.000000)
  14:       670.27    0.000000  (  0.000000   0.000000   0.000000)
  15:       821.95    0.000000  (  0.000000   0.000000   0.000000)
  16:       854.73    0.000000  (  0.000000   0.000000   0.000000)
  17:       894.18    0.000000  (  0.000000   0.000000   0.000000)
  18:       930.10    0.000000  (  0.000000   0.000000   0.000000)
  19:       930.26    0.000000  (  0.000000   0.000000   0.000000)
  20:       966.59    0.000000  (  0.000000   0.000000   0.000000)
  21:       987.98    0.000000  (  0.000000   0.000000   0.000000)
  22:      1063.78    0.000000  (  0.000000   0.000000   0.000000)
  23:      1084.46    0.000000  (  0.000000   0.000000   0.000000)
  24:      1104.70    0.000000  (  0.000000   0.000000   0.000000)
  25:      1133.87    0.000000  (  0.000000   0.000000   0.000000)
  26:      1134.83    0.000000  (  0.000000   0.000000   0.000000)
  27:      1196.91    0.000000  (  0.000000   0.000000   0.000000)
  28:      1204.63    0.000000  (  0.000000   0.000000   0.000000)
  29:      1239.25    0.000000  (  0.000000   0.000000   0.000000)
  30:      1239.97    0.000000  (  0.000000   0.000000   0.000000)
  31:      1252.63    0.000000  (  0.000000   0.000000   0.000000)
  32:      1290.63    0.000000  (  0.000000   0.000000   0.000000)
  33:      1331.20    0.000000  (  0.000000   0.000000   0.000000)
  34:      1335.92    0.000000  (  0.000000   0.000000   0.000000)
  35:      1337.67    0.000000  (  0.000000   0.000000   0.000000)
  36:      1347.28    0.000000  (  0.000000   0.000000   0.000000)
  37:      1352.27    0.000000  (  0.000000   0.000000   0.000000)
  38:      1475.47    0.000000  (  0.000000   0.000000   0.000000)
  39:      1480.69    0.000000  (  0.000000   0.000000   0.000000)
  40:      1482.86    0.000000  (  0.000000   0.000000   0.000000)
  41:      1485.79    0.000000  (  0.000000   0.000000   0.000000)
  42:      1498.55    0.000000  (  0.000000   0.000000   0.000000)
  43:      2949.96    0.000000  (  0.000000   0.000000   0.000000)
  44:      2963.44    0.000000  (  0.000000   0.000000   0.000000)
  45:      2963.76    0.000000  (  0.000000   0.000000   0.000000)
  46:      2970.00    0.000000  (  0.000000   0.000000   0.000000)
  47:      2971.60    0.000000  (  0.000000   0.000000   0.000000)
  48:      2978.30    0.000000  (  0.000000   0.000000   0.000000)
  49:      2980.62    0.000000  (  0.000000   0.000000   0.000000)
  50:      2981.46    0.000000  (  0.000000   0.000000   0.000000)
  51:      2983.65    0.000000  (  0.000000   0.000000   0.000000)
  52:      2989.43    0.000000  (  0.000000   0.000000   0.000000)
  53:      2993.94    0.000000  (  0.000000   0.000000   0.000000)

The first frequency considered to be a vibration is 6
The total number of vibrations considered is 48


--------------------------
THERMOCHEMISTRY AT 298.15K
--------------------------

Temperature         ... 298.15 K
Pressure            ... 1.00 atm
Total Mass          ... 163.05 AMU

Throughout the following assumptions are being made:
  (1) The electronic state is orbitally nondegenerate
  (2) There are no thermally accessible electronically excited states
  (3) Hindered rotations indicated by low frequency modes are not
      treated as such but are treated as vibrations and this may
      cause some error
  (4) All equations used are the standard statistical mechanics
      equations for an ideal gas
  (5) All vibrations are strictly harmonic

freq.     121.49  E(vib)   ...       0.44 
freq.     207.04  E(vib)   ...       0.35 
freq.     228.31  E(vib)   ...       0.32 
freq.     238.90  E(vib)   ...       0.32 
freq.     315.80  E(vib)   ...       0.25 
freq.     419.69  E(vib)   ...       0.18 
freq.     428.43  E(vib)   ...       0.18 
freq.     499.06  E(vib)   ...       0.14 
freq.     670.27  E(vib)   ...       0.08 
freq.     821.95  E(vib)   ...       0.05 
freq.     854.73  E(vib)   ...       0.04 
freq.     894.18  E(vib)   ...       0.03 
freq.     930.10  E(vib)   ...       0.03 
freq.     930.26  E(vib)   ...       0.03 
freq.     966.59  E(vib)   ...       0.03 
freq.     987.98  E(vib)   ...       0.02 
freq.    1063.78  E(vib)   ...       0.02 
freq.    1084.46  E(vib)   ...       0.02 
freq.    1104.70  E(vib)   ...       0.02 
freq.    1133.87  E(vib)   ...       0.01 
freq.    1134.83  E(vib)   ...       0.01 
freq.    1196.91  E(vib)   ...       0.01 
freq.    1204.63  E(vib)   ...       0.01 
freq.    1239.25  E(vib)   ...       0.01 
freq.    1239.97  E(vib)   ...       0.01 
freq.    1252.63  E(vib)   ...       0.01 
freq.    1290.63  E(vib)   ...       0.01 
freq.    1331.20  E(vib)   ...       0.01 
freq.    1335.92  E(vib)   ...       0.01 
freq.    1337.67  E(vib)   ...       0.01 
freq.    1347.28  E(vib)   ...       0.01 
freq.    1352.27  E(vib)   ...       0.01 
freq.    1475.47  E(vib)   ...       0.00 
freq.    1480.69  E(vib)   ...       0.00 
freq.    1482.86  E(vib)   ...       0.00 
freq.    1485.79  E(vib)   ...       0.00 
freq.    1498.55  E(vib)   ...       0.00 
freq.    2949.96  E(vib)   ...       0.00 
freq.    2963.44  E(vib)   ...       0.00 
freq.    2963.76  E(vib)   ...       0.00 
freq.    2970.00  E(vib)   ...       0.00 
freq.    2971.60  E(vib)   ...       0.00 
freq.    2978.30  E(vib)   ...       0.00 
freq.    2980.62  E(vib)   ...       0.00 
freq.    2981.46  E(vib)   ...       0.00 
freq.    2983.65  E(vib)   ...       0.00 
freq.    2989.43  E(vib)   ...       0.00 
freq.    2993.94  E(vib)   ...       0.00 

------------
INNER ENERGY
------------

The inner energy is: U= E(el) + E(ZPE) + E(vib) + E(rot) + E(trans)
    E(el)   - is the total energy from the electronic structure calculation
              = E(kin-el) + E(nuc-el) + E(el-el) + E(nuc-nuc)
    E(ZPE)  - the the zero temperature vibrational energy from the frequency calculation
    E(vib)  - the the finite temperature correction to E(ZPE) due to population
              of excited vibrational states
    E(rot)  - is the rotational thermal energy
    E(trans)- is the translational thermal energy

Summary of contributions to the inner energy U:
Electronic energy                ...    -22.57634055 Eh
Zero point energy                ...      0.15790962 Eh      99.09 kcal/mol
Thermal vibrational correction   ...      0.00424089 Eh       2.66 kcal/mol
Thermal rotational correction    ...      0.00141627 Eh       0.89 kcal/mol
Thermal translational correction ...      0.00141627 Eh       0.89 kcal/mol
-----------------------------------------------------------------------
Total thermal energy                    -22.41135750 Eh


Summary of corrections to the electronic energy:
(perhaps to be used in another calculation)
Total thermal correction                  0.00707343 Eh       4.44 kcal/mol
Non-thermal (ZPE) correction              0.15790962 Eh      99.09 kcal/mol
-----------------------------------------------------------------------
Total correction                          0.16498305 Eh     103.53 kcal/mol


--------
ENTHALPY
--------

The enthalpy is H = U + kB*T
                kB is Boltzmann's constant
Total free energy                 ...    -22.41135750 Eh 
Thermal Enthalpy correction       ...      0.00094421 Eh       0.59 kcal/mol
-----------------------------------------------------------------------
Total Enthalpy                    ...    -22.41041329 Eh


Note: Only C1 symmetry has been detected, increase convergence thresholds 
      if your molecule has a higher symmetry. Symmetry factor of 1.0 is   
      used for the rotational entropy correction. 
 

Note: Rotational entropy computed according to Herzberg 
Infrared and Raman Spectra, Chapter V,1, Van Nostrand Reinhold, 1945 
Point Group:  C1, Symmetry Number:   1  
Rotational constants in cm-1:     0.144425     0.029417     0.025626 

Vibrational entropy computed according to the QRRHO of S. Grimme
Chem.Eur.J. 2012 18 9955


-------
ENTROPY
-------

The entropy contributions are T*S = T*(S(el)+S(vib)+S(rot)+S(trans))
     S(el)   - electronic entropy
     S(vib)  - vibrational entropy
     S(rot)  - rotational entropy
     S(trans)- translational entropy
The entropies will be listed as mutliplied by the temperature to get
units of energy

Electronic entropy                ...      0.00000000 Eh      0.00 kcal/mol
Vibrational entropy               ...      0.00688384 Eh      4.32 kcal/mol
Rotational entropy                ...      0.01381878 Eh      8.67 kcal/mol
Translational entropy             ...      0.01956367 Eh     12.28 kcal/mol
-----------------------------------------------------------------------
Final entropy term                ...      0.04026629 Eh     25.27 kcal/mol

In case the symmetry of your molecule has not been determined correctly
or in case you have a reason to use a different symmetry number we print 
out the resulting rotational entropy values for sn=1,12 :
 --------------------------------------------------------
|  sn= 1 | S(rot)=       0.01381878 Eh      8.67 kcal/mol|
|  sn= 2 | S(rot)=       0.01316433 Eh      8.26 kcal/mol|
|  sn= 3 | S(rot)=       0.01278149 Eh      8.02 kcal/mol|
|  sn= 4 | S(rot)=       0.01250987 Eh      7.85 kcal/mol|
|  sn= 5 | S(rot)=       0.01229918 Eh      7.72 kcal/mol|
|  sn= 6 | S(rot)=       0.01212704 Eh      7.61 kcal/mol|
|  sn= 7 | S(rot)=       0.01198149 Eh      7.52 kcal/mol|
|  sn= 8 | S(rot)=       0.01185541 Eh      7.44 kcal/mol|
|  sn= 9 | S(rot)=       0.01174420 Eh      7.37 kcal/mol|
|  sn=10 | S(rot)=       0.01164473 Eh      7.31 kcal/mol|
|  sn=11 | S(rot)=       0.01155474 Eh      7.25 kcal/mol|
|  sn=12 | S(rot)=       0.01147258 Eh      7.20 kcal/mol|
 --------------------------------------------------------


-------------------
GIBBS FREE ENERGY
-------------------

The Gibbs free energy is G = H - T*S

Total enthalpy                    ...    -22.41041329 Eh 
Total entropy correction          ...     -0.04026629 Eh    -25.27 kcal/mol
-----------------------------------------------------------------------
Final Gibbs free energy         ...    -22.45067959 Eh

For completeness - the Gibbs free energy minus the electronic energy
G-E(el)                           ...      0.12566097 Eh     78.85 kcal/mol


Total Time for Numerical Frequencies  :       105.513 sec

Timings for individual modules:

Sum of individual times         ...        0.349 sec (=   0.006 min)
Geometry relaxation             ...        0.133 sec (=   0.002 min)  38.0 %
XTB module                      ...        0.216 sec (=   0.004 min)  62.0 %
                             ****ORCA TERMINATED NORMALLY****
TOTAL RUN TIME: 0 days 0 hours 1 minutes 46 seconds 699 msec
