(SLURM) JOB ID:         168

                                 *****************
                                 * O   R   C   A *
                                 *****************

           --- An Ab Initio, DFT and Semiempirical electronic structure package ---

                  #######################################################
                  #                        -***-                        #
                  #          Department of theory and spectroscopy      #
                  #               Directorship: Frank Neese             #
                  #        Max Planck Institute fuer Kohlenforschung    #
                  #                Kaiser Wilhelm Platz 1               #
                  #                 D-45470 Muelheim/Ruhr               #
                  #                      Germany                        #
                  #                                                     #
                  #                  All rights reserved                #
                  #                        -***-                        #
                  #######################################################


                         Program Version 4.2.1 -  RELEASE  -


 With contributions from (in alphabetic order):
   Daniel Aravena         : Magnetic Suceptibility
   Michael Atanasov       : Ab Initio Ligand Field Theory (pilot matlab implementation)
   Alexander A. Auer      : GIAO ZORA, VPT2
   Ute Becker             : Parallelization
   Giovanni Bistoni       : ED, misc. LED, open-shell LED, HFLD
   Martin Brehm           : Molecular dynamics
   Dmytro Bykov           : SCF Hessian
   Vijay G. Chilkuri      : MRCI spin determinant printing, contributions to CSF-ICE
   Dipayan Datta          : RHF DLPNO-CCSD density
   Achintya Kumar Dutta   : EOM-CC, STEOM-CC
   Dmitry Ganyushin       : Spin-Orbit,Spin-Spin,Magnetic field MRCI
   Miquel Garcia          : C-PCM Hessian, Gaussian charge scheme
   Yang Guo               : DLPNO-NEVPT2, CIM, IAO-localization
   Andreas Hansen         : Spin unrestricted coupled pair/coupled cluster methods
   Benjamin Helmich-Paris : CASSCF linear response (MC-RPA)
   Lee Huntington         : MR-EOM, pCC
   Robert Izsak           : Overlap fitted RIJCOSX, COSX-SCS-MP3, EOM
   Christian Kollmar      : KDIIS, OOCD, Brueckner-CCSD(T), CCSD density
   Simone Kossmann        : Meta GGA functionals, TD-DFT gradient, OOMP2, MP2 Hessian
   Martin Krupicka        : AUTO-CI
   Lucas Lang             : DCDCAS
   Dagmar Lenk            : GEPOL surface, SMD
   Dimitrios Liakos       : Extrapolation schemes; Compound Job, initial MDCI parallelization
   Dimitrios Manganas     : Further ROCIS development; embedding schemes
   Dimitrios Pantazis     : SARC Basis sets
   Taras Petrenko         : DFT Hessian,TD-DFT gradient, ASA, ECA, R-Raman, ABS, FL, XAS/XES, NRVS
   Peter Pinski           : DLPNO-MP2, DLPNO-MP2 Gradient
   Christoph Reimann      : Effective Core Potentials
   Marius Retegan         : Local ZFS, SOC
   Christoph Riplinger    : Optimizer, TS searches, QM/MM, DLPNO-CCSD(T), (RO)-DLPNO pert. Triples
   Tobias Risthaus        : Range-separated hybrids, TD-DFT gradient, RPA, STAB
   Michael Roemelt        : Original ROCIS implementation
   Masaaki Saitow         : Open-shell DLPNO-CCSD energy and density
   Barbara Sandhoefer     : DKH picture change effects
   Avijit Sen             : IP-ROCIS
   Kantharuban Sivalingam : CASSCF convergence, NEVPT2, FIC-MRCI
   Bernardo de Souza      : ESD, SOC TD-DFT
   Georgi Stoychev        : AutoAux, RI-MP2 NMR
   Willem Van den Heuvel  : Paramagnetic NMR
   Boris Wezisla          : Elementary symmetry handling
   Frank Wennmohs         : Technical directorship


 We gratefully acknowledge several colleagues who have allowed us to
 interface, adapt or use parts of their codes:
   Stefan Grimme, W. Hujo, H. Kruse,             : VdW corrections, initial TS optimization,
                  C. Bannwarth                     DFT functionals, gCP, sTDA/sTD-DF
   Ed Valeev, F. Pavosevic, A. Kumar             : LibInt (2-el integral package), F12 methods
   Garnet Chan, S. Sharma, J. Yang, R. Olivares  : DMRG
   Ulf Ekstrom                                   : XCFun DFT Library
   Mihaly Kallay                                 : mrcc  (arbitrary order and MRCC methods)
   Andreas Klamt, Michael Diedenhofen            : otool_cosmo (COSMO solvation model)
   Jiri Pittner, Ondrej Demel                    : Mk-CCSD
   Frank Weinhold                                : gennbo (NPA and NBO analysis)
   Christopher J. Cramer and Donald G. Truhlar   : smd solvation model
   Lars Goerigk                                  : TD-DFT with DH, B97 family of functionals
   V. Asgeirsson, H. Jonsson                     : NEB implementation
   FAccTs GmbH                                   : IRC, NEB, NEB-TS, Multilevel, MM, QM/MM, CI optimization
   S Lehtola, MJT Oliveira, MAL Marques          : LibXC Library


 Your calculation uses the libint2 library for the computation of 2-el integrals
 For citations please refer to: http://libint.valeyev.net

 Your ORCA version has been built with support for libXC version: 4.2.3
 For citations please refer to: https://tddft.org/programs/libxc/

 This ORCA versions uses:
   CBLAS   interface :  Fast vector & matrix operations
   LAPACKE interface :  Fast linear algebra routines
   SCALAPACK package :  Parallel linear algebra routines




***************************************
The coordinates will be read from file: init.xyz
***************************************


Your calculation utilizes the SMD solvation module
Please cite in your paper:
A.V. Marenich, C.J. Cramer, D.G. Truhlar J. Phys. Chem. B, 113, (2009), 6378 

Your calculation utilizes the semiempirical GFN2-xTB method
Please cite in your paper:
C. Bannwarth, Ehlert S., S. Grimme,  J. Chem. Theory Comput., 15, (2019), 1652.
   

----- Orbital basis set information -----
Your calculation utilizes the basis: def2-SVP
   F. Weigend and R. Ahlrichs, Phys. Chem. Chem. Phys. 7, 3297 (2005).

================================================================================
                                        WARNINGS
                       Please study these warnings very carefully!
================================================================================

WARNING: Gradients needed for Numerical Frequencies
  ===> : Setting RunTyp to EnGrad

WARNING: The environment variable RSH_COMMAND is not set!
  ===> : All Displacements for the Numerical Hessian calculation
         will be started on localhost

WARNING: Found dipole moment calculation with XTB calculation
  ===> : Switching off dipole moment calculation


INFO   : the flag for use of LIBINT has been found!

================================================================================
                                       INPUT FILE
================================================================================
NAME = /tmp/slurm-scratch/freq.168/freq.inp
|  1> ! XTB2 NumFreq
|  2> %maxcore 1450
|  3> 
|  4> * xyzfile 0 1 init.xyz
|  5> 
|  6> %cpcm
|  7>  smd true
|  8>  smdsolvent "ch2cl2"
|  9> end
| 10> %pal nprocs 8 end
| 11> 
| 12>                          ****END OF INPUT****
================================================================================

                     *******************************
                     * Energy+Gradient Calculation *
                     *******************************

      -----------------------------------------------------------      
     |                   =====================                   |     
     |                           x T B                           |     
     |                   =====================                   |     
     |                         S. Grimme                         |     
     |          Mulliken Center for Theoretical Chemistry        |     
     |                    University of Bonn                     |     
      -----------------------------------------------------------      

   * xtb version 6.3.0 (preview) compiled by 'ehlert@majestix' on 2020-01-15

   This program is distributed in the hope that it will be useful,
   but WITHOUT ANY WARRANTY; without even the implied warranty of
   MERCHANTABILITY or FITNESS FOR A PARTICULAR PURPOSE.
   
   FOR NON-COMMERCIAL, ACADEMIA USE ONLY.
   
   Cite this work as:
   * S. Grimme, C. Bannwarth, P. Shushkov, J. Chem. Theory Comput., 2017,
     13, 1989-2009. DOI: 10.1021/acs.jctc.7b00118
   * C. Bannwarth, S. Ehlert and S. Grimme., J. Chem. Theory Comput., 2019,
     15, 1652-1671. DOI: 10.1021/acs.jctc.8b01176
   * P. Pracht, E. Caldeweyher, S. Ehlert, S. Grimme, ChemRxiv, 2019, preprint.
     DOI: 10.26434/chemrxiv.8326202.v1
   * S. Grimme, S. Spicher unpublished
   
   for DFT-D4:
   * E. Caldeweyher, C. Bannwarth and S. Grimme, J. Chem. Phys., 2017,
     147, 034112. DOI: 10.1063/1.4993215
   * E. Caldeweyher, S. Ehlert, A. Hansen, H. Neugebauer, S. Spicher,
     C. Bannwarth and S. Grimme, J. Chem. Phys., 2019, 150, 154122.
     DOI: 10.1063/1.5090222
   
   for sTDA-xTB:
   * S. Grimme and C. Bannwarth, J. Chem. Phys., 2016, 145, 054103.
     DOI: 10.1063/1.4959605
   
   in the mass-spec context:
   * V. Asgeirsson, C. Bauer and S. Grimme, Chem. Sci., 2017, 8, 4879.
     DOI: 10.1039/c7sc00601b
   
   for metadynamics refer to:
   * S. Grimme, J. Chem. Theory Comput., 2019, 155, 2847-2862
     DOI: 10.1021/acs.jctc.9b00143
   
   with help from (in alphabetical order)
   C. Bannwarth, F. Bohle, G. Brandenburg, E. Caldeweyher, M. Checinski,
   S. Dohm, S. Ehlert, S. Ehrlich, F. März, H. Neugebauer, J. Pisarek,
   P. Pracht, P. Shushkov, and S. Spicher.
   
 * started run on 2020/08/28 at 06:15:36.148     

           -------------------------------------------------
          |                Calculation Setup                |
           -------------------------------------------------

          program call               : /opt/orca/otool_xtb /tmp/slurm-scratch/freq.168/freq_XTB.xyz --grad -c 0 -u 0 -P 8 --namespace /tmp/slurm-scratch/freq.168/freq --gbsa CH2Cl2
          hostname                   : headnode-pbs
          calculation namespace      : /tmp/slurm-scratch/freq.168/freq
          coordinate file            : /tmp/slurm-scratch/freq.168/freq_XTB.xyz
          omp threads                :                     8
          number of atoms            :                    33
          number of electrons        :                    80
          charge                     :                     0
          spin                       :                   0.0
          first test random number   :      0.62839485118797


molecular fragmentation (1/2 indicates fragments):
111111111111211111212222111111111
# atoms in fragment 1/2:    27     6
 fragment masses (1/2) :      161.24       36.03
CMA distance (Bohr)    :   7.125
constraining FC (au)   :  0.0500

########################################################################
# WARNING! Please study the warnings concerning your input carefully
#  - Process number higher than OMP_NUM_THREADS, I hope you know what you are doing.
########################################################################

           ------------------------------------------------- 
          |                 G F N 2 - x T B                 |
          | Geometry, Frequencies, Noncovalent interactions |
          |            JCTC 2019 parametrisation            |
           ------------------------------------------------- 
             k(s)              :                1.8500
             k(p)              :                2.2300
             k(d)              :                2.2300
             k(f)              :                2.0000
             kEN (H0ij)        :               -2.0000
             D4 a1             :                0.5200
             D4 a2             :                5.0000
             D4 s6             :                1.0000
             D4 s8             :                2.7000
             D4 s9             :                5.0000
             alphaj            :                2.0000

  Z AO/shell   Hii/eV     exponent
  1     Wed Apr 25 08:07:45 CEST 2018   EN: 2.200 GM2: 0.406  GM3: 0.0800  RAES: 1.40
     1s    -10.707211    1.230000
  6     Wed Apr 25 08:07:45 CEST 2018   EN: 2.550 GM2: 0.538  GM3: 0.1500  RAES: 3.00
     2s    -13.970922    2.096432
     2p    -10.063292    1.800000
  7     Wed Apr 25 08:07:45 CEST 2018   EN: 3.040 GM2: 0.461  GM3:-0.0640  RAES: 1.90
     2s    -16.686243    2.339881
     2p    -12.523956    2.014332
  8     Wed Apr 25 08:07:45 CEST 2018   EN: 3.440 GM2: 0.452  GM3:-0.0517  RAES: 1.80
     2s    -20.229985    2.439742
     2p    -15.503117    2.137023

 Solvent             : CH2Cl2
 Using internal parameter file: .param_gbsa2_CH2Cl2
 Gsolv ref. state (COSMO-RS): gsolv [1 M gas/solution]
 temperature (mdtemp)       :    298.150000000000     
 dielectric constant        :    8.93000000000000     
 rho                        :    1.33000000000000     
 mass                       :    84.9300000000000     
 surface tension            :    15.5689454083859     
 probe radius               :   0.719875900000000     
 Gshift (Eh)                :   4.440829173451759E-003
 c1                         :    1.49173776000000     
 soset                      :   0.000000000000000E+000
 HB correction              :  F
           ------------------------------------------------- 
          |        Self-Consistent Charge Iterations        |
           ------------------------------------------------- 

          ...................................................
          :                      SETUP                      :
          :.................................................:
          :  # basis functions                  75          :
          :  # atomic orbitals                  75          :
          :  # shells                           47          :
          :  # electrons                        80          :
          :  max. iterations                   250          :
          :  Hamiltonian                  GFN2-xTB          :
          :  GBSA solvation                   true          :
          :  PC potential                    false          :
          :  electronic temp.          300.0000000     K    :
          :  accuracy                    1.0000000          :
          :  -> integral cutoff          0.2500000E+02      :
          :  -> integral neglect         0.1000000E-07      :
          :  -> SCF convergence          0.1000000E-05 Eh   :
          :  -> wf. convergence          0.1000000E-03 e    :
          :  Broyden damping             0.4000000          :
          ...................................................
  Checking positiv definite overlap ...  done.
 

 iter      E             dE          RMSdq      gap      omega  full diag
   1    -44.8479636 -0.448480E+02  0.367E+00    3.27       0.0  T
   2    -44.8833512 -0.353876E-01  0.222E+00    3.35       1.0  T
   3    -44.8777576  0.559356E-02  0.795E-01    2.99       1.0  T
   4    -44.8868386 -0.908097E-02  0.326E-01    3.17       1.0  T
   5    -44.8886178 -0.177926E-02  0.697E-02    3.11       1.0  T
   6    -44.8886304 -0.125789E-04  0.344E-02    3.12       1.0  T
   7    -44.8886393 -0.885609E-05  0.161E-02    3.12       1.1  T
   8    -44.8886414 -0.208949E-05  0.404E-03    3.12       4.3  T
   9    -44.8886415 -0.143073E-06  0.181E-03    3.12       9.6  T
  10    -44.8886415 -0.429878E-08  0.986E-04    3.12      17.7  T
  11    -44.8886415 -0.108284E-07  0.295E-04    3.12      59.1  T

   *** convergence criteria satisfied after 11 iterations ***

         #    Occupation            Energy/Eh            Energy/eV
      -------------------------------------------------------------
         1        2.0000           -0.6776429             -18.4396
       ...           ...                  ...                  ...
        34        2.0000           -0.4318565             -11.7514
        35        2.0000           -0.4304544             -11.7133
        36        2.0000           -0.4262088             -11.5977
        37        2.0000           -0.4251278             -11.5683
        38        2.0000           -0.4114958             -11.1974
        39        2.0000           -0.4044398             -11.0054
        40        2.0000           -0.3932538             -10.7010 (HOMO)
        41                         -0.2785908              -7.5808 (LUMO)
        42                         -0.2310419              -6.2870
        43                         -0.1953235              -5.3150
        44                         -0.0919818              -2.5030
        45                          0.0174239               0.4741
       ...                                ...                  ...
        75                          0.6502337              17.6938
      -------------------------------------------------------------
                  HL-Gap            0.1146631 Eh            3.1201 eV
             Fermi-level           -0.3359223 Eh           -9.1409 eV

 SCC (total)                   0 d,  0 h,  0 min,  0.223 sec
 SCC setup                      ...        0 min,  0.008 sec (  3.460%)
 Dispersion                     ...        0 min,  0.010 sec (  4.480%)
 integral evaluation            ...        0 min,  0.032 sec ( 14.306%)
 zeroth order Hamiltonian       ...        0 min,  0.000 sec (  0.009%)
 iterations                     ...        0 min,  0.165 sec ( 73.704%)
 molecular gradient             ...        0 min,  0.008 sec (  3.391%)
 printout                       ...        0 min,  0.001 sec (  0.611%)

         :::::::::::::::::::::::::::::::::::::::::::::::::::::
         ::                     SUMMARY                     ::
         :::::::::::::::::::::::::::::::::::::::::::::::::::::
         :: total energy             -44.280543987831 Eh    ::
         :: total w/o Gsasa/hb       -44.262454121052 Eh    ::
         :: gradient norm              0.025399415821 Eh/a0 ::
         :: HOMO-LUMO gap              3.120140801910 eV    ::
         ::.................................................::
         :: SCC energy               -44.906731389104 Eh    ::
         :: -> isotropic ES            0.083078739398 Eh    ::
         :: -> anisotropic ES         -0.003063372286 Eh    ::
         :: -> anisotropic XC          0.026812850040 Eh    ::
         :: -> dispersion             -0.024590907060 Eh    ::
         :: -> Gsolv                  -0.025502280542 Eh    ::
         ::    -> Gborn               -0.007412413764 Eh    ::
         ::    -> Gsasa               -0.022530695952 Eh    ::
         ::    -> Ghb                  0.000000000000 Eh    ::
         ::    -> Gshift               0.004440829173 Eh    ::
         :: repulsion energy           0.626195734131 Eh    ::
         :: add. restraining           0.000000000000 Eh    ::
         :::::::::::::::::::::::::::::::::::::::::::::::::::::

           -------------------------------------------------
          |                Property Printout                |
           -------------------------------------------------

    * Orbital Energies and Occupations

         #    Occupation            Energy/Eh            Energy/eV
      -------------------------------------------------------------
         1        2.0000           -0.6776429             -18.4396
       ...           ...                  ...                  ...
        28        2.0000           -0.4756390             -12.9428
        29        2.0000           -0.4643635             -12.6360
        30        2.0000           -0.4490107             -12.2182
        31        2.0000           -0.4436059             -12.0711
        32        2.0000           -0.4429341             -12.0529
        33        2.0000           -0.4393955             -11.9566
        34        2.0000           -0.4318565             -11.7514
        35        2.0000           -0.4304544             -11.7133
        36        2.0000           -0.4262088             -11.5977
        37        2.0000           -0.4251278             -11.5683
        38        2.0000           -0.4114958             -11.1974
        39        2.0000           -0.4044398             -11.0054
        40        2.0000           -0.3932538             -10.7010 (HOMO)
        41                         -0.2785908              -7.5808 (LUMO)
        42                         -0.2310419              -6.2870
        43                         -0.1953235              -5.3150
        44                         -0.0919818              -2.5030
        45                          0.0174239               0.4741
        46                          0.0461615               1.2561
        47                          0.0923554               2.5131
        48                          0.0997886               2.7154
        49                          0.1115234               3.0347
        50                          0.1195112               3.2521
        51                          0.1303683               3.5475
       ...                                ...                  ...
        75                          0.6502337              17.6938
      -------------------------------------------------------------
                  HL-Gap            0.1146631 Eh            3.1201 eV
             Fermi-level           -0.3359223 Eh           -9.1409 eV

     #   Z        covCN         q      C6AA      α(0)
     1   6 C      2.969     0.003    27.950     8.672
     2   6 C      2.922    -0.029    28.736     8.791
     3   6 C      2.913    -0.028    28.710     8.786
     4   6 C      2.916    -0.024    28.592     8.768
     5   6 C      2.914    -0.027    28.681     8.782
     6   6 C      2.918    -0.030    28.737     8.791
     7   6 C      2.855     0.079    26.232     8.395
     8   1 H      0.925     0.038     2.478     2.462
     9   1 H      0.926     0.067     2.119     2.276
    10   1 H      0.925     0.043     2.406     2.425
    11   7 N      1.825    -0.263    27.692     7.798
    12   6 C      3.764     0.018    20.309     6.424
    13   1 H      0.801     0.318     0.669     1.285
    14   6 C      3.803    -0.060    21.658     6.626
    15   1 H      0.924     0.013     2.839     2.635
    16   1 H      0.924     0.044     2.396     2.420
    17   1 H      0.924     0.051     2.314     2.379
    18   1 H      0.924     0.034     2.525     2.485
    19   8 O      1.608    -0.629    25.881     6.866
    20   1 H      0.924     0.008     2.919     2.672
    21   1 H      0.805     0.284     0.772     1.380
    22   8 O      1.606    -0.621    25.690     6.841
    23   1 H      0.803     0.313     0.682     1.297
    24   1 H      0.805     0.288     0.758     1.367
    25   1 H      0.925     0.041     2.430     2.438
    26   1 H      0.925     0.048     2.339     2.391
    27   6 C      3.800    -0.053    21.523     6.605
    28   1 H      0.924     0.034     2.535     2.490
    29   1 H      0.924     0.031     2.573     2.508
    30   6 C      3.750    -0.103    22.526     6.769
    31   1 H      0.924     0.037     2.485     2.465
    32   1 H      0.924     0.037     2.485     2.465
    33   1 H      0.924     0.035     2.518     2.482

 Mol. C6AA /au·bohr⁶  :       9601.827545
 Mol. C8AA /au·bohr⁸  :     214510.193756
 Mol. α(0) /au        :        151.235881


Wiberg/Mayer (AO) data.
largest (>0.10) Wiberg bond orders for each atom
          total WBO             WBO to atom ...
     1  C   3.988        C    2 1.376    C    6 1.366    C    7 1.088
     2  C   3.987        C    3 1.453    C    1 1.376    H    8 0.968    C    5 0.105
     3  C   3.991        C    2 1.453    C    4 1.435    H   25 0.970    C    6 0.106
     4  C   3.987        C    3 1.435    C    5 1.424    H   10 0.971
     5  C   3.991        C    6 1.465    C    4 1.424    H   26 0.969    C    2 0.105
     6  C   3.988        C    5 1.465    C    1 1.366    H    9 0.960    C    3 0.106
     7  C   3.967        N   11 1.828    C    1 1.088    H   20 0.941
     8  H   0.999        C    2 0.968
     9  H   0.996        C    6 0.960
    10  H   0.998        C    4 0.971
    11  N   3.118        C    7 1.828    C   12 1.018
    12  C   3.983        N   11 1.018    C   14 0.988    H   15 0.966    H   16 0.958
    13  H   0.899        O   22 0.832
    14  C   3.990        C   27 1.006    C   12 0.988    H   18 0.977    H   17 0.975
    15  H   1.000        C   12 0.966
    16  H   0.995        C   12 0.958
    17  H   0.997        C   14 0.975
    18  H   0.999        C   14 0.977
    19  O   1.802        H   21 0.918    H   23 0.856
    20  H   0.999        C    7 0.941
    21  H   0.919        O   19 0.918
    22  O   1.846        H   24 0.914    H   13 0.832
    23  H   0.902        O   19 0.856
    24  H   0.917        O   22 0.914
    25  H   0.998        C    3 0.970
    26  H   0.997        C    5 0.969
    27  C   3.996        C   30 1.019    C   14 1.006    H   29 0.978    H   28 0.978
    28  H   0.999        C   27 0.978
    29  H   0.999        C   27 0.978
    30  C   3.995        C   27 1.019    H   33 0.988    H   31 0.987    H   32 0.987
    31  H   0.999        C   30 0.987
    32  H   0.998        C   30 0.987
    33  H   0.999        C   30 0.988

molecular dipole:
                 x           y           z       tot (Debye)
 q only:        0.123      -1.446       0.352
   full:        0.107      -2.247       0.554       5.889
molecular quadrupole (traceless):
                xx          xy          yy          xz          yz          zz
 q only:       12.498       6.649     -12.115      -1.746       7.530      -0.384
  q+dip:       14.209      10.261     -13.495      -0.947       5.659      -0.714
   full:       13.021      10.438     -14.100      -1.494       8.381       1.079

           -------------------------------------------------
          |                Property Printout                |
           -------------------------------------------------

    * Orbital Energies and Occupations

         #    Occupation            Energy/Eh            Energy/eV
      -------------------------------------------------------------
         1        2.0000           -0.6776429             -18.4396
       ...           ...                  ...                  ...
        28        2.0000           -0.4756390             -12.9428
        29        2.0000           -0.4643635             -12.6360
        30        2.0000           -0.4490107             -12.2182
        31        2.0000           -0.4436059             -12.0711
        32        2.0000           -0.4429341             -12.0529
        33        2.0000           -0.4393955             -11.9566
        34        2.0000           -0.4318565             -11.7514
        35        2.0000           -0.4304544             -11.7133
        36        2.0000           -0.4262088             -11.5977
        37        2.0000           -0.4251278             -11.5683
        38        2.0000           -0.4114958             -11.1974
        39        2.0000           -0.4044398             -11.0054
        40        2.0000           -0.3932538             -10.7010 (HOMO)
        41                         -0.2785908              -7.5808 (LUMO)
        42                         -0.2310419              -6.2870
        43                         -0.1953235              -5.3150
        44                         -0.0919818              -2.5030
        45                          0.0174239               0.4741
        46                          0.0461615               1.2561
        47                          0.0923554               2.5131
        48                          0.0997886               2.7154
        49                          0.1115234               3.0347
        50                          0.1195112               3.2521
        51                          0.1303683               3.5475
       ...                                ...                  ...
        75                          0.6502337              17.6938
      -------------------------------------------------------------
                  HL-Gap            0.1146631 Eh            3.1201 eV
             Fermi-level           -0.3359223 Eh           -9.1409 eV

     #   Z        covCN         q      C6AA      α(0)
     1   6 C      2.969     0.003    27.950     8.672
     2   6 C      2.922    -0.029    28.736     8.791
     3   6 C      2.913    -0.028    28.710     8.786
     4   6 C      2.916    -0.024    28.592     8.768
     5   6 C      2.914    -0.027    28.681     8.782
     6   6 C      2.918    -0.030    28.737     8.791
     7   6 C      2.855     0.079    26.232     8.395
     8   1 H      0.925     0.038     2.478     2.462
     9   1 H      0.926     0.067     2.119     2.276
    10   1 H      0.925     0.043     2.406     2.425
    11   7 N      1.825    -0.263    27.692     7.798
    12   6 C      3.764     0.018    20.309     6.424
    13   1 H      0.801     0.318     0.669     1.285
    14   6 C      3.803    -0.060    21.658     6.626
    15   1 H      0.924     0.013     2.839     2.635
    16   1 H      0.924     0.044     2.396     2.420
    17   1 H      0.924     0.051     2.314     2.379
    18   1 H      0.924     0.034     2.525     2.485
    19   8 O      1.608    -0.629    25.881     6.866
    20   1 H      0.924     0.008     2.919     2.672
    21   1 H      0.805     0.284     0.772     1.380
    22   8 O      1.606    -0.621    25.690     6.841
    23   1 H      0.803     0.313     0.682     1.297
    24   1 H      0.805     0.288     0.758     1.367
    25   1 H      0.925     0.041     2.430     2.438
    26   1 H      0.925     0.048     2.339     2.391
    27   6 C      3.800    -0.053    21.523     6.605
    28   1 H      0.924     0.034     2.535     2.490
    29   1 H      0.924     0.031     2.573     2.508
    30   6 C      3.750    -0.103    22.526     6.769
    31   1 H      0.924     0.037     2.485     2.465
    32   1 H      0.924     0.037     2.485     2.465
    33   1 H      0.924     0.035     2.518     2.482

 Mol. C6AA /au·bohr⁶  :       9601.827545
 Mol. C8AA /au·bohr⁸  :     214510.193756
 Mol. α(0) /au        :        151.235881


Wiberg/Mayer (AO) data.
largest (>0.10) Wiberg bond orders for each atom
          total WBO             WBO to atom ...
     1  C   3.988        C    2 1.376    C    6 1.366    C    7 1.088
     2  C   3.987        C    3 1.453    C    1 1.376    H    8 0.968    C    5 0.105
     3  C   3.991        C    2 1.453    C    4 1.435    H   25 0.970    C    6 0.106
     4  C   3.987        C    3 1.435    C    5 1.424    H   10 0.971
     5  C   3.991        C    6 1.465    C    4 1.424    H   26 0.969    C    2 0.105
     6  C   3.988        C    5 1.465    C    1 1.366    H    9 0.960    C    3 0.106
     7  C   3.967        N   11 1.828    C    1 1.088    H   20 0.941
     8  H   0.999        C    2 0.968
     9  H   0.996        C    6 0.960
    10  H   0.998        C    4 0.971
    11  N   3.118        C    7 1.828    C   12 1.018
    12  C   3.983        N   11 1.018    C   14 0.988    H   15 0.966    H   16 0.958
    13  H   0.899        O   22 0.832
    14  C   3.990        C   27 1.006    C   12 0.988    H   18 0.977    H   17 0.975
    15  H   1.000        C   12 0.966
    16  H   0.995        C   12 0.958
    17  H   0.997        C   14 0.975
    18  H   0.999        C   14 0.977
    19  O   1.802        H   21 0.918    H   23 0.856
    20  H   0.999        C    7 0.941
    21  H   0.919        O   19 0.918
    22  O   1.846        H   24 0.914    H   13 0.832
    23  H   0.902        O   19 0.856
    24  H   0.917        O   22 0.914
    25  H   0.998        C    3 0.970
    26  H   0.997        C    5 0.969
    27  C   3.996        C   30 1.019    C   14 1.006    H   29 0.978    H   28 0.978
    28  H   0.999        C   27 0.978
    29  H   0.999        C   27 0.978
    30  C   3.995        C   27 1.019    H   33 0.988    H   31 0.987    H   32 0.987
    31  H   0.999        C   30 0.987
    32  H   0.998        C   30 0.987
    33  H   0.999        C   30 0.988

molecular dipole:
                 x           y           z       tot (Debye)
 q only:        0.123      -1.446       0.352
   full:        0.107      -2.247       0.554       5.889
molecular quadrupole (traceless):
                xx          xy          yy          xz          yz          zz
 q only:       12.498       6.649     -12.115      -1.746       7.530      -0.384
  q+dip:       14.209      10.261     -13.495      -0.947       5.659      -0.714
   full:       13.021      10.438     -14.100      -1.494       8.381       1.079


           -------------------------------------------------
          | TOTAL ENERGY              -44.280543987831 Eh   |
          | GRADIENT NORM               0.025399415821 Eh/α |
          | HOMO-LUMO GAP               3.120140801910 eV   |
           -------------------------------------------------

------------------------------------------------------------------------
 * finished run on 2020/08/28 at 06:15:36.627     
------------------------------------------------------------------------
 total:
 * wall-time:     0 d,  0 h,  0 min,  0.479 sec
 *  cpu-time:     0 d,  0 h,  0 min,  2.374 sec
 * ratio c/w:     4.961 speedup
 SCF:
 * wall-time:     0 d,  0 h,  0 min,  0.236 sec
 *  cpu-time:     0 d,  0 h,  0 min,  1.160 sec
 * ratio c/w:     4.919 speedup


-------------------------   --------------------
FINAL SINGLE POINT ENERGY       -44.280543987830
-------------------------   --------------------


----------------------------------------------------------------------------
                           ORCA NUMERICAL FREQUENCIES
                              (8-process run)
----------------------------------------------------------------------------

Number of atoms                ... 33
Central differences            ... used
Number of displacements        ... 198
Numerical increment            ... 5.000e-03 bohr
IR-spectrum generation         ... on
Raman-spectrum generation      ... off
Surface Crossing Hessian       ... off
List of participating nodes    ...  /tmp/slurm-scratch/freq.168/freq.hostnames

The output will be reduced. Please look at the following files:
SCF program output             ... >/tmp/slurm-scratch/freq.168/freq.lastscf
Integral program output        ... >/tmp/slurm-scratch/freq.168/freq.lastint
Gradient program output        ... >/tmp/slurm-scratch/freq.168/freq.lastgrad
Dipole moment program output   ... >/tmp/slurm-scratch/freq.168/freq.lastmom
AutoCI program output          ... >/tmp/slurm-scratch/freq.168/freq.lastautoci


         <<< Energy and Gradient at the input geometry >>>

        <<< Energy and Gradient at displaced geometries >>>
             <<<Displacing   2/coordinate 1 (+)>>>
             <<<Displacing   2/coordinate 3 (+)>>>
             <<<Displacing   1/coordinate 2 (+)>>>
             <<<Displacing   3/coordinate 2 (+)>>>
             <<<Displacing   1/coordinate 1 (+)>>>
             <<<Displacing   1/coordinate 3 (+)>>>
             <<<Displacing   3/coordinate 1 (+)>>>
             <<<Displacing   2/coordinate 2 (+)>>>
             <<<Displacing   3/coordinate 1 (-)>>>
             <<<Displacing   1/coordinate 1 (-)>>>
             <<<Displacing   1/coordinate 2 (-)>>>
             <<<Displacing   3/coordinate 2 (-)>>>
             <<<Displacing   2/coordinate 1 (-)>>>
             <<<Displacing   2/coordinate 2 (-)>>>
             <<<Displacing   1/coordinate 3 (-)>>>
             <<<Displacing   2/coordinate 3 (-)>>>
             <<<Displacing   3/coordinate 3 (+)>>>
             <<<Displacing   4/coordinate 3 (+)>>>
             <<<Displacing   6/coordinate 1 (+)>>>
             <<<Displacing   3/coordinate 3 (-)>>>
             <<<Displacing   5/coordinate 2 (+)>>>
             <<<Displacing   4/coordinate 3 (-)>>>
             <<<Displacing   6/coordinate 1 (-)>>>
             <<<Displacing   5/coordinate 1 (+)>>>
             <<<Displacing   5/coordinate 2 (-)>>>
             <<<Displacing   5/coordinate 1 (-)>>>
             <<<Displacing   4/coordinate 2 (+)>>>
             <<<Displacing   4/coordinate 2 (-)>>>
             <<<Displacing   5/coordinate 3 (+)>>>
             <<<Displacing   5/coordinate 3 (-)>>>
             <<<Displacing   4/coordinate 1 (+)>>>
             <<<Displacing   4/coordinate 1 (-)>>>
             <<<Displacing   6/coordinate 2 (+)>>>
             <<<Displacing   6/coordinate 3 (+)>>>
             <<<Displacing   7/coordinate 1 (+)>>>
             <<<Displacing   6/coordinate 2 (-)>>>
             <<<Displacing   6/coordinate 3 (-)>>>
             <<<Displacing   7/coordinate 1 (-)>>>
             <<<Displacing   7/coordinate 3 (+)>>>
             <<<Displacing   8/coordinate 1 (+)>>>
             <<<Displacing   7/coordinate 3 (-)>>>
             <<<Displacing   7/coordinate 2 (+)>>>
             <<<Displacing   8/coordinate 1 (-)>>>
             <<<Displacing   7/coordinate 2 (-)>>>
             <<<Displacing   8/coordinate 2 (+)>>>
             <<<Displacing   8/coordinate 2 (-)>>>
             <<<Displacing   8/coordinate 3 (+)>>>
             <<<Displacing   8/coordinate 3 (-)>>>
             <<<Displacing   9/coordinate 1 (+)>>>
             <<<Displacing   9/coordinate 1 (-)>>>
             <<<Displacing   9/coordinate 3 (+)>>>
             <<<Displacing   9/coordinate 3 (-)>>>
             <<<Displacing   9/coordinate 2 (+)>>>
             <<<Displacing   9/coordinate 2 (-)>>>
             <<<Displacing  10/coordinate 1 (+)>>>
             <<<Displacing  10/coordinate 1 (-)>>>
             <<<Displacing  11/coordinate 1 (+)>>>
             <<<Displacing  10/coordinate 3 (+)>>>
             <<<Displacing  11/coordinate 1 (-)>>>
             <<<Displacing  10/coordinate 3 (-)>>>
             <<<Displacing  10/coordinate 2 (+)>>>
             <<<Displacing  10/coordinate 2 (-)>>>
             <<<Displacing  11/coordinate 2 (+)>>>
             <<<Displacing  11/coordinate 2 (-)>>>
             <<<Displacing  11/coordinate 3 (+)>>>
             <<<Displacing  11/coordinate 3 (-)>>>
             <<<Displacing  12/coordinate 1 (+)>>>
             <<<Displacing  12/coordinate 1 (-)>>>
             <<<Displacing  12/coordinate 2 (+)>>>
             <<<Displacing  12/coordinate 2 (-)>>>
             <<<Displacing  13/coordinate 1 (+)>>>
             <<<Displacing  13/coordinate 2 (+)>>>
             <<<Displacing  12/coordinate 3 (+)>>>
             <<<Displacing  13/coordinate 1 (-)>>>
             <<<Displacing  13/coordinate 2 (-)>>>
             <<<Displacing  12/coordinate 3 (-)>>>
             <<<Displacing  13/coordinate 3 (+)>>>
             <<<Displacing  13/coordinate 3 (-)>>>
             <<<Displacing  14/coordinate 1 (+)>>>
             <<<Displacing  14/coordinate 1 (-)>>>
             <<<Displacing  14/coordinate 2 (+)>>>
             <<<Displacing  14/coordinate 2 (-)>>>
             <<<Displacing  14/coordinate 3 (+)>>>
             <<<Displacing  14/coordinate 3 (-)>>>
             <<<Displacing  15/coordinate 1 (+)>>>
             <<<Displacing  15/coordinate 1 (-)>>>
             <<<Displacing  15/coordinate 2 (+)>>>
             <<<Displacing  15/coordinate 3 (+)>>>
             <<<Displacing  15/coordinate 2 (-)>>>
             <<<Displacing  15/coordinate 3 (-)>>>
             <<<Displacing  16/coordinate 2 (+)>>>
             <<<Displacing  16/coordinate 2 (-)>>>
             <<<Displacing  16/coordinate 3 (+)>>>
             <<<Displacing  16/coordinate 3 (-)>>>
             <<<Displacing  16/coordinate 1 (+)>>>
             <<<Displacing  17/coordinate 1 (+)>>>
             <<<Displacing  16/coordinate 1 (-)>>>
             <<<Displacing  17/coordinate 1 (-)>>>
             <<<Displacing  17/coordinate 2 (+)>>>
             <<<Displacing  17/coordinate 3 (+)>>>
             <<<Displacing  17/coordinate 2 (-)>>>
             <<<Displacing  17/coordinate 3 (-)>>>
             <<<Displacing  18/coordinate 1 (+)>>>
             <<<Displacing  18/coordinate 1 (-)>>>
             <<<Displacing  18/coordinate 2 (+)>>>
             <<<Displacing  18/coordinate 2 (-)>>>
             <<<Displacing  18/coordinate 3 (+)>>>
             <<<Displacing  18/coordinate 3 (-)>>>
             <<<Displacing  19/coordinate 1 (+)>>>
             <<<Displacing  19/coordinate 1 (-)>>>
             <<<Displacing  19/coordinate 2 (+)>>>
             <<<Displacing  19/coordinate 2 (-)>>>
             <<<Displacing  19/coordinate 3 (+)>>>
             <<<Displacing  19/coordinate 3 (-)>>>
             <<<Displacing  20/coordinate 2 (+)>>>
             <<<Displacing  20/coordinate 1 (+)>>>
             <<<Displacing  20/coordinate 2 (-)>>>
             <<<Displacing  20/coordinate 1 (-)>>>
             <<<Displacing  20/coordinate 3 (+)>>>
             <<<Displacing  20/coordinate 3 (-)>>>
             <<<Displacing  21/coordinate 1 (+)>>>
             <<<Displacing  21/coordinate 1 (-)>>>
             <<<Displacing  21/coordinate 2 (+)>>>
             <<<Displacing  21/coordinate 2 (-)>>>
             <<<Displacing  21/coordinate 3 (+)>>>
             <<<Displacing  22/coordinate 1 (+)>>>
             <<<Displacing  21/coordinate 3 (-)>>>
             <<<Displacing  22/coordinate 2 (+)>>>
             <<<Displacing  22/coordinate 1 (-)>>>
             <<<Displacing  22/coordinate 2 (-)>>>
             <<<Displacing  22/coordinate 3 (+)>>>
             <<<Displacing  22/coordinate 3 (-)>>>
             <<<Displacing  23/coordinate 1 (+)>>>
             <<<Displacing  23/coordinate 1 (-)>>>
             <<<Displacing  23/coordinate 2 (+)>>>
             <<<Displacing  23/coordinate 2 (-)>>>
             <<<Displacing  24/coordinate 1 (+)>>>
             <<<Displacing  23/coordinate 3 (+)>>>
             <<<Displacing  24/coordinate 1 (-)>>>
             <<<Displacing  23/coordinate 3 (-)>>>
             <<<Displacing  24/coordinate 3 (+)>>>
             <<<Displacing  24/coordinate 3 (-)>>>
             <<<Displacing  25/coordinate 1 (+)>>>
             <<<Displacing  24/coordinate 2 (+)>>>
             <<<Displacing  25/coordinate 1 (-)>>>
             <<<Displacing  24/coordinate 2 (-)>>>
             <<<Displacing  25/coordinate 3 (+)>>>
             <<<Displacing  25/coordinate 3 (-)>>>
             <<<Displacing  25/coordinate 2 (+)>>>
             <<<Displacing  25/coordinate 2 (-)>>>
             <<<Displacing  26/coordinate 1 (+)>>>
             <<<Displacing  26/coordinate 1 (-)>>>
             <<<Displacing  27/coordinate 1 (+)>>>
             <<<Displacing  27/coordinate 1 (-)>>>
             <<<Displacing  27/coordinate 2 (+)>>>
             <<<Displacing  26/coordinate 2 (+)>>>
             <<<Displacing  27/coordinate 3 (+)>>>
             <<<Displacing  26/coordinate 2 (-)>>>
             <<<Displacing  27/coordinate 2 (-)>>>
             <<<Displacing  27/coordinate 3 (-)>>>
             <<<Displacing  26/coordinate 3 (+)>>>
             <<<Displacing  26/coordinate 3 (-)>>>
             <<<Displacing  28/coordinate 1 (+)>>>
             <<<Displacing  28/coordinate 1 (-)>>>
             <<<Displacing  28/coordinate 2 (+)>>>
             <<<Displacing  28/coordinate 2 (-)>>>
             <<<Displacing  28/coordinate 3 (+)>>>
             <<<Displacing  28/coordinate 3 (-)>>>
             <<<Displacing  29/coordinate 1 (+)>>>
             <<<Displacing  29/coordinate 1 (-)>>>
             <<<Displacing  29/coordinate 3 (+)>>>
             <<<Displacing  29/coordinate 3 (-)>>>
             <<<Displacing  30/coordinate 2 (+)>>>
             <<<Displacing  29/coordinate 2 (+)>>>
             <<<Displacing  30/coordinate 2 (-)>>>
             <<<Displacing  30/coordinate 1 (+)>>>
             <<<Displacing  29/coordinate 2 (-)>>>
             <<<Displacing  30/coordinate 1 (-)>>>
             <<<Displacing  31/coordinate 2 (+)>>>
             <<<Displacing  30/coordinate 3 (+)>>>
             <<<Displacing  31/coordinate 1 (+)>>>
             <<<Displacing  31/coordinate 2 (-)>>>
             <<<Displacing  30/coordinate 3 (-)>>>
             <<<Displacing  31/coordinate 1 (-)>>>
             <<<Displacing  31/coordinate 3 (+)>>>
             <<<Displacing  31/coordinate 3 (-)>>>
             <<<Displacing  32/coordinate 1 (+)>>>
             <<<Displacing  32/coordinate 1 (-)>>>
             <<<Displacing  32/coordinate 3 (+)>>>
             <<<Displacing  32/coordinate 3 (-)>>>
             <<<Displacing  33/coordinate 1 (+)>>>
             <<<Displacing  32/coordinate 2 (+)>>>
             <<<Displacing  33/coordinate 1 (-)>>>
             <<<Displacing  32/coordinate 2 (-)>>>
             <<<Displacing  33/coordinate 2 (+)>>>
             <<<Displacing  33/coordinate 2 (-)>>>
             <<<Displacing  33/coordinate 3 (+)>>>
             <<<Displacing  33/coordinate 3 (-)>>>

-----------------------
VIBRATIONAL FREQUENCIES
-----------------------

Scaling factor for frequencies =  1.000000000 (already applied!)

   0:         0.00 cm**-1
   1:         0.00 cm**-1
   2:         0.00 cm**-1
   3:         0.00 cm**-1
   4:         0.00 cm**-1
   5:         0.00 cm**-1
   6:         9.03 cm**-1
   7:        28.01 cm**-1
   8:        38.70 cm**-1
   9:        54.72 cm**-1
  10:        58.66 cm**-1
  11:        73.00 cm**-1
  12:        74.54 cm**-1
  13:       108.46 cm**-1
  14:       119.92 cm**-1
  15:       140.42 cm**-1
  16:       159.54 cm**-1
  17:       167.16 cm**-1
  18:       219.91 cm**-1
  19:       226.09 cm**-1
  20:       267.58 cm**-1
  21:       274.14 cm**-1
  22:       281.73 cm**-1
  23:       314.43 cm**-1
  24:       376.79 cm**-1
  25:       383.40 cm**-1
  26:       412.92 cm**-1
  27:       428.39 cm**-1
  28:       461.74 cm**-1
  29:       472.68 cm**-1
  30:       506.62 cm**-1
  31:       588.09 cm**-1
  32:       622.43 cm**-1
  33:       645.94 cm**-1
  34:       663.88 cm**-1
  35:       697.23 cm**-1
  36:       757.43 cm**-1
  37:       773.06 cm**-1
  38:       825.29 cm**-1
  39:       859.23 cm**-1
  40:       877.29 cm**-1
  41:       905.78 cm**-1
  42:       918.16 cm**-1
  43:       935.17 cm**-1
  44:       940.39 cm**-1
  45:       942.66 cm**-1
  46:       953.50 cm**-1
  47:       983.89 cm**-1
  48:      1021.28 cm**-1
  49:      1067.10 cm**-1
  50:      1071.04 cm**-1
  51:      1100.56 cm**-1
  52:      1114.92 cm**-1
  53:      1125.73 cm**-1
  54:      1144.86 cm**-1
  55:      1177.52 cm**-1
  56:      1185.77 cm**-1
  57:      1210.71 cm**-1
  58:      1219.08 cm**-1
  59:      1255.55 cm**-1
  60:      1267.68 cm**-1
  61:      1274.59 cm**-1
  62:      1276.91 cm**-1
  63:      1295.49 cm**-1
  64:      1324.27 cm**-1
  65:      1356.54 cm**-1
  66:      1368.92 cm**-1
  67:      1422.10 cm**-1
  68:      1427.84 cm**-1
  69:      1453.60 cm**-1
  70:      1470.33 cm**-1
  71:      1498.14 cm**-1
  72:      1504.08 cm**-1
  73:      1506.81 cm**-1
  74:      1510.81 cm**-1
  75:      1539.63 cm**-1
  76:      1559.95 cm**-1
  77:      1560.34 cm**-1
  78:      1566.74 cm**-1
  79:      1666.23 cm**-1
  80:      2881.78 cm**-1
  81:      2899.03 cm**-1
  82:      2942.30 cm**-1
  83:      2944.21 cm**-1
  84:      2959.49 cm**-1
  85:      2967.08 cm**-1
  86:      2978.69 cm**-1
  87:      2982.07 cm**-1
  88:      2986.96 cm**-1
  89:      2997.42 cm**-1
  90:      3025.55 cm**-1
  91:      3048.38 cm**-1
  92:      3058.49 cm**-1
  93:      3064.19 cm**-1
  94:      3073.26 cm**-1
  95:      3114.27 cm**-1
  96:      3286.06 cm**-1
  97:      3561.27 cm**-1
  98:      3581.76 cm**-1


------------
NORMAL MODES
------------

These modes are the cartesian displacements weighted by the diagonal matrix
M(i,i)=1/sqrt(m[i]) where m[i] is the mass of the displaced atom
Thus, these vectors are normalized but *not* orthogonal

                  0          1          2          3          4          5    
      0       0.000000   0.000000   0.000000   0.000000   0.000000   0.000000
      1       0.000000   0.000000   0.000000   0.000000   0.000000   0.000000
      2       0.000000   0.000000   0.000000   0.000000   0.000000   0.000000
      3       0.000000   0.000000   0.000000   0.000000   0.000000   0.000000
      4       0.000000   0.000000   0.000000   0.000000   0.000000   0.000000
      5       0.000000   0.000000   0.000000   0.000000   0.000000   0.000000
      6       0.000000   0.000000   0.000000   0.000000   0.000000   0.000000
      7       0.000000   0.000000   0.000000   0.000000   0.000000   0.000000
      8       0.000000   0.000000   0.000000   0.000000   0.000000   0.000000
      9       0.000000   0.000000   0.000000   0.000000   0.000000   0.000000
     10       0.000000   0.000000   0.000000   0.000000   0.000000   0.000000
     11       0.000000   0.000000   0.000000   0.000000   0.000000   0.000000
     12       0.000000   0.000000   0.000000   0.000000   0.000000   0.000000
     13       0.000000   0.000000   0.000000   0.000000   0.000000   0.000000
     14       0.000000   0.000000   0.000000   0.000000   0.000000   0.000000
     15       0.000000   0.000000   0.000000   0.000000   0.000000   0.000000
     16       0.000000   0.000000   0.000000   0.000000   0.000000   0.000000
     17       0.000000   0.000000   0.000000   0.000000   0.000000   0.000000
     18       0.000000   0.000000   0.000000   0.000000   0.000000   0.000000
     19       0.000000   0.000000   0.000000   0.000000   0.000000   0.000000
     20       0.000000   0.000000   0.000000   0.000000   0.000000   0.000000
     21       0.000000   0.000000   0.000000   0.000000   0.000000   0.000000
     22       0.000000   0.000000   0.000000   0.000000   0.000000   0.000000
     23       0.000000   0.000000   0.000000   0.000000   0.000000   0.000000
     24       0.000000   0.000000   0.000000   0.000000   0.000000   0.000000
     25       0.000000   0.000000   0.000000   0.000000   0.000000   0.000000
     26       0.000000   0.000000   0.000000   0.000000   0.000000   0.000000
     27       0.000000   0.000000   0.000000   0.000000   0.000000   0.000000
     28       0.000000   0.000000   0.000000   0.000000   0.000000   0.000000
     29       0.000000   0.000000   0.000000   0.000000   0.000000   0.000000
     30       0.000000   0.000000   0.000000   0.000000   0.000000   0.000000
     31       0.000000   0.000000   0.000000   0.000000   0.000000   0.000000
     32       0.000000   0.000000   0.000000   0.000000   0.000000   0.000000
     33       0.000000   0.000000   0.000000   0.000000   0.000000   0.000000
     34       0.000000   0.000000   0.000000   0.000000   0.000000   0.000000
     35       0.000000   0.000000   0.000000   0.000000   0.000000   0.000000
     36       0.000000   0.000000   0.000000   0.000000   0.000000   0.000000
     37       0.000000   0.000000   0.000000   0.000000   0.000000   0.000000
     38       0.000000   0.000000   0.000000   0.000000   0.000000   0.000000
     39       0.000000   0.000000   0.000000   0.000000   0.000000   0.000000
     40       0.000000   0.000000   0.000000   0.000000   0.000000   0.000000
     41       0.000000   0.000000   0.000000   0.000000   0.000000   0.000000
     42       0.000000   0.000000   0.000000   0.000000   0.000000   0.000000
     43       0.000000   0.000000   0.000000   0.000000   0.000000   0.000000
     44       0.000000   0.000000   0.000000   0.000000   0.000000   0.000000
     45       0.000000   0.000000   0.000000   0.000000   0.000000   0.000000
     46       0.000000   0.000000   0.000000   0.000000   0.000000   0.000000
     47       0.000000   0.000000   0.000000   0.000000   0.000000   0.000000
     48       0.000000   0.000000   0.000000   0.000000   0.000000   0.000000
     49       0.000000   0.000000   0.000000   0.000000   0.000000   0.000000
     50       0.000000   0.000000   0.000000   0.000000   0.000000   0.000000
     51       0.000000   0.000000   0.000000   0.000000   0.000000   0.000000
     52       0.000000   0.000000   0.000000   0.000000   0.000000   0.000000
     53       0.000000   0.000000   0.000000   0.000000   0.000000   0.000000
     54       0.000000   0.000000   0.000000   0.000000   0.000000   0.000000
     55       0.000000   0.000000   0.000000   0.000000   0.000000   0.000000
     56       0.000000   0.000000   0.000000   0.000000   0.000000   0.000000
     57       0.000000   0.000000   0.000000   0.000000   0.000000   0.000000
     58       0.000000   0.000000   0.000000   0.000000   0.000000   0.000000
     59       0.000000   0.000000   0.000000   0.000000   0.000000   0.000000
     60       0.000000   0.000000   0.000000   0.000000   0.000000   0.000000
     61       0.000000   0.000000   0.000000   0.000000   0.000000   0.000000
     62       0.000000   0.000000   0.000000   0.000000   0.000000   0.000000
     63       0.000000   0.000000   0.000000   0.000000   0.000000   0.000000
     64       0.000000   0.000000   0.000000   0.000000   0.000000   0.000000
     65       0.000000   0.000000   0.000000   0.000000   0.000000   0.000000
     66       0.000000   0.000000   0.000000   0.000000   0.000000   0.000000
     67       0.000000   0.000000   0.000000   0.000000   0.000000   0.000000
     68       0.000000   0.000000   0.000000   0.000000   0.000000   0.000000
     69       0.000000   0.000000   0.000000   0.000000   0.000000   0.000000
     70       0.000000   0.000000   0.000000   0.000000   0.000000   0.000000
     71       0.000000   0.000000   0.000000   0.000000   0.000000   0.000000
     72       0.000000   0.000000   0.000000   0.000000   0.000000   0.000000
     73       0.000000   0.000000   0.000000   0.000000   0.000000   0.000000
     74       0.000000   0.000000   0.000000   0.000000   0.000000   0.000000
     75       0.000000   0.000000   0.000000   0.000000   0.000000   0.000000
     76       0.000000   0.000000   0.000000   0.000000   0.000000   0.000000
     77       0.000000   0.000000   0.000000   0.000000   0.000000   0.000000
     78       0.000000   0.000000   0.000000   0.000000   0.000000   0.000000
     79       0.000000   0.000000   0.000000   0.000000   0.000000   0.000000
     80       0.000000   0.000000   0.000000   0.000000   0.000000   0.000000
     81       0.000000   0.000000   0.000000   0.000000   0.000000   0.000000
     82       0.000000   0.000000   0.000000   0.000000   0.000000   0.000000
     83       0.000000   0.000000   0.000000   0.000000   0.000000   0.000000
     84       0.000000   0.000000   0.000000   0.000000   0.000000   0.000000
     85       0.000000   0.000000   0.000000   0.000000   0.000000   0.000000
     86       0.000000   0.000000   0.000000   0.000000   0.000000   0.000000
     87       0.000000   0.000000   0.000000   0.000000   0.000000   0.000000
     88       0.000000   0.000000   0.000000   0.000000   0.000000   0.000000
     89       0.000000   0.000000   0.000000   0.000000   0.000000   0.000000
     90       0.000000   0.000000   0.000000   0.000000   0.000000   0.000000
     91       0.000000   0.000000   0.000000   0.000000   0.000000   0.000000
     92       0.000000   0.000000   0.000000   0.000000   0.000000   0.000000
     93       0.000000   0.000000   0.000000   0.000000   0.000000   0.000000
     94       0.000000   0.000000   0.000000   0.000000   0.000000   0.000000
     95       0.000000   0.000000   0.000000   0.000000   0.000000   0.000000
     96       0.000000   0.000000   0.000000   0.000000   0.000000   0.000000
     97       0.000000   0.000000   0.000000   0.000000   0.000000   0.000000
     98       0.000000   0.000000   0.000000   0.000000   0.000000   0.000000
                  6          7          8          9         10         11    
      0      -0.045096  -0.036356   0.020493  -0.015385  -0.006896   0.006261
      1       0.018481   0.020795   0.021972   0.025407  -0.026891   0.026016
      2      -0.009178  -0.004636   0.006071   0.025689   0.013423  -0.009503
      3      -0.054919  -0.016245   0.032477  -0.025699  -0.000903  -0.022010
      4      -0.000610   0.029585  -0.024235   0.046774  -0.085472  -0.023687
      5      -0.015794  -0.053093  -0.122951   0.102122  -0.121297  -0.016889
      6      -0.047322  -0.032761   0.020956  -0.017856  -0.006938  -0.002058
      7       0.006690   0.049246  -0.022299  -0.006778  -0.064255  -0.059412
      8       0.027785  -0.092905  -0.168630   0.049747  -0.111531   0.011773
      9      -0.030019  -0.069901  -0.002435   0.002455  -0.020381   0.046099
     10       0.032581   0.056061   0.023304  -0.082819   0.021174  -0.042635
     11       0.078832  -0.088849  -0.090354  -0.085002   0.042342   0.052730
     12      -0.020215  -0.090937  -0.013853   0.014002  -0.026305   0.074798
     13       0.052872   0.047092   0.066285  -0.102500   0.075994   0.005089
     14       0.089214  -0.041232   0.033310  -0.160718   0.172665   0.059451
     15      -0.027461  -0.073329  -0.002262   0.006097  -0.021581   0.053733
     16       0.046577   0.030695   0.067049  -0.048322   0.050605   0.038527
     17       0.047051   0.006519   0.084720  -0.106574   0.152849   0.026020
     18      -0.054362  -0.024394   0.032185  -0.019046   0.001451  -0.010541
     19       0.007921   0.009217   0.016737   0.059053  -0.040799   0.058405
     20      -0.066565   0.025266   0.047608   0.068659   0.026601  -0.024942
     21      -0.068442   0.012996   0.050233  -0.039753   0.007072  -0.060556
     22      -0.021081   0.022067  -0.060756   0.103772  -0.147502  -0.034882
     23      -0.056352  -0.060610  -0.186230   0.203870  -0.233594  -0.045871
     24      -0.019145  -0.092095  -0.009964   0.018461  -0.024642   0.074727
     25       0.061044   0.025605   0.102209  -0.058324   0.089337   0.072326
     26       0.051795   0.057644   0.184051  -0.164454   0.241023   0.027654
     27      -0.024175  -0.082237  -0.011375   0.008356  -0.025281   0.061355
     28       0.036880   0.068094   0.024566  -0.125553   0.043936  -0.066670
     29       0.110285  -0.121396  -0.126150  -0.128847   0.058053   0.078075
     30      -0.042836  -0.030907   0.016097  -0.025028  -0.005957  -0.003493
     31       0.046742  -0.018499   0.026428   0.042050  -0.038961   0.056199
     32      -0.053192   0.011143   0.102479   0.063172   0.051049  -0.047850
     33      -0.056416  -0.022368   0.031743  -0.010680  -0.001045  -0.000160
     34       0.035880  -0.016666   0.000278   0.017956  -0.030600   0.055830
     35      -0.111245   0.038335   0.109289   0.073706   0.076650  -0.033754
     36       0.020920   0.007565   0.017686   0.090729   0.118587  -0.055654
     37       0.092843  -0.088847   0.088056   0.073037  -0.105005   0.034798
     38      -0.033140  -0.116970   0.183804   0.027913  -0.054487  -0.058947
     39       0.034830  -0.029759  -0.069289  -0.093174  -0.027974  -0.070683
     40      -0.063807   0.005208   0.021177   0.002882   0.018613   0.091093
     41       0.108753   0.003972  -0.027150   0.001093  -0.012235  -0.154285
     42      -0.077450  -0.009889   0.055967   0.019464   0.005586   0.016193
     43      -0.083678   0.009465   0.065985   0.059463   0.018048   0.124141
     44      -0.291230   0.075272   0.204090   0.129377   0.150692   0.068749
     45      -0.118110  -0.021398   0.094226   0.030419   0.018985   0.045143
     46       0.237449  -0.058741  -0.121049  -0.061979  -0.110657  -0.063979
     47      -0.138682   0.051243   0.110195   0.074463   0.090162  -0.022220
     48       0.068034  -0.060786  -0.093242  -0.191730  -0.059364  -0.269799
     49       0.048893  -0.027012  -0.035569  -0.054714  -0.040080  -0.041187
     50       0.281799  -0.040950  -0.112496  -0.069409  -0.099322  -0.322341
     51       0.087643  -0.018218  -0.137541  -0.110122  -0.030270  -0.021797
     52      -0.265780   0.063718   0.132810   0.127108   0.122778   0.353915
     53       0.136894  -0.019338  -0.020697  -0.025039  -0.040885  -0.257379
     54       0.145708   0.255463   0.093672   0.088360  -0.065259  -0.016462
     55      -0.126862  -0.036470  -0.201324   0.169299   0.171761  -0.061289
     56      -0.197723   0.204826  -0.063446  -0.111637  -0.156682   0.028228
     57      -0.073349  -0.008097   0.057947  -0.014904   0.016157  -0.030948
     58      -0.038747   0.031556  -0.002670   0.084149  -0.046172   0.073486
     59      -0.132483   0.056521   0.019404   0.104627   0.018776  -0.002207
     60       0.095571   0.491535   0.044786   0.063834  -0.096094  -0.041048
     61      -0.181616  -0.052445  -0.289280   0.190680   0.273365  -0.075730
     62      -0.172836   0.531965   0.017059  -0.177983  -0.360742   0.020446
     63       0.058767   0.060970   0.017740   0.166866   0.164786  -0.092404
     64       0.105228  -0.110763   0.118737   0.087541  -0.127246   0.016923
     65      -0.038800  -0.165873   0.214918   0.004866  -0.102652  -0.058969
     66       0.131274   0.163492   0.077796   0.131647   0.045312  -0.050320
     67      -0.059302  -0.050136  -0.102709   0.144983   0.055557  -0.035188
     68      -0.141939   0.007675   0.029315  -0.062394  -0.090626  -0.001685
     69       0.021686   0.108577  -0.039453   0.141090   0.185945  -0.064661
     70       0.130463  -0.128881   0.155919   0.117170  -0.145096  -0.011243
     71      -0.026605  -0.191558   0.234664   0.004346  -0.106817  -0.061485
     72      -0.054811  -0.015876   0.029998  -0.027444  -0.002323  -0.024656
     73      -0.007963   0.057890  -0.055424   0.008216  -0.108827  -0.097508
     74       0.021400  -0.127661  -0.263555   0.109747  -0.215973   0.004635
     75      -0.008168  -0.124316  -0.033466   0.029072  -0.033197   0.113893
     76       0.072557   0.052903   0.098463  -0.158064   0.139163   0.016561
     77       0.128504  -0.038072   0.089049  -0.260650   0.289046   0.088672
     78       0.010541  -0.009620  -0.051708  -0.028304  -0.006873   0.059348
     79      -0.040356  -0.009415  -0.034355  -0.115365   0.007681  -0.065946
     80       0.049283   0.061244  -0.050860   0.064543   0.055869   0.105817
     81      -0.005065  -0.028642  -0.003087  -0.024475  -0.018071  -0.019971
     82       0.089817  -0.054352  -0.110636  -0.221494  -0.073330  -0.291542
     83       0.024664   0.083466  -0.058705   0.089476   0.082908   0.208096
     84      -0.029247   0.023186  -0.022773   0.079364   0.027616   0.271778
     85      -0.107653   0.013062   0.000335  -0.072250   0.050031   0.037076
     86      -0.059042   0.092775   0.002948   0.114448   0.121712   0.235663
     87       0.055741  -0.007151  -0.133439  -0.108145  -0.015265   0.017235
     88      -0.094980   0.003836  -0.037804  -0.158110   0.045125  -0.071093
     89       0.157635   0.048829  -0.130445   0.031806   0.005010   0.068675
     90       0.071813  -0.026435  -0.155309  -0.190789  -0.033254  -0.130552
     91      -0.044272  -0.011658  -0.065924  -0.188599   0.013175  -0.142633
     92       0.247257   0.025320  -0.176657  -0.002395  -0.049333  -0.024012
     93       0.047212   0.000884  -0.121676  -0.071236  -0.007300   0.080446
     94      -0.084745  -0.002448  -0.074977  -0.234945   0.041486  -0.161318
     95       0.136533   0.076223  -0.151889   0.052314   0.037803   0.194698
     96       0.080208   0.005846  -0.182586  -0.121267  -0.011075   0.071443
     97      -0.196144   0.035273   0.025190  -0.082178   0.108129   0.087592
     98       0.167164   0.035793  -0.119783   0.022079  -0.010445   0.008364
                 12         13         14         15         16         17    
      0      -0.031166  -0.004280   0.021336   0.035640   0.013822  -0.011366
      1      -0.054030   0.036462  -0.081414  -0.084267  -0.068651   0.048148
      2      -0.032265   0.091836  -0.141701   0.058166   0.042140  -0.042420
      3      -0.003972   0.000272   0.033917   0.066568   0.041372  -0.037882
      4       0.018410   0.023702  -0.028037  -0.049397  -0.029510   0.013728
      5       0.023573   0.049772  -0.071465   0.024802   0.025337  -0.024518
      6      -0.021120  -0.007205   0.032948   0.040766   0.015974  -0.014728
      7       0.087687  -0.009945   0.059987   0.004248   0.024064  -0.025181
      8       0.062072  -0.036804   0.064314  -0.005619  -0.005134   0.016332
      9      -0.065864  -0.020299   0.022699  -0.023473  -0.044459   0.038854
     10       0.085378  -0.028361   0.089221   0.014942   0.018415  -0.022360
     11       0.048148  -0.073431   0.115654   0.000063  -0.028955   0.034128
     12      -0.094110  -0.024830   0.009989  -0.058808  -0.076877   0.067616
     13       0.015234  -0.005764   0.015020  -0.023780  -0.020316   0.009699
     14      -0.005095  -0.012730   0.004988   0.029606  -0.007557   0.005961
     15      -0.076083  -0.017347   0.011973  -0.029729  -0.046412   0.040953
     16      -0.055086   0.025905  -0.069939  -0.076496  -0.061777   0.047967
     17      -0.044633   0.069250  -0.123709   0.059823   0.040305  -0.032202
     18      -0.014842  -0.002427   0.024983   0.036887   0.005281  -0.009594
     19      -0.098869   0.041913  -0.090259  -0.080116  -0.066024   0.045596
     20      -0.045148   0.109673  -0.134348   0.065445  -0.002138  -0.028260
     21       0.031552   0.009257   0.046345   0.112769   0.085802  -0.078281
     22       0.021495   0.034627  -0.043609  -0.057143  -0.031037   0.012679
     23       0.036940   0.071644  -0.097103   0.020648   0.031550  -0.035494
     24      -0.096687  -0.021049   0.005444  -0.071863  -0.080648   0.061572
     25      -0.103912   0.040199  -0.115231  -0.121589  -0.097710   0.077447
     26      -0.077509   0.110971  -0.195315   0.092768   0.074984  -0.039540
     27      -0.078509  -0.025943   0.022062  -0.043334  -0.063145   0.055272
     28       0.138138  -0.057984   0.164351   0.053828   0.045986  -0.044821
     29       0.080235  -0.145103   0.234552  -0.020956  -0.062951   0.067841
     30      -0.020667   0.012686   0.000385   0.052828   0.053312  -0.037072
     31      -0.143457  -0.040263   0.037211  -0.039594   0.071048  -0.018202
     32      -0.080204  -0.024293   0.076903   0.066516   0.028458  -0.026397
     33      -0.015780  -0.002274   0.005780   0.049282  -0.021429  -0.001573
     34      -0.116917  -0.020532   0.052926  -0.026725   0.140827  -0.055333
     35      -0.029151  -0.044472   0.120919   0.074443  -0.115279   0.035274
     36       0.039617   0.052317   0.006435  -0.195051   0.087883   0.028465
     37       0.000586  -0.052646  -0.013857   0.147792  -0.017441  -0.032451
     38       0.077719   0.019844   0.059464  -0.189772   0.085170   0.028781
     39      -0.004605  -0.037490  -0.077169   0.011254   0.016814  -0.014493
     40      -0.009307   0.038052   0.102761   0.012751   0.095098  -0.044505
     41      -0.146470  -0.154012  -0.025896  -0.016484  -0.017894   0.008641
     42      -0.012506  -0.026478   0.018948   0.041224  -0.137935   0.054895
     43      -0.042357   0.027895   0.126751   0.014892   0.036478  -0.016346
     44       0.085842   0.038830   0.232841   0.144524  -0.238457   0.076045
     45      -0.008519   0.047179   0.046486   0.079949  -0.010325  -0.010761
     46      -0.230512  -0.093626  -0.082075  -0.101135   0.320878  -0.122269
     47       0.003479  -0.049611   0.137759   0.079045  -0.179773   0.062587
     48      -0.093161  -0.012690  -0.066854   0.023770  -0.042987   0.007488
     49      -0.121413   0.003374   0.053140  -0.018076   0.120634  -0.050835
     50      -0.306842  -0.214149  -0.106145  -0.067965   0.037123  -0.006917
     51       0.060909  -0.069487  -0.151395  -0.026759   0.059719  -0.027035
     52       0.189288   0.093489   0.191056   0.066204   0.057383  -0.035958
     53      -0.240322  -0.151071  -0.009641  -0.010163  -0.031810   0.013500
     54       0.054704  -0.024787   0.019150   0.054684  -0.090730  -0.062166
     55       0.011792  -0.015477  -0.022805   0.096132  -0.004667   0.015621
     56      -0.038600  -0.012433   0.010545  -0.131039  -0.031378  -0.061824
     57       0.002126  -0.014166   0.048819   0.020938  -0.058532   0.026040
     58      -0.067576   0.116802  -0.181382  -0.085631  -0.142683   0.072346
     59      -0.001766   0.215308  -0.263662   0.059210  -0.112599   0.009454
     60       0.028751  -0.025069  -0.019429   0.384845   0.286763   0.463837
     61      -0.011374  -0.013047  -0.005610   0.000040  -0.075508  -0.085332
     62      -0.034427  -0.016605  -0.066786   0.445908   0.565897   0.773855
     63       0.074043   0.044297   0.026557  -0.220963   0.078944   0.038059
     64       0.084573  -0.029652  -0.048595   0.159428  -0.046879  -0.015967
     65       0.147590   0.044975   0.009630  -0.135360   0.052761   0.035868
     66       0.075085  -0.001521   0.020490  -0.016851  -0.087391  -0.087522
     67       0.036173  -0.024880  -0.029274   0.139912  -0.020547   0.004795
     68       0.029292   0.022625   0.003942  -0.228851  -0.041378  -0.123244
     69       0.013077   0.044577   0.030833  -0.293949   0.118843   0.000016
     70       0.178074  -0.011386  -0.080384   0.192993  -0.083483   0.004841
     71       0.129132   0.031327   0.029546  -0.100216   0.047092   0.052658
     72       0.001388  -0.002631   0.040912   0.071155   0.045928  -0.040750
     73       0.142856  -0.023206   0.107931   0.037148   0.063651  -0.054583
     74       0.103944  -0.077766   0.136662  -0.033038  -0.018067   0.036543
     75      -0.131276  -0.034364  -0.002474  -0.103247  -0.120540   0.115436
     76       0.015038  -0.015887   0.029296  -0.016289  -0.022490   0.011611
     77      -0.012877  -0.033363   0.029074   0.033338  -0.021476   0.017132
     78       0.050382  -0.047095  -0.078453   0.006780   0.063210  -0.033692
     79      -0.000409   0.062775   0.071201   0.012912   0.006393  -0.005805
     80       0.089793  -0.153218  -0.072554  -0.036929   0.015292  -0.000066
     81      -0.032853  -0.155113  -0.112732   0.001255   0.080264  -0.043568
     82      -0.184609   0.294974   0.224286   0.055213  -0.073435   0.024808
     83       0.183795  -0.151178  -0.092316  -0.044606   0.025664  -0.002092
     84       0.135239  -0.058321  -0.066645   0.001182   0.146264  -0.068936
     85       0.100658  -0.059879  -0.017777  -0.010899   0.035860  -0.015833
     86       0.245971  -0.363890  -0.229524  -0.076651   0.047507  -0.009560
     87       0.105250   0.109432  -0.047913   0.019993  -0.027017   0.008170
     88       0.123043  -0.057013  -0.070375  -0.017077  -0.047123   0.023033
     89       0.005838   0.142729   0.121073   0.009790  -0.018484   0.011543
     90       0.066383   0.147300  -0.046157   0.034910  -0.135889   0.054481
     91       0.046854   0.072423   0.025382   0.011061  -0.085553   0.036676
     92      -0.124907   0.372343   0.298130   0.057876  -0.060221   0.024288
     93       0.120371   0.088083  -0.050175   0.013186   0.021249  -0.012510
     94       0.147948  -0.014377  -0.092816  -0.011709  -0.145546   0.067503
     95       0.137748   0.127719   0.061111  -0.012890   0.012833   0.002951
     96       0.171143   0.210190  -0.026194   0.022158  -0.037452   0.015175
     97       0.266558  -0.318362  -0.252786  -0.073014   0.047940  -0.012757
     98      -0.056975   0.149090   0.149241   0.020694  -0.033627   0.015736
                 18         19         20         21         22         23    
      0       0.030007   0.013895   0.012783  -0.039607  -0.044434  -0.000896
      1       0.013309  -0.026755  -0.009488   0.040534   0.010615   0.001290
      2       0.030047   0.012221  -0.000625  -0.008895  -0.018487  -0.002633
      3       0.045471   0.029519   0.023454  -0.072825  -0.095431  -0.000090
      4       0.032707  -0.006318  -0.008931   0.043319  -0.085537   0.001431
      5       0.033048   0.008365  -0.024810   0.079027  -0.093467  -0.004153
      6       0.044665   0.020543   0.022799  -0.064761  -0.095237   0.001364
      7       0.022784   0.017692   0.004972  -0.014822  -0.058213   0.000656
      8       0.001622   0.001823  -0.015578   0.052156  -0.006032  -0.000758
      9       0.042048  -0.000457   0.022228  -0.049261  -0.097121   0.005556
     10      -0.010627   0.012058   0.025006  -0.084849   0.024171   0.000048
     11      -0.059610  -0.013519   0.021033  -0.072045   0.144080  -0.000701
     12       0.034525  -0.014432   0.014275  -0.020077  -0.075128   0.006114
     13      -0.001342  -0.006635   0.000853   0.003923  -0.024124   0.000351
     14      -0.017455  -0.004754  -0.001357   0.011417  -0.028698  -0.002069
     15       0.037785  -0.002184   0.016074  -0.033460  -0.079814   0.005092
     16       0.022611  -0.022489  -0.020869   0.083553  -0.049082   0.001892
     17       0.043545   0.017885  -0.022355   0.073973  -0.125609  -0.000853
     18       0.022364   0.008358   0.001940   0.000270  -0.006454  -0.001307
     19      -0.057468  -0.028662   0.018473  -0.074440   0.115839  -0.001824
     20      -0.071289  -0.000872   0.048513  -0.156748   0.128113   0.002647
     21       0.060655   0.050987   0.035178  -0.114459  -0.143069  -0.000236
     22       0.041565  -0.007516  -0.017127   0.071899  -0.113976   0.000712
     23       0.053479   0.011248  -0.036705   0.121072  -0.158931  -0.005517
     24       0.038419  -0.007797   0.015061  -0.021303  -0.087021   0.005681
     25       0.029592  -0.025109  -0.027943   0.120207  -0.091835   0.006556
     26       0.053200   0.034192  -0.035066   0.114414  -0.182769   0.006196
     27       0.037371  -0.007861   0.020915  -0.042401  -0.084633   0.006244
     28      -0.040860   0.022174   0.049567  -0.174755   0.101875  -0.000786
     29      -0.127406  -0.028308   0.055784  -0.189948   0.319172   0.001329
     30       0.004263   0.003168   0.002024  -0.019434   0.025192  -0.004514
     31       0.112154   0.004203  -0.030520   0.032624   0.174232  -0.018740
     32       0.166139   0.040781  -0.015016   0.039890   0.145402  -0.009462
     33      -0.025344   0.016249  -0.019732   0.055218   0.094398  -0.006613
     34      -0.020994  -0.039677  -0.005607  -0.028844   0.040996  -0.009006
     35      -0.085544   0.040151  -0.015109   0.093627   0.035313   0.000325
     36      -0.033224   0.078987   0.002139  -0.009885  -0.005367  -0.074215
     37       0.064914   0.190724  -0.014490   0.036567   0.070851   0.092605
     38       0.108625  -0.184381  -0.027233   0.035678   0.096902   0.146332
     39      -0.132194  -0.034111  -0.012436   0.075623   0.021357   0.007005
     40      -0.136061  -0.051709  -0.018166   0.035860  -0.046785   0.003947
     41      -0.062808  -0.000341   0.020200   0.010722  -0.017844   0.002548
     42      -0.062580   0.045847  -0.040170   0.121831   0.145294  -0.011232
     43      -0.109282  -0.017556  -0.027241   0.039492   0.041966  -0.010023
     44      -0.211992   0.064999  -0.042777   0.179518   0.022469  -0.000260
     45       0.105550   0.046026  -0.023245   0.029377   0.178231  -0.016224
     46       0.100799  -0.085590   0.035921  -0.151251   0.008709   0.001146
     47      -0.202651   0.036458  -0.025824   0.146823  -0.005399   0.003031
     48      -0.164687  -0.033211   0.044828   0.128837  -0.002471   0.011363
     49      -0.128506  -0.067001   0.025844   0.017758  -0.044322   0.000014
     50      -0.046282  -0.025783   0.078476  -0.028081  -0.010027  -0.004815
     51      -0.126113  -0.055163  -0.023760   0.034841  -0.040662   0.011439
     52      -0.119693  -0.018287  -0.102442   0.050394  -0.026817   0.002750
     53      -0.068615   0.002613   0.051426   0.028532   0.012659   0.000386
     54       0.029641  -0.188625  -0.000964  -0.002136   0.002185   0.023844
     55       0.022343  -0.131493  -0.000344  -0.001899  -0.002591   0.015408
     56      -0.015974   0.098153   0.002479   0.002481   0.002967  -0.027506
     57       0.045025   0.011139   0.002813   0.030620  -0.038064   0.004716
     58      -0.291350  -0.060160   0.079472  -0.245138   0.113792   0.009967
     59      -0.402731  -0.044897   0.135430  -0.399744   0.122110   0.018830
     60       0.029070  -0.274038  -0.000701  -0.005358  -0.008001  -0.061031
     61       0.037044  -0.240040  -0.002088   0.000245  -0.010797  -0.105055
     62      -0.040729   0.166779   0.005599  -0.004838   0.003072   0.058615
     63      -0.042312   0.185080   0.001964   0.005780   0.003321  -0.067243
     64      -0.036909   0.231098   0.007084   0.002285  -0.006963   0.003097
     65       0.006802  -0.187031  -0.003001  -0.009181   0.008603   0.043214
     66       0.030052  -0.228964  -0.002333  -0.002228  -0.011737   0.004732
     67       0.011801  -0.018841   0.001296  -0.003562   0.011813   0.145904
     68      -0.033948   0.188598   0.002112   0.000287  -0.006065   0.105778
     69       0.009126   0.406609  -0.023827   0.023912   0.122664   0.782538
     70      -0.147002   0.268504   0.034513  -0.032598  -0.108562  -0.265756
     71       0.045231  -0.401145  -0.001772   0.001476  -0.016089  -0.467517
     72       0.044924   0.031555   0.023865  -0.075701  -0.092839  -0.000573
     73       0.023755   0.035070   0.003568  -0.018911  -0.059338  -0.000851
     74       0.003159   0.003390  -0.021287   0.076514  -0.017146   0.002117
     75       0.023408  -0.036475   0.003875   0.019893  -0.039725   0.007935
     76      -0.013799  -0.009756   0.004471  -0.004667  -0.034026  -0.000014
     77      -0.043001  -0.015280   0.003069   0.003865  -0.038986  -0.002656
     78      -0.141283  -0.046501  -0.049960   0.073286   0.059737   0.003283
     79      -0.070715  -0.022229   0.027369   0.028170  -0.107059   0.010799
     80       0.026053   0.008216  -0.031950  -0.072954  -0.089677   0.002163
     81      -0.235191  -0.066095  -0.062191   0.098375   0.048616   0.007460
     82      -0.077765  -0.008933   0.094765   0.082842  -0.079398   0.016654
     83       0.082138   0.016296  -0.041300  -0.100726  -0.088211  -0.001691
     84      -0.185530  -0.075987  -0.081370   0.069987   0.039658   0.001391
     85      -0.042926  -0.021130  -0.005863  -0.006710  -0.107756   0.006916
     86       0.082611   0.016409  -0.080619  -0.131060  -0.089305  -0.003499
     87       0.057425   0.012461  -0.022338   0.056098   0.215700  -0.009908
     88       0.109809   0.030996   0.003358  -0.038862   0.003972  -0.002311
     89       0.034559   0.011789   0.027450  -0.031190  -0.088351   0.004489
     90       0.117327   0.077766  -0.485943  -0.247816   0.243745  -0.023952
     91       0.076740   0.042260  -0.169087  -0.136953  -0.033082  -0.003244
     92      -0.042951   0.014993  -0.166541  -0.130735  -0.165259   0.006686
     93       0.026361  -0.016834   0.171983   0.184540   0.198925  -0.003451
     94       0.255349   0.098749  -0.235973  -0.216028   0.121135  -0.019285
     95       0.193689   0.010321   0.496966   0.238346   0.081733   0.000505
     96       0.197564   0.025954   0.270616   0.221476   0.359466  -0.015419
     97       0.146090  -0.004309   0.387744   0.188647   0.057988   0.001816
     98      -0.041701   0.012752  -0.197244  -0.160181  -0.169702   0.006359
                 24         25         26         27         28         29    
      0      -0.012138   0.049665   0.001260   0.059212   0.010155  -0.011078
      1       0.035842  -0.110144   0.000942   0.019714   0.009980   0.017394
      2       0.015045  -0.018471   0.000143   0.035975  -0.046288   0.187440
      3      -0.023253   0.073357  -0.000910  -0.004392  -0.017203   0.049532
      4      -0.084810  -0.080080   0.000093  -0.070163   0.003155  -0.009360
      5      -0.198130   0.006658   0.003816   0.032150   0.001411   0.013487
      6      -0.004088   0.046965  -0.001853  -0.029642  -0.013943   0.039422
      7       0.081783   0.057529  -0.002166  -0.056619  -0.012159   0.005361
      8       0.160728   0.078906  -0.001727   0.004818   0.024249  -0.096998
[...]
     19       0.000134  -0.000034   0.000010
     20      -0.000114   0.000042  -0.000010
     21      -0.000157   0.000095   0.000016
     22       0.000461  -0.000211  -0.000143
     23      -0.000234   0.000113   0.000076
     24      -0.001538  -0.000443   0.001412
     25      -0.002830   0.000019  -0.000292
     26       0.002139   0.000370  -0.000968
     27      -0.001359   0.000256   0.000074
     28      -0.000479  -0.000011  -0.000022
     29       0.000312  -0.000003   0.000027
     30       0.000040  -0.000023  -0.000009
     31      -0.000270   0.000095   0.000010
     32       0.000235  -0.000172  -0.000004
     33      -0.000013   0.000068   0.000004
     34       0.000160  -0.000015   0.000000
     35      -0.000122   0.000119  -0.000002
     36      -0.034169   0.023919   0.001367
     37       0.049550  -0.000770  -0.001044
     38      -0.050604   0.034806   0.000951
     39      -0.000071   0.000036  -0.000002
     40      -0.000078   0.000054  -0.000027
     41      -0.000013   0.000040   0.000004
     42       0.000716  -0.000510  -0.000036
     43      -0.001048   0.000114  -0.000029
     44       0.000885  -0.000403   0.000066
     45       0.000270  -0.000994  -0.000045
     46       0.000726  -0.000968  -0.000025
     47       0.000131  -0.000786  -0.000047
     48       0.000603   0.000094  -0.000023
     49       0.000126  -0.000108   0.000108
     50      -0.001055   0.000853  -0.000044
     51       0.000493  -0.000470   0.000037
     52       0.000109  -0.000084   0.000044
     53       0.000730  -0.001077   0.000063
     54       0.049531  -0.001123   0.033206
     55       0.027106  -0.000363  -0.042796
     56      -0.026392   0.000522  -0.026069
     57      -0.000305   0.000068  -0.000090
     58      -0.000928   0.000214  -0.000150
     59       0.000523   0.000044   0.000125
     60       0.004703   0.003608  -0.574603
     61       0.045442  -0.003794   0.682801
     62       0.003463  -0.002133   0.443492
     63       0.002322   0.033773   0.000009
     64      -0.002699   0.029404   0.000227
     65       0.004039   0.040609   0.000227
     66      -0.778504   0.016038   0.048590
     67      -0.463380   0.011165  -0.003625
     68       0.407965  -0.005382  -0.030107
     69      -0.015011  -0.560604  -0.002306
     70      -0.016454  -0.468089  -0.002248
     71      -0.007647  -0.678769  -0.003834
     72      -0.000372   0.000121   0.000090
     73       0.000092  -0.000081  -0.000115
     74      -0.000047   0.000043   0.000076
     75       0.000642  -0.000059  -0.001253
     76      -0.000198  -0.000313  -0.000632
     77       0.000125   0.000180   0.000500
     78      -0.000013   0.000024  -0.000001
     79      -0.000002   0.000003  -0.000007
     80       0.000012   0.000036   0.000006
     81       0.000100  -0.000321   0.000000
     82       0.000075  -0.000214  -0.000003
     83      -0.000244  -0.000374  -0.000018
     84       0.000102  -0.000067   0.000017
     85      -0.000255   0.000031   0.000084
     86       0.000175  -0.000092  -0.000042
     87      -0.000010   0.000008  -0.000001
     88      -0.000024   0.000008  -0.000015
     89       0.000028   0.000009   0.000006
     90       0.000100  -0.000040  -0.000024
     91       0.000044  -0.000014   0.000081
     92      -0.000166   0.000043  -0.000029
     93      -0.000014  -0.000012   0.000010
     94      -0.000081  -0.000003   0.000012
     95      -0.000077  -0.000016  -0.000003
     96       0.000055  -0.000056   0.000014
     97      -0.000038  -0.000049   0.000004
     98      -0.000121  -0.000188   0.000025


-----------
IR SPECTRUM  
-----------

 Mode    freq (cm**-1)   T**2         TX         TY         TZ
-------------------------------------------------------------------
   6:         9.03    0.000000  (  0.000000   0.000000   0.000000)
   7:        28.01    0.000000  (  0.000000   0.000000   0.000000)
   8:        38.70    0.000000  (  0.000000   0.000000   0.000000)
   9:        54.72    0.000000  (  0.000000   0.000000   0.000000)
  10:        58.66    0.000000  (  0.000000   0.000000   0.000000)
  11:        73.00    0.000000  (  0.000000   0.000000   0.000000)
  12:        74.54    0.000000  (  0.000000   0.000000   0.000000)
  13:       108.46    0.000000  (  0.000000   0.000000   0.000000)
  14:       119.92    0.000000  (  0.000000   0.000000   0.000000)
  15:       140.42    0.000000  (  0.000000   0.000000   0.000000)
  16:       159.54    0.000000  (  0.000000   0.000000   0.000000)
  17:       167.16    0.000000  (  0.000000   0.000000   0.000000)
  18:       219.91    0.000000  (  0.000000   0.000000   0.000000)
  19:       226.09    0.000000  (  0.000000   0.000000   0.000000)
  20:       267.58    0.000000  (  0.000000   0.000000   0.000000)
  21:       274.14    0.000000  (  0.000000   0.000000   0.000000)
  22:       281.73    0.000000  (  0.000000   0.000000   0.000000)
  23:       314.43    0.000000  (  0.000000   0.000000   0.000000)
  24:       376.79    0.000000  (  0.000000   0.000000   0.000000)
  25:       383.40    0.000000  (  0.000000   0.000000   0.000000)
  26:       412.92    0.000000  (  0.000000   0.000000   0.000000)
  27:       428.39    0.000000  (  0.000000   0.000000   0.000000)
  28:       461.74    0.000000  (  0.000000   0.000000   0.000000)
  29:       472.68    0.000000  (  0.000000   0.000000   0.000000)
  30:       506.62    0.000000  (  0.000000   0.000000   0.000000)
  31:       588.09    0.000000  (  0.000000   0.000000   0.000000)
  32:       622.43    0.000000  (  0.000000   0.000000   0.000000)
  33:       645.94    0.000000  (  0.000000   0.000000   0.000000)
  34:       663.88    0.000000  (  0.000000   0.000000   0.000000)
  35:       697.23    0.000000  (  0.000000   0.000000   0.000000)
  36:       757.43    0.000000  (  0.000000   0.000000   0.000000)
  37:       773.06    0.000000  (  0.000000   0.000000   0.000000)
  38:       825.29    0.000000  (  0.000000   0.000000   0.000000)
  39:       859.23    0.000000  (  0.000000   0.000000   0.000000)
  40:       877.29    0.000000  (  0.000000   0.000000   0.000000)
  41:       905.78    0.000000  (  0.000000   0.000000   0.000000)
  42:       918.16    0.000000  (  0.000000   0.000000   0.000000)
  43:       935.17    0.000000  (  0.000000   0.000000   0.000000)
  44:       940.39    0.000000  (  0.000000   0.000000   0.000000)
  45:       942.66    0.000000  (  0.000000   0.000000   0.000000)
  46:       953.50    0.000000  (  0.000000   0.000000   0.000000)
  47:       983.89    0.000000  (  0.000000   0.000000   0.000000)
  48:      1021.28    0.000000  (  0.000000   0.000000   0.000000)
  49:      1067.10    0.000000  (  0.000000   0.000000   0.000000)
  50:      1071.04    0.000000  (  0.000000   0.000000   0.000000)
  51:      1100.56    0.000000  (  0.000000   0.000000   0.000000)
  52:      1114.92    0.000000  (  0.000000   0.000000   0.000000)
  53:      1125.73    0.000000  (  0.000000   0.000000   0.000000)
  54:      1144.86    0.000000  (  0.000000   0.000000   0.000000)
  55:      1177.52    0.000000  (  0.000000   0.000000   0.000000)
  56:      1185.77    0.000000  (  0.000000   0.000000   0.000000)
  57:      1210.71    0.000000  (  0.000000   0.000000   0.000000)
  58:      1219.08    0.000000  (  0.000000   0.000000   0.000000)
  59:      1255.55    0.000000  (  0.000000   0.000000   0.000000)
  60:      1267.68    0.000000  (  0.000000   0.000000   0.000000)
  61:      1274.59    0.000000  (  0.000000   0.000000   0.000000)
  62:      1276.91    0.000000  (  0.000000   0.000000   0.000000)
  63:      1295.49    0.000000  (  0.000000   0.000000   0.000000)
  64:      1324.27    0.000000  (  0.000000   0.000000   0.000000)
  65:      1356.54    0.000000  (  0.000000   0.000000   0.000000)
  66:      1368.92    0.000000  (  0.000000   0.000000   0.000000)
  67:      1422.10    0.000000  (  0.000000   0.000000   0.000000)
  68:      1427.84    0.000000  (  0.000000   0.000000   0.000000)
  69:      1453.60    0.000000  (  0.000000   0.000000   0.000000)
  70:      1470.33    0.000000  (  0.000000   0.000000   0.000000)
  71:      1498.14    0.000000  (  0.000000   0.000000   0.000000)
  72:      1504.08    0.000000  (  0.000000   0.000000   0.000000)
  73:      1506.81    0.000000  (  0.000000   0.000000   0.000000)
  74:      1510.81    0.000000  (  0.000000   0.000000   0.000000)
  75:      1539.63    0.000000  (  0.000000   0.000000   0.000000)
  76:      1559.95    0.000000  (  0.000000   0.000000   0.000000)
  77:      1560.34    0.000000  (  0.000000   0.000000   0.000000)
  78:      1566.74    0.000000  (  0.000000   0.000000   0.000000)
  79:      1666.23    0.000000  (  0.000000   0.000000   0.000000)
  80:      2881.78    0.000000  (  0.000000   0.000000   0.000000)
  81:      2899.03    0.000000  (  0.000000   0.000000   0.000000)
  82:      2942.30    0.000000  (  0.000000   0.000000   0.000000)
  83:      2944.21    0.000000  (  0.000000   0.000000   0.000000)
  84:      2959.49    0.000000  (  0.000000   0.000000   0.000000)
  85:      2967.08    0.000000  (  0.000000   0.000000   0.000000)
  86:      2978.69    0.000000  (  0.000000   0.000000   0.000000)
  87:      2982.07    0.000000  (  0.000000   0.000000   0.000000)
  88:      2986.96    0.000000  (  0.000000   0.000000   0.000000)
  89:      2997.42    0.000000  (  0.000000   0.000000   0.000000)
  90:      3025.55    0.000000  (  0.000000   0.000000   0.000000)
  91:      3048.38    0.000000  (  0.000000   0.000000   0.000000)
  92:      3058.49    0.000000  (  0.000000   0.000000   0.000000)
  93:      3064.19    0.000000  (  0.000000   0.000000   0.000000)
  94:      3073.26    0.000000  (  0.000000   0.000000   0.000000)
  95:      3114.27    0.000000  (  0.000000   0.000000   0.000000)
  96:      3286.06    0.000000  (  0.000000   0.000000   0.000000)
  97:      3561.27    0.000000  (  0.000000   0.000000   0.000000)
  98:      3581.76    0.000000  (  0.000000   0.000000   0.000000)

The first frequency considered to be a vibration is 6
The total number of vibrations considered is 93


--------------------------
THERMOCHEMISTRY AT 298.15K
--------------------------

Temperature         ... 298.15 K
Pressure            ... 1.00 atm
Total Mass          ... 197.28 AMU

Throughout the following assumptions are being made:
  (1) The electronic state is orbitally nondegenerate
  (2) There are no thermally accessible electronically excited states
  (3) Hindered rotations indicated by low frequency modes are not
      treated as such but are treated as vibrations and this may
      cause some error
  (4) All equations used are the standard statistical mechanics
      equations for an ideal gas
  (5) All vibrations are strictly harmonic

freq.       9.03  E(vib)   ...       0.58 
freq.      28.01  E(vib)   ...       0.55 
freq.      38.70  E(vib)   ...       0.54 
freq.      54.72  E(vib)   ...       0.52 
freq.      58.66  E(vib)   ...       0.51 
freq.      73.00  E(vib)   ...       0.49 
freq.      74.54  E(vib)   ...       0.49 
freq.     108.46  E(vib)   ...       0.45 
freq.     119.92  E(vib)   ...       0.44 
freq.     140.42  E(vib)   ...       0.41 
freq.     159.54  E(vib)   ...       0.39 
freq.     167.16  E(vib)   ...       0.39 
freq.     219.91  E(vib)   ...       0.33 
freq.     226.09  E(vib)   ...       0.33 
freq.     267.58  E(vib)   ...       0.29 
freq.     274.14  E(vib)   ...       0.28 
freq.     281.73  E(vib)   ...       0.28 
freq.     314.43  E(vib)   ...       0.25 
freq.     376.79  E(vib)   ...       0.21 
freq.     383.40  E(vib)   ...       0.20 
freq.     412.92  E(vib)   ...       0.19 
freq.     428.39  E(vib)   ...       0.18 
freq.     461.74  E(vib)   ...       0.16 
freq.     472.68  E(vib)   ...       0.15 
freq.     506.62  E(vib)   ...       0.14 
freq.     588.09  E(vib)   ...       0.10 
freq.     622.43  E(vib)   ...       0.09 
freq.     645.94  E(vib)   ...       0.09 
freq.     663.88  E(vib)   ...       0.08 
freq.     697.23  E(vib)   ...       0.07 
freq.     757.43  E(vib)   ...       0.06 
freq.     773.06  E(vib)   ...       0.05 
freq.     825.29  E(vib)   ...       0.04 
freq.     859.23  E(vib)   ...       0.04 
freq.     877.29  E(vib)   ...       0.04 
freq.     905.78  E(vib)   ...       0.03 
freq.     918.16  E(vib)   ...       0.03 
freq.     935.17  E(vib)   ...       0.03 
freq.     940.39  E(vib)   ...       0.03 
freq.     942.66  E(vib)   ...       0.03 
freq.     953.50  E(vib)   ...       0.03 
freq.     983.89  E(vib)   ...       0.02 
freq.    1021.28  E(vib)   ...       0.02 
freq.    1067.10  E(vib)   ...       0.02 
freq.    1071.04  E(vib)   ...       0.02 
freq.    1100.56  E(vib)   ...       0.02 
freq.    1114.92  E(vib)   ...       0.01 
freq.    1125.73  E(vib)   ...       0.01 
freq.    1144.86  E(vib)   ...       0.01 
freq.    1177.52  E(vib)   ...       0.01 
freq.    1185.77  E(vib)   ...       0.01 
freq.    1210.71  E(vib)   ...       0.01 
freq.    1219.08  E(vib)   ...       0.01 
freq.    1255.55  E(vib)   ...       0.01 
freq.    1267.68  E(vib)   ...       0.01 
freq.    1274.59  E(vib)   ...       0.01 
freq.    1276.91  E(vib)   ...       0.01 
freq.    1295.49  E(vib)   ...       0.01 
freq.    1324.27  E(vib)   ...       0.01 
freq.    1356.54  E(vib)   ...       0.01 
freq.    1368.92  E(vib)   ...       0.01 
freq.    1422.10  E(vib)   ...       0.00 
freq.    1427.84  E(vib)   ...       0.00 
freq.    1453.60  E(vib)   ...       0.00 
freq.    1470.33  E(vib)   ...       0.00 
freq.    1498.14  E(vib)   ...       0.00 
freq.    1504.08  E(vib)   ...       0.00 
freq.    1506.81  E(vib)   ...       0.00 
freq.    1510.81  E(vib)   ...       0.00 
freq.    1539.63  E(vib)   ...       0.00 
freq.    1559.95  E(vib)   ...       0.00 
freq.    1560.34  E(vib)   ...       0.00 
freq.    1566.74  E(vib)   ...       0.00 
freq.    1666.23  E(vib)   ...       0.00 
freq.    2881.78  E(vib)   ...       0.00 
freq.    2899.03  E(vib)   ...       0.00 
freq.    2942.30  E(vib)   ...       0.00 
freq.    2944.21  E(vib)   ...       0.00 
freq.    2959.49  E(vib)   ...       0.00 
freq.    2967.08  E(vib)   ...       0.00 
freq.    2978.69  E(vib)   ...       0.00 
freq.    2982.07  E(vib)   ...       0.00 
freq.    2986.96  E(vib)   ...       0.00 
freq.    2997.42  E(vib)   ...       0.00 
freq.    3025.55  E(vib)   ...       0.00 
freq.    3048.38  E(vib)   ...       0.00 
freq.    3058.49  E(vib)   ...       0.00 
freq.    3064.19  E(vib)   ...       0.00 
freq.    3073.26  E(vib)   ...       0.00 
freq.    3114.27  E(vib)   ...       0.00 
freq.    3286.06  E(vib)   ...       0.00 
freq.    3561.27  E(vib)   ...       0.00 
freq.    3581.76  E(vib)   ...       0.00 

------------
INNER ENERGY
------------

The inner energy is: U= E(el) + E(ZPE) + E(vib) + E(rot) + E(trans)
    E(el)   - is the total energy from the electronic structure calculation
              = E(kin-el) + E(nuc-el) + E(el-el) + E(nuc-nuc)
    E(ZPE)  - the the zero temperature vibrational energy from the frequency calculation
    E(vib)  - the the finite temperature correction to E(ZPE) due to population
              of excited vibrational states
    E(rot)  - is the rotational thermal energy
    E(trans)- is the translational thermal energy

Summary of contributions to the inner energy U:
Electronic energy                ...    -44.28054399 Eh
Zero point energy                ...      0.27439479 Eh     172.18 kcal/mol
Thermal vibrational correction   ...      0.01575720 Eh       9.89 kcal/mol
Thermal rotational correction    ...      0.00141627 Eh       0.89 kcal/mol
Thermal translational correction ...      0.00141627 Eh       0.89 kcal/mol
-----------------------------------------------------------------------
Total thermal energy                    -43.98755945 Eh


Summary of corrections to the electronic energy:
(perhaps to be used in another calculation)
Total thermal correction                  0.01858974 Eh      11.67 kcal/mol
Non-thermal (ZPE) correction              0.27439479 Eh     172.18 kcal/mol
-----------------------------------------------------------------------
Total correction                          0.29298454 Eh     183.85 kcal/mol


--------
ENTHALPY
--------

The enthalpy is H = U + kB*T
                kB is Boltzmann's constant
Total free energy                 ...    -43.98755945 Eh 
Thermal Enthalpy correction       ...      0.00094421 Eh       0.59 kcal/mol
-----------------------------------------------------------------------
Total Enthalpy                    ...    -43.98661524 Eh


Note: Only C1 symmetry has been detected, increase convergence thresholds 
      if your molecule has a higher symmetry. Symmetry factor of 1.0 is   
      used for the rotational entropy correction. 
 

Note: Rotational entropy computed according to Herzberg 
Infrared and Raman Spectra, Chapter V,1, Van Nostrand Reinhold, 1945 
Point Group:  C1, Symmetry Number:   1  
Rotational constants in cm-1:     0.028755     0.009264     0.007384 

Vibrational entropy computed according to the QRRHO of S. Grimme
Chem.Eur.J. 2012 18 9955


-------
ENTROPY
-------

The entropy contributions are T*S = T*(S(el)+S(vib)+S(rot)+S(trans))
     S(el)   - electronic entropy
     S(vib)  - vibrational entropy
     S(rot)  - rotational entropy
     S(trans)- translational entropy
The entropies will be listed as mutliplied by the temperature to get
units of energy

Electronic entropy                ...      0.00000000 Eh      0.00 kcal/mol
Vibrational entropy               ...      0.02918813 Eh     18.32 kcal/mol
Rotational entropy                ...      0.01571359 Eh      9.86 kcal/mol
Translational entropy             ...      0.01983352 Eh     12.45 kcal/mol
-----------------------------------------------------------------------
Final entropy term                ...      0.06473524 Eh     40.62 kcal/mol

In case the symmetry of your molecule has not been determined correctly
or in case you have a reason to use a different symmetry number we print 
out the resulting rotational entropy values for sn=1,12 :
 --------------------------------------------------------
|  sn= 1 | S(rot)=       0.01571359 Eh      9.86 kcal/mol|
|  sn= 2 | S(rot)=       0.01505913 Eh      9.45 kcal/mol|
|  sn= 3 | S(rot)=       0.01467630 Eh      9.21 kcal/mol|
|  sn= 4 | S(rot)=       0.01440467 Eh      9.04 kcal/mol|
|  sn= 5 | S(rot)=       0.01419399 Eh      8.91 kcal/mol|
|  sn= 6 | S(rot)=       0.01402184 Eh      8.80 kcal/mol|
|  sn= 7 | S(rot)=       0.01387629 Eh      8.71 kcal/mol|
|  sn= 8 | S(rot)=       0.01375022 Eh      8.63 kcal/mol|
|  sn= 9 | S(rot)=       0.01363901 Eh      8.56 kcal/mol|
|  sn=10 | S(rot)=       0.01353953 Eh      8.50 kcal/mol|
|  sn=11 | S(rot)=       0.01344954 Eh      8.44 kcal/mol|
|  sn=12 | S(rot)=       0.01336738 Eh      8.39 kcal/mol|
 --------------------------------------------------------


-------------------
GIBBS FREE ENERGY
-------------------

The Gibbs free energy is G = H - T*S

Total enthalpy                    ...    -43.98661524 Eh 
Total entropy correction          ...     -0.06473524 Eh    -40.62 kcal/mol
-----------------------------------------------------------------------
Final Gibbs free energy         ...    -44.05135048 Eh

For completeness - the Gibbs free energy minus the electronic energy
G-E(el)                           ...      0.22919351 Eh    143.82 kcal/mol


Total Time for Numerical Frequencies  :        82.034 sec
Time for Reference State(s)           :         0.134 sec
Time for Displacements                :        75.186 sec

Timings for individual modules:

Sum of individual times         ...        0.645 sec (=   0.011 min)
XTB module                      ...        0.645 sec (=   0.011 min) 100.0 %
                             ****ORCA TERMINATED NORMALLY****
TOTAL RUN TIME: 0 days 0 hours 1 minutes 23 seconds 560 msec
(SLURM) EXECUTION TIME: 83.608116554 seconds.
