(SLURM) JOB ID:         164

                                 *****************
                                 * O   R   C   A *
                                 *****************

           --- An Ab Initio, DFT and Semiempirical electronic structure package ---

                  #######################################################
                  #                        -***-                        #
                  #          Department of theory and spectroscopy      #
                  #               Directorship: Frank Neese             #
                  #        Max Planck Institute fuer Kohlenforschung    #
                  #                Kaiser Wilhelm Platz 1               #
                  #                 D-45470 Muelheim/Ruhr               #
                  #                      Germany                        #
                  #                                                     #
                  #                  All rights reserved                #
                  #                        -***-                        #
                  #######################################################


                         Program Version 4.2.1 -  RELEASE  -


 With contributions from (in alphabetic order):
   Daniel Aravena         : Magnetic Suceptibility
   Michael Atanasov       : Ab Initio Ligand Field Theory (pilot matlab implementation)
   Alexander A. Auer      : GIAO ZORA, VPT2
   Ute Becker             : Parallelization
   Giovanni Bistoni       : ED, misc. LED, open-shell LED, HFLD
   Martin Brehm           : Molecular dynamics
   Dmytro Bykov           : SCF Hessian
   Vijay G. Chilkuri      : MRCI spin determinant printing, contributions to CSF-ICE
   Dipayan Datta          : RHF DLPNO-CCSD density
   Achintya Kumar Dutta   : EOM-CC, STEOM-CC
   Dmitry Ganyushin       : Spin-Orbit,Spin-Spin,Magnetic field MRCI
   Miquel Garcia          : C-PCM Hessian, Gaussian charge scheme
   Yang Guo               : DLPNO-NEVPT2, CIM, IAO-localization
   Andreas Hansen         : Spin unrestricted coupled pair/coupled cluster methods
   Benjamin Helmich-Paris : CASSCF linear response (MC-RPA)
   Lee Huntington         : MR-EOM, pCC
   Robert Izsak           : Overlap fitted RIJCOSX, COSX-SCS-MP3, EOM
   Christian Kollmar      : KDIIS, OOCD, Brueckner-CCSD(T), CCSD density
   Simone Kossmann        : Meta GGA functionals, TD-DFT gradient, OOMP2, MP2 Hessian
   Martin Krupicka        : AUTO-CI
   Lucas Lang             : DCDCAS
   Dagmar Lenk            : GEPOL surface, SMD
   Dimitrios Liakos       : Extrapolation schemes; Compound Job, initial MDCI parallelization
   Dimitrios Manganas     : Further ROCIS development; embedding schemes
   Dimitrios Pantazis     : SARC Basis sets
   Taras Petrenko         : DFT Hessian,TD-DFT gradient, ASA, ECA, R-Raman, ABS, FL, XAS/XES, NRVS
   Peter Pinski           : DLPNO-MP2, DLPNO-MP2 Gradient
   Christoph Reimann      : Effective Core Potentials
   Marius Retegan         : Local ZFS, SOC
   Christoph Riplinger    : Optimizer, TS searches, QM/MM, DLPNO-CCSD(T), (RO)-DLPNO pert. Triples
   Tobias Risthaus        : Range-separated hybrids, TD-DFT gradient, RPA, STAB
   Michael Roemelt        : Original ROCIS implementation
   Masaaki Saitow         : Open-shell DLPNO-CCSD energy and density
   Barbara Sandhoefer     : DKH picture change effects
   Avijit Sen             : IP-ROCIS
   Kantharuban Sivalingam : CASSCF convergence, NEVPT2, FIC-MRCI
   Bernardo de Souza      : ESD, SOC TD-DFT
   Georgi Stoychev        : AutoAux, RI-MP2 NMR
   Willem Van den Heuvel  : Paramagnetic NMR
   Boris Wezisla          : Elementary symmetry handling
   Frank Wennmohs         : Technical directorship


 We gratefully acknowledge several colleagues who have allowed us to
 interface, adapt or use parts of their codes:
   Stefan Grimme, W. Hujo, H. Kruse,             : VdW corrections, initial TS optimization,
                  C. Bannwarth                     DFT functionals, gCP, sTDA/sTD-DF
   Ed Valeev, F. Pavosevic, A. Kumar             : LibInt (2-el integral package), F12 methods
   Garnet Chan, S. Sharma, J. Yang, R. Olivares  : DMRG
   Ulf Ekstrom                                   : XCFun DFT Library
   Mihaly Kallay                                 : mrcc  (arbitrary order and MRCC methods)
   Andreas Klamt, Michael Diedenhofen            : otool_cosmo (COSMO solvation model)
   Jiri Pittner, Ondrej Demel                    : Mk-CCSD
   Frank Weinhold                                : gennbo (NPA and NBO analysis)
   Christopher J. Cramer and Donald G. Truhlar   : smd solvation model
   Lars Goerigk                                  : TD-DFT with DH, B97 family of functionals
   V. Asgeirsson, H. Jonsson                     : NEB implementation
   FAccTs GmbH                                   : IRC, NEB, NEB-TS, Multilevel, MM, QM/MM, CI optimization
   S Lehtola, MJT Oliveira, MAL Marques          : LibXC Library


 Your calculation uses the libint2 library for the computation of 2-el integrals
 For citations please refer to: http://libint.valeyev.net

 Your ORCA version has been built with support for libXC version: 4.2.3
 For citations please refer to: https://tddft.org/programs/libxc/

 This ORCA versions uses:
   CBLAS   interface :  Fast vector & matrix operations
   LAPACKE interface :  Fast linear algebra routines
   SCALAPACK package :  Parallel linear algebra routines




***************************************
The coordinates will be read from file: init.xyz
***************************************


Your calculation utilizes the SMD solvation module
Please cite in your paper:
A.V. Marenich, C.J. Cramer, D.G. Truhlar J. Phys. Chem. B, 113, (2009), 6378 

Your calculation utilizes the semiempirical GFN2-xTB method
Please cite in your paper:
C. Bannwarth, Ehlert S., S. Grimme,  J. Chem. Theory Comput., 15, (2019), 1652.
   

----- Orbital basis set information -----
Your calculation utilizes the basis: def2-SVP
   F. Weigend and R. Ahlrichs, Phys. Chem. Chem. Phys. 7, 3297 (2005).

================================================================================
                                        WARNINGS
                       Please study these warnings very carefully!
================================================================================

WARNING: Gradients needed for Numerical Frequencies
  ===> : Setting RunTyp to EnGrad

WARNING: The environment variable RSH_COMMAND is not set!
  ===> : All Displacements for the Numerical Hessian calculation
         will be started on localhost

WARNING: Found dipole moment calculation with XTB calculation
  ===> : Switching off dipole moment calculation


INFO   : the flag for use of LIBINT has been found!

================================================================================
                                       INPUT FILE
================================================================================
NAME = /tmp/slurm-scratch/freq.164/freq.inp
|  1> ! XTB2 NumFreq
|  2> %maxcore 1450
|  3> 
|  4> * xyzfile 0 1 init.xyz
|  5> 
|  6> %cpcm
|  7>  smd true
|  8>  smdsolvent "ch2cl2"
|  9> end
| 10> %pal nprocs 8 end
| 11> 
| 12>                          ****END OF INPUT****
================================================================================

                     *******************************
                     * Energy+Gradient Calculation *
                     *******************************

      -----------------------------------------------------------      
     |                   =====================                   |     
     |                           x T B                           |     
     |                   =====================                   |     
     |                         S. Grimme                         |     
     |          Mulliken Center for Theoretical Chemistry        |     
     |                    University of Bonn                     |     
      -----------------------------------------------------------      

   * xtb version 6.3.0 (preview) compiled by 'ehlert@majestix' on 2020-01-15

   This program is distributed in the hope that it will be useful,
   but WITHOUT ANY WARRANTY; without even the implied warranty of
   MERCHANTABILITY or FITNESS FOR A PARTICULAR PURPOSE.
   
   FOR NON-COMMERCIAL, ACADEMIA USE ONLY.
   
   Cite this work as:
   * S. Grimme, C. Bannwarth, P. Shushkov, J. Chem. Theory Comput., 2017,
     13, 1989-2009. DOI: 10.1021/acs.jctc.7b00118
   * C. Bannwarth, S. Ehlert and S. Grimme., J. Chem. Theory Comput., 2019,
     15, 1652-1671. DOI: 10.1021/acs.jctc.8b01176
   * P. Pracht, E. Caldeweyher, S. Ehlert, S. Grimme, ChemRxiv, 2019, preprint.
     DOI: 10.26434/chemrxiv.8326202.v1
   * S. Grimme, S. Spicher unpublished
   
   for DFT-D4:
   * E. Caldeweyher, C. Bannwarth and S. Grimme, J. Chem. Phys., 2017,
     147, 034112. DOI: 10.1063/1.4993215
   * E. Caldeweyher, S. Ehlert, A. Hansen, H. Neugebauer, S. Spicher,
     C. Bannwarth and S. Grimme, J. Chem. Phys., 2019, 150, 154122.
     DOI: 10.1063/1.5090222
   
   for sTDA-xTB:
   * S. Grimme and C. Bannwarth, J. Chem. Phys., 2016, 145, 054103.
     DOI: 10.1063/1.4959605
   
   in the mass-spec context:
   * V. Asgeirsson, C. Bauer and S. Grimme, Chem. Sci., 2017, 8, 4879.
     DOI: 10.1039/c7sc00601b
   
   for metadynamics refer to:
   * S. Grimme, J. Chem. Theory Comput., 2019, 155, 2847-2862
     DOI: 10.1021/acs.jctc.9b00143
   
   with help from (in alphabetical order)
   C. Bannwarth, F. Bohle, G. Brandenburg, E. Caldeweyher, M. Checinski,
   S. Dohm, S. Ehlert, S. Ehrlich, F. März, H. Neugebauer, J. Pisarek,
   P. Pracht, P. Shushkov, and S. Spicher.
   
 * started run on 2020/08/27 at 21:15:04.937     

           -------------------------------------------------
          |                Calculation Setup                |
           -------------------------------------------------

          program call               : /opt/orca/otool_xtb /tmp/slurm-scratch/freq.164/freq_XTB.xyz --grad -c 0 -u 0 -P 8 --namespace /tmp/slurm-scratch/freq.164/freq --gbsa CH2Cl2
          hostname                   : headnode-pbs
          calculation namespace      : /tmp/slurm-scratch/freq.164/freq
          coordinate file            : /tmp/slurm-scratch/freq.164/freq_XTB.xyz
          omp threads                :                     8
          number of atoms            :                    33
          number of electrons        :                    80
          charge                     :                     0
          spin                       :                   0.0
          first test random number   :      0.25276182241959


molecular fragmentation (1/2 indicates fragments):
111111111222222221112222222112222
# atoms in fragment 1/2:    14    19
 fragment masses (1/2) :      106.12       91.15
CMA distance (Bohr)    :   9.031
constraining FC (au)   :  0.0500

########################################################################
# WARNING! Please study the warnings concerning your input carefully
#  - Process number higher than OMP_NUM_THREADS, I hope you know what you are doing.
########################################################################

           ------------------------------------------------- 
          |                 G F N 2 - x T B                 |
          | Geometry, Frequencies, Noncovalent interactions |
          |            JCTC 2019 parametrisation            |
           ------------------------------------------------- 
             k(s)              :                1.8500
             k(p)              :                2.2300
             k(d)              :                2.2300
             k(f)              :                2.0000
             kEN (H0ij)        :               -2.0000
             D4 a1             :                0.5200
             D4 a2             :                5.0000
             D4 s6             :                1.0000
             D4 s8             :                2.7000
             D4 s9             :                5.0000
             alphaj            :                2.0000

  Z AO/shell   Hii/eV     exponent
  1     Wed Apr 25 08:07:45 CEST 2018   EN: 2.200 GM2: 0.406  GM3: 0.0800  RAES: 1.40
     1s    -10.707211    1.230000
  6     Wed Apr 25 08:07:45 CEST 2018   EN: 2.550 GM2: 0.538  GM3: 0.1500  RAES: 3.00
     2s    -13.970922    2.096432
     2p    -10.063292    1.800000
  7     Wed Apr 25 08:07:45 CEST 2018   EN: 3.040 GM2: 0.461  GM3:-0.0640  RAES: 1.90
     2s    -16.686243    2.339881
     2p    -12.523956    2.014332
  8     Wed Apr 25 08:07:45 CEST 2018   EN: 3.440 GM2: 0.452  GM3:-0.0517  RAES: 1.80
     2s    -20.229985    2.439742
     2p    -15.503117    2.137023

 Solvent             : CH2Cl2
 Using internal parameter file: .param_gbsa2_CH2Cl2
 Gsolv ref. state (COSMO-RS): gsolv [1 M gas/solution]
 temperature (mdtemp)       :    298.150000000000     
 dielectric constant        :    8.93000000000000     
 rho                        :    1.33000000000000     
 mass                       :    84.9300000000000     
 surface tension            :    15.5689454083859     
 probe radius               :   0.719875900000000     
 Gshift (Eh)                :   4.440829173451759E-003
 c1                         :    1.49173776000000     
 soset                      :   0.000000000000000E+000
 HB correction              :  F
           ------------------------------------------------- 
          |        Self-Consistent Charge Iterations        |
           ------------------------------------------------- 

          ...................................................
          :                      SETUP                      :
          :.................................................:
          :  # basis functions                  75          :
          :  # atomic orbitals                  75          :
          :  # shells                           47          :
          :  # electrons                        80          :
          :  max. iterations                   250          :
          :  Hamiltonian                  GFN2-xTB          :
          :  GBSA solvation                   true          :
          :  PC potential                    false          :
          :  electronic temp.          300.0000000     K    :
          :  accuracy                    1.0000000          :
          :  -> integral cutoff          0.2500000E+02      :
          :  -> integral neglect         0.1000000E-07      :
          :  -> SCF convergence          0.1000000E-05 Eh   :
          :  -> wf. convergence          0.1000000E-03 e    :
          :  Broyden damping             0.4000000          :
          ...................................................
  Checking positiv definite overlap ...  done.
 

 iter      E             dE          RMSdq      gap      omega  full diag
   1    -44.8053227 -0.448053E+02  0.383E+00    2.35       0.0  T
   2    -44.8636266 -0.583039E-01  0.206E+00    2.12       1.0  T
   3    -44.8635686  0.580535E-04  0.993E-01    2.27       1.0  T
   4    -44.8691797 -0.561117E-02  0.201E-01    2.08       1.0  T
   5    -44.8697486 -0.568905E-03  0.732E-02    2.10       1.0  T
   6    -44.8698011 -0.524993E-04  0.372E-02    2.11       1.0  T
   7    -44.8698147 -0.136049E-04  0.131E-02    2.11       1.3  T
   8    -44.8698153 -0.564044E-06  0.406E-03    2.11       4.3  T
   9    -44.8698154 -0.132997E-06  0.171E-03    2.11      10.2  T
  10    -44.8698155 -0.219327E-07  0.869E-04    2.11      20.0  T
  11    -44.8698155 -0.348112E-08  0.369E-04    2.11      47.2  T

   *** convergence criteria satisfied after 11 iterations ***

         #    Occupation            Energy/Eh            Energy/eV
      -------------------------------------------------------------
         1        2.0000           -0.7170373             -19.5116
       ...           ...                  ...                  ...
        34        2.0000           -0.4348508             -11.8329
        35        2.0000           -0.4315773             -11.7438
        36        2.0000           -0.4244233             -11.5491
        37        2.0000           -0.4192674             -11.4088
        38        2.0000           -0.4162224             -11.3260
        39        2.0000           -0.4063161             -11.0564
        40        2.0000           -0.3734719             -10.1627 (HOMO)
        41                         -0.2958660              -8.0509 (LUMO)
        42                         -0.2353498              -6.4042
        43                         -0.2037272              -5.5437
        44                         -0.0962518              -2.6191
        45                          0.0234491               0.6381
       ...                                ...                  ...
        75                          0.6490672              17.6620
      -------------------------------------------------------------
                  HL-Gap            0.0776059 Eh            2.1118 eV
             Fermi-level           -0.3346690 Eh           -9.1068 eV

 SCC (total)                   0 d,  0 h,  0 min,  0.198 sec
 SCC setup                      ...        0 min,  0.005 sec (  2.596%)
 Dispersion                     ...        0 min,  0.001 sec (  0.750%)
 integral evaluation            ...        0 min,  0.013 sec (  6.448%)
 zeroth order Hamiltonian       ...        0 min,  0.000 sec (  0.006%)
 iterations                     ...        0 min,  0.170 sec ( 85.991%)
 molecular gradient             ...        0 min,  0.007 sec (  3.728%)
 printout                       ...        0 min,  0.001 sec (  0.463%)

         :::::::::::::::::::::::::::::::::::::::::::::::::::::
         ::                     SUMMARY                     ::
         :::::::::::::::::::::::::::::::::::::::::::::::::::::
         :: total energy             -44.264205791988 Eh    ::
         :: total w/o Gsasa/hb       -44.246259462413 Eh    ::
         :: gradient norm              0.023575706807 Eh/a0 ::
         :: HOMO-LUMO gap              2.111764924924 eV    ::
         ::.................................................::
         :: SCC energy               -44.887761795025 Eh    ::
         :: -> isotropic ES            0.079006144200 Eh    ::
         :: -> anisotropic ES          0.000353449523 Eh    ::
         :: -> anisotropic XC          0.024817055228 Eh    ::
         :: -> dispersion             -0.025051864610 Eh    ::
         :: -> Gsolv                  -0.025794569564 Eh    ::
         ::    -> Gborn               -0.007848239988 Eh    ::
         ::    -> Gsasa               -0.022387158749 Eh    ::
         ::    -> Ghb                  0.000000000000 Eh    ::
         ::    -> Gshift               0.004440829173 Eh    ::
         :: repulsion energy           0.623368018946 Eh    ::
         :: add. restraining           0.000000000000 Eh    ::
         :::::::::::::::::::::::::::::::::::::::::::::::::::::

           -------------------------------------------------
          |                Property Printout                |
           -------------------------------------------------

    * Orbital Energies and Occupations

         #    Occupation            Energy/Eh            Energy/eV
      -------------------------------------------------------------
         1        2.0000           -0.7170373             -19.5116
       ...           ...                  ...                  ...
        28        2.0000           -0.4804889             -13.0748
        29        2.0000           -0.4659637             -12.6795
        30        2.0000           -0.4491215             -12.2212
        31        2.0000           -0.4486688             -12.2089
        32        2.0000           -0.4460457             -12.1375
        33        2.0000           -0.4371977             -11.8968
        34        2.0000           -0.4348508             -11.8329
        35        2.0000           -0.4315773             -11.7438
        36        2.0000           -0.4244233             -11.5491
        37        2.0000           -0.4192674             -11.4088
        38        2.0000           -0.4162224             -11.3260
        39        2.0000           -0.4063161             -11.0564
        40        2.0000           -0.3734719             -10.1627 (HOMO)
        41                         -0.2958660              -8.0509 (LUMO)
        42                         -0.2353498              -6.4042
        43                         -0.2037272              -5.5437
        44                         -0.0962518              -2.6191
        45                          0.0234491               0.6381
        46                          0.0772366               2.1017
        47                          0.0878178               2.3896
        48                          0.0926291               2.5206
        49                          0.1102015               2.9987
        50                          0.1173450               3.1931
        51                          0.1290652               3.5120
       ...                                ...                  ...
        75                          0.6490672              17.6620
      -------------------------------------------------------------
                  HL-Gap            0.0776059 Eh            2.1118 eV
             Fermi-level           -0.3346690 Eh           -9.1068 eV

     #   Z        covCN         q      C6AA      α(0)
     1   6 C      2.913    -0.024    28.602     8.770
     2   6 C      2.922    -0.021    28.531     8.759
     3   6 C      2.968    -0.008    28.208     8.712
     4   6 C      2.918    -0.012    28.320     8.727
     5   6 C      2.914    -0.024    28.613     8.771
     6   6 C      2.917    -0.016    28.414     8.741
     7   1 H      0.925     0.053     2.277     2.360
     8   1 H      0.926     0.058     2.222     2.331
     9   1 H      0.925     0.054     2.266     2.354
    10   7 N      2.629    -0.374    29.649     8.087
    11   1 H      0.860     0.157     1.352     1.822
    12   6 C      3.731     0.024    20.263     6.426
    13   1 H      0.923     0.004     2.983     2.701
    14   1 H      0.924     0.032     2.561     2.503
    15   1 H      0.860     0.142     1.456     1.890
    16   1 H      0.805     0.288     0.757     1.366
    17   1 H      0.804     0.312     0.685     1.300
    18   6 C      2.768     0.214    23.481     7.936
    19   1 H      0.923     0.035     2.523     2.484
    20   8 O      0.856    -0.410    21.885     6.272
    21   6 C      3.802    -0.063    21.715     6.634
    22   1 H      0.924     0.040     2.452     2.449
    23   1 H      0.924     0.034     2.536     2.491
    24   8 O      1.609    -0.614    25.525     6.819
    25   6 C      3.800    -0.053    21.526     6.606
    26   1 H      0.924     0.030     2.591     2.517
    27   1 H      0.924     0.031     2.578     2.511
    28   1 H      0.925     0.052     2.301     2.372
    29   1 H      0.925     0.054     2.272     2.357
    30   6 C      3.749    -0.102    22.509     6.766
    31   1 H      0.924     0.036     2.498     2.471
    32   1 H      0.924     0.036     2.502     2.473
    33   1 H      0.924     0.035     2.512     2.479

 Mol. C6AA /au·bohr⁶  :       9601.032094
 Mol. C8AA /au·bohr⁸  :     213698.657478
 Mol. α(0) /au        :        151.257089


Wiberg/Mayer (AO) data.
largest (>0.10) Wiberg bond orders for each atom
          total WBO             WBO to atom ...
     1  C   3.991        C    2 1.460    C    6 1.429    H   29 0.969    C    4 0.104
     2  C   3.989        C    1 1.460    C    3 1.364    H    7 0.966    C    5 0.104
     3  C   3.989        C    2 1.364    C    4 1.361    C   18 1.082
     4  C   3.988        C    5 1.464    C    3 1.361    H    8 0.965    C    1 0.104
     5  C   3.991        C    4 1.464    C    6 1.424    H   28 0.969    C    2 0.104
     6  C   3.987        C    1 1.429    C    5 1.424    H    9 0.970
     7  H   0.997        C    2 0.966
     8  H   0.997        C    4 0.965
     9  H   0.997        C    6 0.970
    10  N   3.014        C   12 1.018    H   15 0.966    H   11 0.951
    11  H   0.975        N   10 0.951
    12  C   3.984        N   10 1.018    C   21 1.006    H   14 0.975    H   13 0.970
    13  H   1.000        C   12 0.970
    14  H   0.999        C   12 0.975
    15  H   0.980        N   10 0.966
    16  H   0.917        O   24 0.916
    17  H   0.902        O   24 0.865
    18  C   3.907        O   20 1.780    C    3 1.082    H   19 0.936
    19  H   0.998        C   18 0.936
    20  O   2.037        C   18 1.780
    21  C   3.996        C   25 1.007    C   12 1.006    H   23 0.976    H   22 0.976
    22  H   0.998        C   21 0.976
    23  H   0.999        C   21 0.976
    24  O   1.822        H   16 0.916    H   17 0.865
    25  C   3.997        C   30 1.020    C   21 1.007    H   27 0.978    H   26 0.978
    26  H   0.999        C   25 0.978
    27  H   0.999        C   25 0.978
    28  H   0.997        C    5 0.969
    29  H   0.997        C    1 0.969
    30  C   3.996        C   25 1.020    H   33 0.988    H   32 0.988    H   31 0.987
    31  H   0.998        C   30 0.987
    32  H   0.999        C   30 0.988
    33  H   0.999        C   30 0.988

molecular dipole:
                 x           y           z       tot (Debye)
 q only:       -0.288       0.921      -0.876
   full:       -0.491       0.637      -0.695       2.701
molecular quadrupole (traceless):
                xx          xy          yy          xz          yz          zz
 q only:        4.162       1.387      -2.262      -4.776      -3.282      -1.900
  q+dip:        3.525       2.820      -1.307      -4.996      -6.516      -2.218
   full:        2.867       4.460      -0.147      -4.263      -4.932      -2.720

           -------------------------------------------------
          |                Property Printout                |
           -------------------------------------------------

    * Orbital Energies and Occupations

         #    Occupation            Energy/Eh            Energy/eV
      -------------------------------------------------------------
         1        2.0000           -0.7170373             -19.5116
       ...           ...                  ...                  ...
        28        2.0000           -0.4804889             -13.0748
        29        2.0000           -0.4659637             -12.6795
        30        2.0000           -0.4491215             -12.2212
        31        2.0000           -0.4486688             -12.2089
        32        2.0000           -0.4460457             -12.1375
        33        2.0000           -0.4371977             -11.8968
        34        2.0000           -0.4348508             -11.8329
        35        2.0000           -0.4315773             -11.7438
        36        2.0000           -0.4244233             -11.5491
        37        2.0000           -0.4192674             -11.4088
        38        2.0000           -0.4162224             -11.3260
        39        2.0000           -0.4063161             -11.0564
        40        2.0000           -0.3734719             -10.1627 (HOMO)
        41                         -0.2958660              -8.0509 (LUMO)
        42                         -0.2353498              -6.4042
        43                         -0.2037272              -5.5437
        44                         -0.0962518              -2.6191
        45                          0.0234491               0.6381
        46                          0.0772366               2.1017
        47                          0.0878178               2.3896
        48                          0.0926291               2.5206
        49                          0.1102015               2.9987
        50                          0.1173450               3.1931
        51                          0.1290652               3.5120
       ...                                ...                  ...
        75                          0.6490672              17.6620
      -------------------------------------------------------------
                  HL-Gap            0.0776059 Eh            2.1118 eV
             Fermi-level           -0.3346690 Eh           -9.1068 eV

     #   Z        covCN         q      C6AA      α(0)
     1   6 C      2.913    -0.024    28.602     8.770
     2   6 C      2.922    -0.021    28.531     8.759
     3   6 C      2.968    -0.008    28.208     8.712
     4   6 C      2.918    -0.012    28.320     8.727
     5   6 C      2.914    -0.024    28.613     8.771
     6   6 C      2.917    -0.016    28.414     8.741
     7   1 H      0.925     0.053     2.277     2.360
     8   1 H      0.926     0.058     2.222     2.331
     9   1 H      0.925     0.054     2.266     2.354
    10   7 N      2.629    -0.374    29.649     8.087
    11   1 H      0.860     0.157     1.352     1.822
    12   6 C      3.731     0.024    20.263     6.426
    13   1 H      0.923     0.004     2.983     2.701
    14   1 H      0.924     0.032     2.561     2.503
    15   1 H      0.860     0.142     1.456     1.890
    16   1 H      0.805     0.288     0.757     1.366
    17   1 H      0.804     0.312     0.685     1.300
    18   6 C      2.768     0.214    23.481     7.936
    19   1 H      0.923     0.035     2.523     2.484
    20   8 O      0.856    -0.410    21.885     6.272
    21   6 C      3.802    -0.063    21.715     6.634
    22   1 H      0.924     0.040     2.452     2.449
    23   1 H      0.924     0.034     2.536     2.491
    24   8 O      1.609    -0.614    25.525     6.819
    25   6 C      3.800    -0.053    21.526     6.606
    26   1 H      0.924     0.030     2.591     2.517
    27   1 H      0.924     0.031     2.578     2.511
    28   1 H      0.925     0.052     2.301     2.372
    29   1 H      0.925     0.054     2.272     2.357
    30   6 C      3.749    -0.102    22.509     6.766
    31   1 H      0.924     0.036     2.498     2.471
    32   1 H      0.924     0.036     2.502     2.473
    33   1 H      0.924     0.035     2.512     2.479

 Mol. C6AA /au·bohr⁶  :       9601.032094
 Mol. C8AA /au·bohr⁸  :     213698.657478
 Mol. α(0) /au        :        151.257089


Wiberg/Mayer (AO) data.
largest (>0.10) Wiberg bond orders for each atom
          total WBO             WBO to atom ...
     1  C   3.991        C    2 1.460    C    6 1.429    H   29 0.969    C    4 0.104
     2  C   3.989        C    1 1.460    C    3 1.364    H    7 0.966    C    5 0.104
     3  C   3.989        C    2 1.364    C    4 1.361    C   18 1.082
     4  C   3.988        C    5 1.464    C    3 1.361    H    8 0.965    C    1 0.104
     5  C   3.991        C    4 1.464    C    6 1.424    H   28 0.969    C    2 0.104
     6  C   3.987        C    1 1.429    C    5 1.424    H    9 0.970
     7  H   0.997        C    2 0.966
     8  H   0.997        C    4 0.965
     9  H   0.997        C    6 0.970
    10  N   3.014        C   12 1.018    H   15 0.966    H   11 0.951
    11  H   0.975        N   10 0.951
    12  C   3.984        N   10 1.018    C   21 1.006    H   14 0.975    H   13 0.970
    13  H   1.000        C   12 0.970
    14  H   0.999        C   12 0.975
    15  H   0.980        N   10 0.966
    16  H   0.917        O   24 0.916
    17  H   0.902        O   24 0.865
    18  C   3.907        O   20 1.780    C    3 1.082    H   19 0.936
    19  H   0.998        C   18 0.936
    20  O   2.037        C   18 1.780
    21  C   3.996        C   25 1.007    C   12 1.006    H   23 0.976    H   22 0.976
    22  H   0.998        C   21 0.976
    23  H   0.999        C   21 0.976
    24  O   1.822        H   16 0.916    H   17 0.865
    25  C   3.997        C   30 1.020    C   21 1.007    H   27 0.978    H   26 0.978
    26  H   0.999        C   25 0.978
    27  H   0.999        C   25 0.978
    28  H   0.997        C    5 0.969
    29  H   0.997        C    1 0.969
    30  C   3.996        C   25 1.020    H   33 0.988    H   32 0.988    H   31 0.987
    31  H   0.998        C   30 0.987
    32  H   0.999        C   30 0.988
    33  H   0.999        C   30 0.988

molecular dipole:
                 x           y           z       tot (Debye)
 q only:       -0.288       0.921      -0.876
   full:       -0.491       0.637      -0.695       2.701
molecular quadrupole (traceless):
                xx          xy          yy          xz          yz          zz
 q only:        4.162       1.387      -2.262      -4.776      -3.282      -1.900
  q+dip:        3.525       2.820      -1.307      -4.996      -6.516      -2.218
   full:        2.867       4.460      -0.147      -4.263      -4.932      -2.720


           -------------------------------------------------
          | TOTAL ENERGY              -44.264205791988 Eh   |
          | GRADIENT NORM               0.023575706807 Eh/α |
          | HOMO-LUMO GAP               2.111764924924 eV   |
           -------------------------------------------------

------------------------------------------------------------------------
 * finished run on 2020/08/27 at 21:15:05.326     
------------------------------------------------------------------------
 total:
 * wall-time:     0 d,  0 h,  0 min,  0.388 sec
 *  cpu-time:     0 d,  0 h,  0 min,  1.576 sec
 * ratio c/w:     4.058 speedup
 SCF:
 * wall-time:     0 d,  0 h,  0 min,  0.206 sec
 *  cpu-time:     0 d,  0 h,  0 min,  0.789 sec
 * ratio c/w:     3.824 speedup


-------------------------   --------------------
FINAL SINGLE POINT ENERGY       -44.264205791990
-------------------------   --------------------


----------------------------------------------------------------------------
                           ORCA NUMERICAL FREQUENCIES
                              (8-process run)
----------------------------------------------------------------------------

Number of atoms                ... 33
Central differences            ... used
Number of displacements        ... 198
Numerical increment            ... 5.000e-03 bohr
IR-spectrum generation         ... on
Raman-spectrum generation      ... off
Surface Crossing Hessian       ... off
List of participating nodes    ...  /tmp/slurm-scratch/freq.164/freq.hostnames

The output will be reduced. Please look at the following files:
SCF program output             ... >/tmp/slurm-scratch/freq.164/freq.lastscf
Integral program output        ... >/tmp/slurm-scratch/freq.164/freq.lastint
Gradient program output        ... >/tmp/slurm-scratch/freq.164/freq.lastgrad
Dipole moment program output   ... >/tmp/slurm-scratch/freq.164/freq.lastmom
AutoCI program output          ... >/tmp/slurm-scratch/freq.164/freq.lastautoci


         <<< Energy and Gradient at the input geometry >>>

        <<< Energy and Gradient at displaced geometries >>>
             <<<Displacing   2/coordinate 2 (+)>>>
             <<<Displacing   1/coordinate 2 (+)>>>
             <<<Displacing   2/coordinate 3 (+)>>>
             <<<Displacing   1/coordinate 3 (+)>>>
             <<<Displacing   2/coordinate 1 (+)>>>
             <<<Displacing   3/coordinate 2 (+)>>>
             <<<Displacing   1/coordinate 1 (+)>>>
             <<<Displacing   3/coordinate 1 (+)>>>
             <<<Displacing   2/coordinate 3 (-)>>>
             <<<Displacing   1/coordinate 2 (-)>>>
             <<<Displacing   2/coordinate 2 (-)>>>
             <<<Displacing   1/coordinate 1 (-)>>>
             <<<Displacing   2/coordinate 1 (-)>>>
             <<<Displacing   3/coordinate 2 (-)>>>
             <<<Displacing   3/coordinate 1 (-)>>>
             <<<Displacing   1/coordinate 3 (-)>>>
             <<<Displacing   3/coordinate 3 (+)>>>
             <<<Displacing   4/coordinate 1 (+)>>>
             <<<Displacing   5/coordinate 1 (+)>>>
             <<<Displacing   5/coordinate 3 (+)>>>
             <<<Displacing   4/coordinate 3 (+)>>>
             <<<Displacing   5/coordinate 2 (+)>>>
             <<<Displacing   6/coordinate 1 (+)>>>
             <<<Displacing   4/coordinate 2 (+)>>>
             <<<Displacing   5/coordinate 3 (-)>>>
             <<<Displacing   5/coordinate 1 (-)>>>
             <<<Displacing   3/coordinate 3 (-)>>>
             <<<Displacing   4/coordinate 1 (-)>>>
             <<<Displacing   4/coordinate 3 (-)>>>
             <<<Displacing   5/coordinate 2 (-)>>>
             <<<Displacing   6/coordinate 1 (-)>>>
             <<<Displacing   4/coordinate 2 (-)>>>
             <<<Displacing   6/coordinate 2 (+)>>>
             <<<Displacing   6/coordinate 3 (+)>>>
             <<<Displacing   7/coordinate 1 (+)>>>
             <<<Displacing   7/coordinate 2 (+)>>>
             <<<Displacing   7/coordinate 3 (+)>>>
             <<<Displacing   8/coordinate 1 (+)>>>
             <<<Displacing   6/coordinate 2 (-)>>>
             <<<Displacing   8/coordinate 2 (+)>>>
             <<<Displacing   6/coordinate 3 (-)>>>
             <<<Displacing   8/coordinate 3 (+)>>>
             <<<Displacing   7/coordinate 2 (-)>>>
             <<<Displacing   7/coordinate 1 (-)>>>
             <<<Displacing   7/coordinate 3 (-)>>>
             <<<Displacing   8/coordinate 1 (-)>>>
             <<<Displacing   8/coordinate 2 (-)>>>
             <<<Displacing   8/coordinate 3 (-)>>>
             <<<Displacing   9/coordinate 2 (+)>>>
             <<<Displacing  10/coordinate 1 (+)>>>
             <<<Displacing   9/coordinate 1 (+)>>>
             <<<Displacing   9/coordinate 3 (+)>>>
             <<<Displacing  10/coordinate 2 (+)>>>
             <<<Displacing  11/coordinate 1 (+)>>>
             <<<Displacing   9/coordinate 2 (-)>>>
             <<<Displacing  10/coordinate 3 (+)>>>
             <<<Displacing  11/coordinate 2 (+)>>>
             <<<Displacing  10/coordinate 1 (-)>>>
             <<<Displacing   9/coordinate 1 (-)>>>
             <<<Displacing   9/coordinate 3 (-)>>>
             <<<Displacing  11/coordinate 1 (-)>>>
             <<<Displacing  10/coordinate 2 (-)>>>
             <<<Displacing  10/coordinate 3 (-)>>>
             <<<Displacing  11/coordinate 2 (-)>>>
             <<<Displacing  11/coordinate 3 (+)>>>
             <<<Displacing  12/coordinate 1 (+)>>>
             <<<Displacing  12/coordinate 2 (+)>>>
             <<<Displacing  12/coordinate 3 (+)>>>
             <<<Displacing  11/coordinate 3 (-)>>>
             <<<Displacing  13/coordinate 3 (+)>>>
             <<<Displacing  13/coordinate 1 (+)>>>
             <<<Displacing  12/coordinate 1 (-)>>>
             <<<Displacing  13/coordinate 2 (+)>>>
             <<<Displacing  14/coordinate 1 (+)>>>
             <<<Displacing  12/coordinate 2 (-)>>>
             <<<Displacing  12/coordinate 3 (-)>>>
             <<<Displacing  13/coordinate 3 (-)>>>
             <<<Displacing  13/coordinate 1 (-)>>>
             <<<Displacing  13/coordinate 2 (-)>>>
             <<<Displacing  14/coordinate 1 (-)>>>
             <<<Displacing  14/coordinate 2 (+)>>>
             <<<Displacing  14/coordinate 3 (+)>>>
             <<<Displacing  15/coordinate 3 (+)>>>
             <<<Displacing  15/coordinate 1 (+)>>>
             <<<Displacing  15/coordinate 2 (+)>>>
             <<<Displacing  14/coordinate 2 (-)>>>
             <<<Displacing  14/coordinate 3 (-)>>>
             <<<Displacing  16/coordinate 1 (+)>>>
             <<<Displacing  16/coordinate 3 (+)>>>
             <<<Displacing  16/coordinate 2 (+)>>>
             <<<Displacing  15/coordinate 3 (-)>>>
             <<<Displacing  15/coordinate 2 (-)>>>
             <<<Displacing  15/coordinate 1 (-)>>>
             <<<Displacing  16/coordinate 1 (-)>>>
             <<<Displacing  16/coordinate 2 (-)>>>
             <<<Displacing  16/coordinate 3 (-)>>>
             <<<Displacing  17/coordinate 1 (+)>>>
             <<<Displacing  17/coordinate 2 (+)>>>
             <<<Displacing  18/coordinate 2 (+)>>>
             <<<Displacing  17/coordinate 3 (+)>>>
             <<<Displacing  18/coordinate 1 (+)>>>
             <<<Displacing  18/coordinate 3 (+)>>>
             <<<Displacing  17/coordinate 1 (-)>>>
             <<<Displacing  19/coordinate 1 (+)>>>
             <<<Displacing  18/coordinate 2 (-)>>>
             <<<Displacing  18/coordinate 1 (-)>>>
             <<<Displacing  17/coordinate 2 (-)>>>
             <<<Displacing  19/coordinate 2 (+)>>>
             <<<Displacing  17/coordinate 3 (-)>>>
             <<<Displacing  18/coordinate 3 (-)>>>
             <<<Displacing  19/coordinate 1 (-)>>>
             <<<Displacing  19/coordinate 2 (-)>>>
             <<<Displacing  19/coordinate 3 (+)>>>
             <<<Displacing  20/coordinate 1 (+)>>>
             <<<Displacing  21/coordinate 1 (+)>>>
             <<<Displacing  20/coordinate 2 (+)>>>
             <<<Displacing  20/coordinate 3 (+)>>>
             <<<Displacing  20/coordinate 1 (-)>>>
             <<<Displacing  21/coordinate 2 (+)>>>
             <<<Displacing  21/coordinate 3 (+)>>>
             <<<Displacing  19/coordinate 3 (-)>>>
             <<<Displacing  20/coordinate 2 (-)>>>
             <<<Displacing  21/coordinate 1 (-)>>>
             <<<Displacing  20/coordinate 3 (-)>>>
             <<<Displacing  21/coordinate 2 (-)>>>
             <<<Displacing  22/coordinate 1 (+)>>>
             <<<Displacing  21/coordinate 3 (-)>>>
             <<<Displacing  22/coordinate 1 (-)>>>
             <<<Displacing  22/coordinate 2 (+)>>>
             <<<Displacing  22/coordinate 3 (+)>>>
             <<<Displacing  23/coordinate 2 (+)>>>
             <<<Displacing  23/coordinate 1 (+)>>>
             <<<Displacing  22/coordinate 2 (-)>>>
             <<<Displacing  23/coordinate 3 (+)>>>
             <<<Displacing  24/coordinate 1 (+)>>>
             <<<Displacing  24/coordinate 2 (+)>>>
             <<<Displacing  22/coordinate 3 (-)>>>
             <<<Displacing  23/coordinate 2 (-)>>>
             <<<Displacing  23/coordinate 1 (-)>>>
             <<<Displacing  23/coordinate 3 (-)>>>
             <<<Displacing  24/coordinate 3 (+)>>>
             <<<Displacing  24/coordinate 1 (-)>>>
             <<<Displacing  24/coordinate 2 (-)>>>
             <<<Displacing  24/coordinate 3 (-)>>>
             <<<Displacing  25/coordinate 1 (+)>>>
             <<<Displacing  25/coordinate 2 (+)>>>
             <<<Displacing  26/coordinate 1 (+)>>>
             <<<Displacing  26/coordinate 2 (+)>>>
             <<<Displacing  25/coordinate 1 (-)>>>
             <<<Displacing  26/coordinate 3 (+)>>>
             <<<Displacing  25/coordinate 3 (+)>>>
             <<<Displacing  27/coordinate 1 (+)>>>
             <<<Displacing  25/coordinate 2 (-)>>>
             <<<Displacing  26/coordinate 1 (-)>>>
             <<<Displacing  26/coordinate 2 (-)>>>
             <<<Displacing  26/coordinate 3 (-)>>>
             <<<Displacing  25/coordinate 3 (-)>>>
             <<<Displacing  27/coordinate 2 (+)>>>
             <<<Displacing  27/coordinate 1 (-)>>>
             <<<Displacing  27/coordinate 2 (-)>>>
             <<<Displacing  27/coordinate 3 (+)>>>
             <<<Displacing  28/coordinate 1 (+)>>>
             <<<Displacing  28/coordinate 2 (+)>>>
             <<<Displacing  29/coordinate 1 (+)>>>
             <<<Displacing  27/coordinate 3 (-)>>>
             <<<Displacing  28/coordinate 3 (+)>>>
             <<<Displacing  29/coordinate 2 (+)>>>
             <<<Displacing  29/coordinate 3 (+)>>>
             <<<Displacing  28/coordinate 1 (-)>>>
             <<<Displacing  28/coordinate 2 (-)>>>
             <<<Displacing  29/coordinate 1 (-)>>>
             <<<Displacing  30/coordinate 1 (+)>>>
             <<<Displacing  29/coordinate 2 (-)>>>
             <<<Displacing  28/coordinate 3 (-)>>>
             <<<Displacing  29/coordinate 3 (-)>>>
             <<<Displacing  30/coordinate 1 (-)>>>
             <<<Displacing  30/coordinate 2 (+)>>>
             <<<Displacing  30/coordinate 3 (+)>>>
             <<<Displacing  31/coordinate 1 (+)>>>
             <<<Displacing  31/coordinate 2 (+)>>>
             <<<Displacing  31/coordinate 3 (+)>>>
             <<<Displacing  30/coordinate 2 (-)>>>
             <<<Displacing  32/coordinate 1 (+)>>>
             <<<Displacing  32/coordinate 2 (+)>>>
             <<<Displacing  32/coordinate 3 (+)>>>
             <<<Displacing  30/coordinate 3 (-)>>>
             <<<Displacing  31/coordinate 2 (-)>>>
             <<<Displacing  31/coordinate 1 (-)>>>
             <<<Displacing  31/coordinate 3 (-)>>>
             <<<Displacing  32/coordinate 1 (-)>>>
             <<<Displacing  32/coordinate 3 (-)>>>
             <<<Displacing  32/coordinate 2 (-)>>>
             <<<Displacing  33/coordinate 1 (+)>>>
             <<<Displacing  33/coordinate 1 (-)>>>
             <<<Displacing  33/coordinate 2 (+)>>>
             <<<Displacing  33/coordinate 3 (+)>>>
             <<<Displacing  33/coordinate 3 (-)>>>
             <<<Displacing  33/coordinate 2 (-)>>>

-----------------------
VIBRATIONAL FREQUENCIES
-----------------------

Scaling factor for frequencies =  1.000000000 (already applied!)

   0:         0.00 cm**-1
   1:         0.00 cm**-1
   2:         0.00 cm**-1
   3:         0.00 cm**-1
   4:         0.00 cm**-1
   5:         0.00 cm**-1
   6:       -61.64 cm**-1 ***imaginary mode***
   7:        34.71 cm**-1
   8:        43.97 cm**-1
   9:        51.41 cm**-1
  10:        53.19 cm**-1
  11:        68.29 cm**-1
  12:        71.58 cm**-1
  13:        88.91 cm**-1
  14:       113.66 cm**-1
  15:       129.91 cm**-1
  16:       139.38 cm**-1
  17:       176.37 cm**-1
  18:       204.39 cm**-1
  19:       228.18 cm**-1
  20:       254.69 cm**-1
  21:       263.87 cm**-1
  22:       277.53 cm**-1
  23:       324.97 cm**-1
  24:       373.90 cm**-1
  25:       384.38 cm**-1
  26:       394.63 cm**-1
  27:       424.85 cm**-1
  28:       435.09 cm**-1
  29:       440.54 cm**-1
  30:       578.03 cm**-1
  31:       586.63 cm**-1
  32:       628.77 cm**-1
  33:       658.93 cm**-1
  34:       744.67 cm**-1
  35:       772.82 cm**-1
  36:       823.75 cm**-1
  37:       828.21 cm**-1
  38:       875.77 cm**-1
  39:       897.98 cm**-1
  40:       916.32 cm**-1
  41:       920.73 cm**-1
  42:       933.71 cm**-1
  43:       934.01 cm**-1
  44:       938.45 cm**-1
  45:       973.31 cm**-1
  46:       984.30 cm**-1
  47:      1006.85 cm**-1
  48:      1065.77 cm**-1
  49:      1066.80 cm**-1
  50:      1097.89 cm**-1
  51:      1115.45 cm**-1
  52:      1122.03 cm**-1
  53:      1146.81 cm**-1
  54:      1177.05 cm**-1
  55:      1180.11 cm**-1
  56:      1200.89 cm**-1
  57:      1210.94 cm**-1
  58:      1233.19 cm**-1
  59:      1269.94 cm**-1
  60:      1274.37 cm**-1
  61:      1279.41 cm**-1
  62:      1291.83 cm**-1
  63:      1305.09 cm**-1
  64:      1352.63 cm**-1
  65:      1360.85 cm**-1
  66:      1379.04 cm**-1
  67:      1426.46 cm**-1
  68:      1428.80 cm**-1
  69:      1448.25 cm**-1
  70:      1501.04 cm**-1
  71:      1505.68 cm**-1
  72:      1507.48 cm**-1
  73:      1509.36 cm**-1
  74:      1513.12 cm**-1
  75:      1544.98 cm**-1
  76:      1555.11 cm**-1
  77:      1561.57 cm**-1
  78:      1568.53 cm**-1
  79:      1650.25 cm**-1
  80:      2840.35 cm**-1
  81:      2856.81 cm**-1
  82:      2929.49 cm**-1
  83:      2943.48 cm**-1
  84:      2962.44 cm**-1
  85:      2965.79 cm**-1
  86:      2970.90 cm**-1
  87:      2978.92 cm**-1
  88:      2984.15 cm**-1
  89:      2996.81 cm**-1
  90:      3057.12 cm**-1
  91:      3060.96 cm**-1
  92:      3068.26 cm**-1
  93:      3075.99 cm**-1
  94:      3083.91 cm**-1
  95:      3367.96 cm**-1
  96:      3379.50 cm**-1
  97:      3407.54 cm**-1
  98:      3577.45 cm**-1


------------
NORMAL MODES
------------

These modes are the cartesian displacements weighted by the diagonal matrix
M(i,i)=1/sqrt(m[i]) where m[i] is the mass of the displaced atom
Thus, these vectors are normalized but *not* orthogonal

                  0          1          2          3          4          5    
      0       0.000000   0.000000   0.000000   0.000000   0.000000   0.000000
      1       0.000000   0.000000   0.000000   0.000000   0.000000   0.000000
      2       0.000000   0.000000   0.000000   0.000000   0.000000   0.000000
      3       0.000000   0.000000   0.000000   0.000000   0.000000   0.000000
      4       0.000000   0.000000   0.000000   0.000000   0.000000   0.000000
      5       0.000000   0.000000   0.000000   0.000000   0.000000   0.000000
      6       0.000000   0.000000   0.000000   0.000000   0.000000   0.000000
      7       0.000000   0.000000   0.000000   0.000000   0.000000   0.000000
      8       0.000000   0.000000   0.000000   0.000000   0.000000   0.000000
      9       0.000000   0.000000   0.000000   0.000000   0.000000   0.000000
     10       0.000000   0.000000   0.000000   0.000000   0.000000   0.000000
     11       0.000000   0.000000   0.000000   0.000000   0.000000   0.000000
     12       0.000000   0.000000   0.000000   0.000000   0.000000   0.000000
     13       0.000000   0.000000   0.000000   0.000000   0.000000   0.000000
     14       0.000000   0.000000   0.000000   0.000000   0.000000   0.000000
     15       0.000000   0.000000   0.000000   0.000000   0.000000   0.000000
     16       0.000000   0.000000   0.000000   0.000000   0.000000   0.000000
     17       0.000000   0.000000   0.000000   0.000000   0.000000   0.000000
     18       0.000000   0.000000   0.000000   0.000000   0.000000   0.000000
     19       0.000000   0.000000   0.000000   0.000000   0.000000   0.000000
     20       0.000000   0.000000   0.000000   0.000000   0.000000   0.000000
     21       0.000000   0.000000   0.000000   0.000000   0.000000   0.000000
     22       0.000000   0.000000   0.000000   0.000000   0.000000   0.000000
     23       0.000000   0.000000   0.000000   0.000000   0.000000   0.000000
     24       0.000000   0.000000   0.000000   0.000000   0.000000   0.000000
     25       0.000000   0.000000   0.000000   0.000000   0.000000   0.000000
     26       0.000000   0.000000   0.000000   0.000000   0.000000   0.000000
     27       0.000000   0.000000   0.000000   0.000000   0.000000   0.000000
     28       0.000000   0.000000   0.000000   0.000000   0.000000   0.000000
     29       0.000000   0.000000   0.000000   0.000000   0.000000   0.000000
     30       0.000000   0.000000   0.000000   0.000000   0.000000   0.000000
     31       0.000000   0.000000   0.000000   0.000000   0.000000   0.000000
     32       0.000000   0.000000   0.000000   0.000000   0.000000   0.000000
     33       0.000000   0.000000   0.000000   0.000000   0.000000   0.000000
     34       0.000000   0.000000   0.000000   0.000000   0.000000   0.000000
     35       0.000000   0.000000   0.000000   0.000000   0.000000   0.000000
     36       0.000000   0.000000   0.000000   0.000000   0.000000   0.000000
     37       0.000000   0.000000   0.000000   0.000000   0.000000   0.000000
     38       0.000000   0.000000   0.000000   0.000000   0.000000   0.000000
     39       0.000000   0.000000   0.000000   0.000000   0.000000   0.000000
     40       0.000000   0.000000   0.000000   0.000000   0.000000   0.000000
     41       0.000000   0.000000   0.000000   0.000000   0.000000   0.000000
     42       0.000000   0.000000   0.000000   0.000000   0.000000   0.000000
     43       0.000000   0.000000   0.000000   0.000000   0.000000   0.000000
     44       0.000000   0.000000   0.000000   0.000000   0.000000   0.000000
     45       0.000000   0.000000   0.000000   0.000000   0.000000   0.000000
     46       0.000000   0.000000   0.000000   0.000000   0.000000   0.000000
     47       0.000000   0.000000   0.000000   0.000000   0.000000   0.000000
     48       0.000000   0.000000   0.000000   0.000000   0.000000   0.000000
     49       0.000000   0.000000   0.000000   0.000000   0.000000   0.000000
     50       0.000000   0.000000   0.000000   0.000000   0.000000   0.000000
     51       0.000000   0.000000   0.000000   0.000000   0.000000   0.000000
     52       0.000000   0.000000   0.000000   0.000000   0.000000   0.000000
     53       0.000000   0.000000   0.000000   0.000000   0.000000   0.000000
     54       0.000000   0.000000   0.000000   0.000000   0.000000   0.000000
     55       0.000000   0.000000   0.000000   0.000000   0.000000   0.000000
     56       0.000000   0.000000   0.000000   0.000000   0.000000   0.000000
     57       0.000000   0.000000   0.000000   0.000000   0.000000   0.000000
     58       0.000000   0.000000   0.000000   0.000000   0.000000   0.000000
     59       0.000000   0.000000   0.000000   0.000000   0.000000   0.000000
     60       0.000000   0.000000   0.000000   0.000000   0.000000   0.000000
     61       0.000000   0.000000   0.000000   0.000000   0.000000   0.000000
     62       0.000000   0.000000   0.000000   0.000000   0.000000   0.000000
     63       0.000000   0.000000   0.000000   0.000000   0.000000   0.000000
     64       0.000000   0.000000   0.000000   0.000000   0.000000   0.000000
     65       0.000000   0.000000   0.000000   0.000000   0.000000   0.000000
     66       0.000000   0.000000   0.000000   0.000000   0.000000   0.000000
     67       0.000000   0.000000   0.000000   0.000000   0.000000   0.000000
     68       0.000000   0.000000   0.000000   0.000000   0.000000   0.000000
     69       0.000000   0.000000   0.000000   0.000000   0.000000   0.000000
     70       0.000000   0.000000   0.000000   0.000000   0.000000   0.000000
     71       0.000000   0.000000   0.000000   0.000000   0.000000   0.000000
     72       0.000000   0.000000   0.000000   0.000000   0.000000   0.000000
     73       0.000000   0.000000   0.000000   0.000000   0.000000   0.000000
     74       0.000000   0.000000   0.000000   0.000000   0.000000   0.000000
     75       0.000000   0.000000   0.000000   0.000000   0.000000   0.000000
     76       0.000000   0.000000   0.000000   0.000000   0.000000   0.000000
     77       0.000000   0.000000   0.000000   0.000000   0.000000   0.000000
     78       0.000000   0.000000   0.000000   0.000000   0.000000   0.000000
     79       0.000000   0.000000   0.000000   0.000000   0.000000   0.000000
     80       0.000000   0.000000   0.000000   0.000000   0.000000   0.000000
     81       0.000000   0.000000   0.000000   0.000000   0.000000   0.000000
     82       0.000000   0.000000   0.000000   0.000000   0.000000   0.000000
     83       0.000000   0.000000   0.000000   0.000000   0.000000   0.000000
     84       0.000000   0.000000   0.000000   0.000000   0.000000   0.000000
     85       0.000000   0.000000   0.000000   0.000000   0.000000   0.000000
     86       0.000000   0.000000   0.000000   0.000000   0.000000   0.000000
     87       0.000000   0.000000   0.000000   0.000000   0.000000   0.000000
     88       0.000000   0.000000   0.000000   0.000000   0.000000   0.000000
     89       0.000000   0.000000   0.000000   0.000000   0.000000   0.000000
     90       0.000000   0.000000   0.000000   0.000000   0.000000   0.000000
     91       0.000000   0.000000   0.000000   0.000000   0.000000   0.000000
     92       0.000000   0.000000   0.000000   0.000000   0.000000   0.000000
     93       0.000000   0.000000   0.000000   0.000000   0.000000   0.000000
     94       0.000000   0.000000   0.000000   0.000000   0.000000   0.000000
     95       0.000000   0.000000   0.000000   0.000000   0.000000   0.000000
     96       0.000000   0.000000   0.000000   0.000000   0.000000   0.000000
     97       0.000000   0.000000   0.000000   0.000000   0.000000   0.000000
     98       0.000000   0.000000   0.000000   0.000000   0.000000   0.000000
                  6          7          8          9         10         11    
      0      -0.039752  -0.119530  -0.086014   0.097660  -0.020138   0.117281
      1      -0.022222   0.020906   0.017463   0.180278   0.081420   0.133006
      2       0.004663   0.075669   0.054324  -0.020011   0.047256   0.062026
      3      -0.065952  -0.085170  -0.012774   0.022330   0.046228   0.092143
      4      -0.055660   0.012181  -0.019761   0.077752   0.102224   0.155208
      5      -0.015765   0.087588   0.074915  -0.081410   0.081643   0.057590
      6      -0.080850  -0.064883   0.048302  -0.036980   0.043672  -0.029289
      7      -0.069044   0.000062  -0.027839  -0.003800   0.038133   0.003263
      8      -0.019169   0.058346   0.015683  -0.118909   0.015573  -0.002381
      9      -0.062849  -0.079922   0.033238  -0.018908  -0.031300  -0.122572
     10      -0.040411  -0.002720   0.001717   0.019797  -0.054750  -0.171810
     11       0.001044   0.017392  -0.065145  -0.094085  -0.088703  -0.060390
     12      -0.036312  -0.114355  -0.040064   0.057691  -0.096643  -0.099695
     13      -0.009315   0.006735   0.039258   0.123018  -0.073864  -0.197368
     14       0.020602   0.005886  -0.085060  -0.031848  -0.121968  -0.058338
     15      -0.025605  -0.134395  -0.099807   0.116181  -0.091302   0.019993
     16      -0.001367   0.018025   0.047449   0.204085  -0.005640  -0.046698
     17       0.020958   0.034867  -0.025463   0.005229  -0.053795   0.001881
     18      -0.077331  -0.072723  -0.001072   0.009072   0.100674   0.162428
     19      -0.071069   0.016197  -0.042356   0.062984   0.168321   0.289384
     20      -0.029668   0.118391   0.135790  -0.100654   0.158967   0.099456
     21      -0.068892  -0.065546   0.079360  -0.069753  -0.040822  -0.208756
     22      -0.046982  -0.012986  -0.004692  -0.048246  -0.111005  -0.288495
     23      -0.001021  -0.005429  -0.109925  -0.123147  -0.139374  -0.113468
     24      -0.006611  -0.161251  -0.156947   0.174832  -0.142443   0.037408
     25       0.021979   0.024686   0.077194   0.283933  -0.021289  -0.068795
     26       0.035849   0.025291  -0.041312   0.053650  -0.080278   0.002926
     27       0.208700   0.034816   0.020632   0.008744   0.081631  -0.002368
     28       0.224449  -0.173710  -0.015719  -0.125825   0.086194   0.020986
     29       0.101798  -0.094124   0.164752   0.115394  -0.032763   0.003058
     30       0.097838   0.045671   0.004405  -0.027283   0.096338   0.014061
     31       0.071123  -0.156686  -0.034883  -0.173463   0.104771   0.044166
     32       0.022808  -0.047206   0.214372   0.137681  -0.022023   0.007244
     33       0.043760   0.038784  -0.044739  -0.017278   0.082390   0.024655
     34       0.026612  -0.085180   0.039824  -0.063850   0.058111   0.039308
     35      -0.030937  -0.080924   0.129971   0.107398  -0.035973   0.023706
     36      -0.037777  -0.026501  -0.048119  -0.046849   0.145548   0.096517
     37       0.015317  -0.057126   0.045735  -0.049479   0.038598   0.025219
     38      -0.293225  -0.038816   0.161578   0.134224  -0.023163   0.088560
     39      -0.041080   0.060626  -0.092748  -0.022457   0.062245   0.021554
     40      -0.188401  -0.095570   0.084050  -0.053623   0.108412   0.129695
     41       0.098093  -0.095065   0.153945   0.108463  -0.035146  -0.000533
     42       0.251423   0.038368   0.052449   0.004682   0.093182  -0.010406
     43       0.569873  -0.246192  -0.023188  -0.103980   0.062202  -0.023269
     44      -0.043572  -0.071738   0.145580   0.110558  -0.032707   0.023221
     45       0.042946   0.087979   0.197070  -0.018127  -0.352714   0.235997
     46      -0.015110  -0.022340  -0.061926  -0.100793  -0.049525   0.056829
     47       0.022517   0.092861  -0.066783   0.322478   0.252606  -0.037455
     48      -0.001283   0.028398   0.181906  -0.040793  -0.086369   0.041743
     49      -0.013435  -0.023164  -0.060677  -0.132293  -0.081345   0.078640
     50       0.007005   0.058351  -0.063117   0.099031   0.170094   0.002392
     51      -0.101660  -0.032817   0.128150  -0.096350   0.116271  -0.059603
     52      -0.092551  -0.017611  -0.068991  -0.083718   0.059559   0.035184
     53      -0.028750   0.065483   0.040110  -0.162994   0.051992  -0.007443
     54      -0.107391  -0.034317   0.134946  -0.133135   0.146079  -0.016999
     55      -0.103413  -0.029152  -0.089164  -0.134522   0.087754   0.109784
     56      -0.035225   0.088575   0.107575  -0.194439   0.106387  -0.006013
     57      -0.069225  -0.019211   0.187578  -0.090055   0.142354  -0.122110
     58      -0.052177  -0.029116  -0.081625  -0.068956   0.049595  -0.003202
     59      -0.007792   0.045289  -0.008364  -0.153152   0.026150  -0.004556
     60       0.099510   0.099442  -0.049905   0.007102   0.025749  -0.035999
     61       0.098449  -0.006368   0.032289  -0.033197  -0.016747  -0.040053
     62       0.015308  -0.103871   0.010115   0.057583  -0.051436  -0.012929
     63       0.166327   0.163678  -0.045417   0.034143  -0.035053  -0.103701
     64       0.101741  -0.039332   0.030595  -0.046226   0.003833  -0.030525
     65       0.176410  -0.170770   0.009568   0.032996  -0.052914  -0.098740
     66       0.138074   0.060910   0.019668   0.014427   0.048520  -0.044014
     67       0.247667  -0.011188   0.003266  -0.042985  -0.059558  -0.142887
     68      -0.058993  -0.073128  -0.033471   0.054893  -0.055667   0.023991
     69       0.037661   0.077656   0.168052  -0.011233  -0.258562   0.203834
     70      -0.020028  -0.033878  -0.057932  -0.201688  -0.107764   0.087698
     71       0.016974   0.079927  -0.068705   0.227636   0.215199  -0.013716
     72       0.013540   0.129899  -0.154715  -0.016438   0.021079   0.005320
     73      -0.026144   0.121399   0.062622   0.025973  -0.064275   0.004077
     74      -0.045276  -0.078468  -0.054878   0.045819  -0.056895   0.015972
     75      -0.009303   0.070174  -0.160783  -0.043079   0.070791   0.055427
     76      -0.039632   0.151697   0.064673   0.038651  -0.081391   0.000244
     77      -0.171725  -0.010111  -0.054206   0.070975  -0.064496   0.089324
     78      -0.038359   0.170323  -0.225303  -0.023857   0.002544   0.019389
     79      -0.119496   0.129754   0.089297   0.036241  -0.037468   0.083888
     80       0.023368  -0.111608  -0.009962   0.048096  -0.051306  -0.020053
     81      -0.023400  -0.126039  -0.051379   0.071528  -0.152621  -0.173230
     82       0.008122   0.004687   0.061715   0.139723  -0.142556  -0.335728
     83       0.036557  -0.026121  -0.146744  -0.012220  -0.202066  -0.103136
     84      -0.030902  -0.134686  -0.131944   0.141838  -0.017727   0.208143
     85      -0.012099   0.029271   0.023319   0.241886   0.130174   0.248662
     86       0.007760   0.097386   0.099099   0.008799   0.097400   0.109502
     87       0.026140   0.185612  -0.158754   0.005048  -0.022823  -0.035167
     88      -0.008633   0.194128   0.053580   0.052864  -0.122815  -0.050051
     89      -0.030057  -0.098687  -0.174884  -0.000656  -0.058375  -0.002735
     90      -0.003997   0.192549  -0.222667  -0.013552  -0.022941  -0.017042
     91      -0.056252   0.260171   0.080779   0.086805  -0.150709  -0.034887
     92      -0.051244  -0.090367  -0.211602  -0.009734  -0.060170   0.009092
     93       0.043929   0.243540  -0.155346   0.029986  -0.069703  -0.081003
     94      -0.003734   0.171592   0.050833   0.043090  -0.108789  -0.043592
     95       0.040174  -0.139977  -0.187353  -0.019088  -0.054592  -0.050060
     96       0.047683   0.160483  -0.101210   0.013943  -0.007401  -0.036902
     97       0.047483   0.202755   0.022552   0.048067  -0.151080  -0.111310
     98      -0.066662  -0.080801  -0.212165  -0.006467  -0.061649   0.019202
                 12         13         14         15         16         17    
      0      -0.010458  -0.047839  -0.013053  -0.015285  -0.007304   0.049533
      1      -0.011323  -0.041927  -0.016112  -0.023773   0.019648   0.034980
      2       0.007434   0.003435  -0.009981  -0.024689   0.055402  -0.011379
      3      -0.026559  -0.030108  -0.005141  -0.000847  -0.039405  -0.098797
      4      -0.025530  -0.065026   0.017940   0.030712  -0.123897  -0.038846
      5      -0.003673   0.003783   0.003108  -0.002550  -0.002007  -0.093345
      6      -0.026476   0.012082  -0.002256   0.004466  -0.028788  -0.160793
      7      -0.017415  -0.032319   0.033814   0.057258  -0.163213  -0.051499
      8       0.004374   0.003641   0.018020   0.021106  -0.051365  -0.059290
      9      -0.008983   0.036465  -0.003367   0.004025  -0.015160  -0.158489
     10       0.007563   0.024341   0.024417   0.046808  -0.115420  -0.093196
     11       0.025970   0.005137   0.026760   0.034297  -0.074443   0.009460
     12       0.008169   0.021911  -0.008674  -0.007147   0.013265  -0.026238
     13       0.023008   0.053324  -0.004137  -0.001950   0.023777  -0.045360
     14       0.037900   0.007208   0.016646   0.015743  -0.022564   0.084355
     15       0.007102  -0.020118  -0.015934  -0.021375   0.031370   0.097563
     16       0.013270   0.019830  -0.028300  -0.044015   0.110677   0.061664
     17       0.028516   0.006814  -0.003355  -0.017288   0.054669   0.095353
     18      -0.039197  -0.048820  -0.003752   0.001319  -0.060215  -0.123460
     19      -0.043475  -0.110781   0.025348   0.041378  -0.181973  -0.040677
     20      -0.018795   0.003922  -0.002064  -0.009310   0.007018  -0.162493
     21      -0.007704   0.064602  -0.001932   0.009569  -0.016524  -0.242624
     22       0.016364   0.045716   0.039300   0.073719  -0.168653  -0.135490
     23       0.034215   0.004950   0.041403   0.058357  -0.129994   0.033390
     24       0.020104  -0.031306  -0.022646  -0.035274   0.070352   0.221407
     25       0.025150   0.041047  -0.055369  -0.089873   0.239783   0.152331
     26       0.037549   0.008185  -0.014112  -0.036603   0.109004   0.174663
     27       0.062995  -0.079467  -0.071698   0.006557  -0.053227  -0.011064
     28       0.019750   0.148760  -0.089441   0.023260  -0.045335  -0.016020
     29       0.036338  -0.144943  -0.089864  -0.010835  -0.077504  -0.022231
     30       0.088494  -0.068421  -0.067648   0.052450   0.011131  -0.018010
     31       0.054200   0.163335  -0.083360   0.086498   0.042740  -0.024319
     32       0.052192  -0.156652  -0.093524   0.017248  -0.029696  -0.017444
     33       0.119768  -0.033125   0.070102   0.094694   0.080983   0.002583
     34       0.094628   0.129389   0.092988   0.113721   0.128894   0.034051
     35       0.083229  -0.114558   0.025532   0.059521   0.032599  -0.007240
     36       0.270330   0.071056  -0.026657   0.236777   0.155309   0.007446
     37       0.069953   0.102702   0.142565   0.093095   0.136199   0.039182
     38       0.253595  -0.063637   0.145965   0.240094   0.250728   0.040509
     39       0.109393  -0.024744   0.197674   0.109628   0.148612   0.010107
     40       0.312019   0.216168   0.082923   0.323802   0.307275   0.070193
     41       0.027331  -0.146316  -0.071108  -0.014467  -0.072848  -0.023226
     42       0.038361  -0.097065  -0.167783  -0.024395  -0.104690  -0.024536
     43      -0.079191   0.118119  -0.215659  -0.138029  -0.275826  -0.034162
     44       0.086135  -0.123436   0.018011   0.063955   0.035452  -0.006860
     45      -0.098639   0.117653   0.033205   0.014064  -0.048616   0.054256
     46      -0.049166  -0.067396  -0.067851  -0.099756   0.182468  -0.344508
     47      -0.131380   0.187224   0.005239  -0.015345   0.038645  -0.208136
     48      -0.034260   0.097552  -0.024404   0.021435   0.008000   0.164753
     49      -0.041655  -0.081470  -0.069189  -0.099388   0.187255  -0.319775
     50      -0.055957   0.097137  -0.030116  -0.012626   0.094476   0.008492
     51      -0.041659   0.021091  -0.012725  -0.008722  -0.006400  -0.049040
     52      -0.031345  -0.057621   0.030073   0.049474  -0.129159   0.052220
     53      -0.006288  -0.000438   0.009591   0.012294  -0.038192   0.017316
     54      -0.038986   0.021392   0.012346   0.023812  -0.046968  -0.148647
     55      -0.026384  -0.062944   0.069410   0.097932  -0.179770  -0.106759
     56      -0.007666   0.011958   0.023457   0.033937  -0.085443  -0.013808
     57      -0.049277   0.018944  -0.067017  -0.065121   0.055402   0.214643
     58      -0.040961  -0.078236  -0.036580  -0.028781  -0.005581   0.327469
     59      -0.009350  -0.017879  -0.021421  -0.027678   0.044324   0.110463
     60      -0.007161  -0.123576   0.158532  -0.022856   0.021325  -0.007174
     61      -0.072800   0.013153   0.208817  -0.040922   0.051787   0.022890
     62      -0.033890  -0.084908   0.098277  -0.020658  -0.002158  -0.018924
     63      -0.150569  -0.240774   0.240093  -0.138987  -0.047545  -0.023610
     64      -0.061474   0.029038   0.211383   0.001125   0.083029   0.028676
     65      -0.270795  -0.235327   0.296501  -0.007752   0.048936  -0.016146
     66      -0.028197  -0.204819   0.209260   0.058782   0.082583  -0.002944
     67      -0.334230  -0.139859   0.396864  -0.124175   0.033914   0.013840
     68       0.060280   0.022640   0.002780  -0.056596  -0.042398  -0.018999
     69      -0.094195   0.182064   0.030990   0.038457  -0.037514   0.063171
     70      -0.018291  -0.112523  -0.080123  -0.099609   0.202494  -0.243642
     71      -0.101343   0.157217  -0.006845  -0.010570   0.060255  -0.111404
     72       0.083783   0.052466   0.037431  -0.089687  -0.037226   0.000031
     73       0.096980   0.067889   0.030824  -0.128895  -0.058874  -0.001282
     74       0.032040   0.032135   0.011774  -0.068162  -0.045006  -0.014521
     75       0.199293   0.176112   0.146462  -0.262651  -0.100754   0.005812
     76       0.097104   0.053083  -0.021656  -0.103706  -0.061683  -0.006335
     77       0.255296   0.181587  -0.092053  -0.252963  -0.185309  -0.033128
     78       0.111052   0.142201  -0.087209  -0.081574  -0.057643   0.008145
     79       0.328007   0.214923   0.052102  -0.371236  -0.198393  -0.017964
     80      -0.062097  -0.082442   0.098708   0.003763   0.015456  -0.015030
     81       0.022150   0.042325  -0.009367  -0.008266   0.030394  -0.011851
     82       0.042841   0.100544  -0.010094  -0.011257   0.074914  -0.062348
     83       0.054482   0.008547   0.022295   0.024300  -0.036179   0.148283
     84      -0.010714  -0.080431  -0.016935  -0.022917  -0.004554   0.133405
     85      -0.018181  -0.069145  -0.033616  -0.052034   0.068391   0.086842
     86       0.000312   0.001748  -0.025351  -0.048495   0.105556  -0.026657
     87      -0.009571  -0.042418  -0.080214   0.067532   0.016457  -0.005400
     88      -0.030214  -0.055249  -0.127448   0.082562   0.013945  -0.007443
     89      -0.072267   0.111565  -0.061227   0.038554   0.023476   0.027168
     90       0.019383   0.065226  -0.140620   0.016915  -0.021168   0.008166
     91       0.048853  -0.054879  -0.215600   0.015493  -0.069634  -0.038289
     92      -0.049963   0.176259  -0.103016   0.003989  -0.004307   0.033422
     93      -0.114255  -0.159202  -0.202412   0.247664   0.080102  -0.013867
     94      -0.021899  -0.034873  -0.086408   0.057578   0.015150  -0.001280
     95      -0.226206   0.018382  -0.020072   0.228576   0.161551   0.053397
     96      -0.002244  -0.103582   0.014552   0.056569   0.030958  -0.015035
     97      -0.210748  -0.167438  -0.198273   0.333547   0.151018   0.012119
     98      -0.017986   0.199809  -0.115932  -0.036353  -0.034350   0.028630
                 18         19         20         21         22         23    
      0       0.005865  -0.048626   0.018821  -0.003231   0.001181   0.000385
      1       0.002090  -0.010354   0.037258  -0.006088   0.002437   0.003219
      2      -0.002747   0.037108   0.029529  -0.007638   0.002340   0.009460
      3       0.008038   0.074233   0.055758  -0.010390   0.000938   0.003856
      4       0.022922  -0.125824   0.058795  -0.007475   0.001953  -0.004626
      5       0.004739   0.049319   0.050916  -0.010790   0.002050   0.007720
      6       0.000259   0.153791   0.036553  -0.007892   0.000176   0.003828
      7       0.019706  -0.116641   0.013965   0.000942   0.000300  -0.009465
      8       0.007452  -0.001394   0.018364  -0.003394   0.000888   0.000933
      9       0.002458   0.136659   0.072286  -0.014778   0.001202   0.008958
     10       0.019273  -0.064067   0.082341  -0.012705   0.001938  -0.000582
     11       0.015452  -0.134622   0.036845  -0.005984   0.001970   0.002759
     12      -0.002429   0.035526  -0.004144  -0.000980   0.000131   0.000440
     13      -0.006348   0.073465  -0.006675   0.000353   0.000354  -0.000812
     14       0.006569  -0.152919  -0.023239   0.003919   0.001123  -0.001248
     15      -0.006299  -0.031441  -0.060834   0.010336  -0.000580  -0.005410
     16      -0.022639   0.112584  -0.080580   0.012852  -0.000488  -0.003010
     17      -0.007404  -0.056931  -0.054913   0.008001   0.000800   0.001125
     18       0.013013   0.072092   0.074988  -0.013793   0.001009   0.006429
     19       0.035998  -0.190663   0.084085  -0.010608   0.001911  -0.003480
     20       0.003507   0.124279   0.076785  -0.016783   0.002302   0.014056
     21       0.003290   0.223473   0.105040  -0.020915   0.001320   0.023956
     22       0.029295  -0.099396   0.118638  -0.020481   0.002441   0.011350
     23       0.025128  -0.242070   0.048391  -0.009054   0.002386   0.003379
     24      -0.016092  -0.080166  -0.146438   0.025680  -0.001957  -0.010736
     25      -0.049802   0.217813  -0.198287   0.031333  -0.002620  -0.004363
     26      -0.019517  -0.046854  -0.125918   0.019965  -0.000413  -0.001525
     27       0.133626   0.027630  -0.015698   0.005115  -0.001001  -0.001305
     28      -0.143524  -0.010234  -0.000632  -0.005880  -0.001594  -0.033773
     29       0.091860   0.029174  -0.016656   0.011278  -0.004347   0.015709
     30       0.108118   0.013943  -0.012379   0.062552   0.004721  -0.289163
     31      -0.167993  -0.026678   0.003191   0.073597   0.006358  -0.433423
     32       0.320332   0.046170  -0.035814   0.045848   0.001335  -0.222992
     33      -0.068532  -0.017097   0.008628  -0.008541   0.009287   0.013717
     34       0.068687  -0.009379   0.010957  -0.010155   0.012959   0.020001
     35      -0.017114  -0.001482   0.002186   0.000392   0.004537   0.027442
     36      -0.158076  -0.038713   0.016939  -0.023242   0.006286   0.017133
     37       0.106970  -0.005687   0.011157  -0.007447   0.015516   0.025383
     38       0.049152  -0.022741   0.020770  -0.010596   0.015181   0.079207
     39      -0.162342  -0.038842   0.021226  -0.018967   0.016899   0.026879
     40       0.104239  -0.024507   0.024068  -0.018922   0.016177   0.058853
     41       0.045933   0.020189  -0.011590   0.011015  -0.002444   0.007586
     42       0.266595   0.050439  -0.033308   0.047571  -0.004611  -0.210383
     43      -0.246331   0.015682   0.007940  -0.082234  -0.023636   0.488544
     44       0.036513   0.004860  -0.006948   0.009021   0.005535  -0.018928
     45       0.097842   0.022144  -0.299522  -0.940273   0.015606  -0.181950
     46       0.020296  -0.248996  -0.084721   0.047829  -0.006503   0.300920
     47       0.010384  -0.182383  -0.144130  -0.149782  -0.003924   0.259421
     48       0.023590  -0.061303   0.140319   0.197554   0.001254  -0.080894
     49       0.021233  -0.192955  -0.078209  -0.011580  -0.003745   0.173845
     50      -0.030861   0.112159   0.125268   0.042533   0.005049  -0.370413
     51      -0.012003   0.018111  -0.113641   0.016083  -0.002814  -0.002815
     52      -0.013263   0.089097  -0.168784   0.027574  -0.004849   0.004256
     53      -0.006701   0.015307  -0.091414   0.014435  -0.002127   0.000960
     54      -0.030124   0.072106  -0.403454   0.061863  -0.009581   0.002539
     55      -0.044419   0.306476  -0.562775   0.090567  -0.014382   0.014644
     56      -0.009622  -0.218050  -0.342698   0.054127  -0.007337  -0.002760
     57       0.001679  -0.286273   0.024435  -0.011191   0.000743   0.003001
     58      -0.013594   0.147484   0.078904  -0.018253   0.000255   0.019543
     59      -0.014829   0.246944   0.058205  -0.013320   0.000578   0.011188
     60      -0.038874  -0.003847   0.000657   0.002746   0.012780   0.001855
     61       0.117004   0.008552   0.001667   0.006095   0.017672  -0.004615
     62      -0.164610  -0.019153   0.009874  -0.003551   0.008809  -0.023594
     63      -0.035578   0.012065  -0.013072   0.018709   0.026646  -0.029511
     64       0.114668   0.003501   0.006462   0.001784   0.025268   0.001447
     65      -0.158051  -0.013912   0.007992   0.005621   0.084332  -0.053532
     66      -0.030232  -0.005325   0.001074   0.003422   0.045012   0.012469
     67       0.102634   0.017236  -0.003784   0.020764   0.074097  -0.055473
     68      -0.163485  -0.020481   0.011002  -0.007964  -0.031963  -0.017892
     69      -0.028083   0.016949   0.016460   0.058180  -0.001541   0.014543
     70       0.013982  -0.102500  -0.002457   0.006825  -0.000218  -0.020967
     71      -0.020581  -0.044031  -0.005483   0.003342  -0.001239  -0.010582
     72       0.029257   0.003846  -0.002503   0.001694  -0.031000   0.005170
     73       0.037293   0.007918   0.000036   0.003884  -0.041862  -0.003948
     74      -0.117581  -0.013687   0.008072  -0.003993  -0.022009  -0.024313
     75       0.111091   0.014172  -0.005607   0.004941  -0.069898   0.007450
     76       0.002090   0.004743   0.000774   0.002379  -0.037801  -0.005538
     77      -0.163137  -0.011269   0.005843  -0.005588  -0.076511  -0.029018
     78       0.108280   0.014955  -0.008010   0.003062  -0.035156   0.014723
     79      -0.004328   0.009325   0.000013   0.003015  -0.104509  -0.012171
     80      -0.162014  -0.022372   0.012137  -0.004552   0.002083  -0.028810
     81      -0.005964   0.035262  -0.026488   0.002239  -0.000376   0.000476
     82      -0.016210   0.140308  -0.034677   0.002728  -0.000352   0.002628
     83       0.008568  -0.239950  -0.054637   0.010602   0.000518  -0.005229
     84       0.009385  -0.143947   0.019405  -0.002769   0.001931   0.001514
     85      -0.000342  -0.007190   0.057871  -0.010379   0.003582   0.010408
     86      -0.008387   0.120990   0.050987  -0.012626   0.002945   0.016199
     87      -0.046733  -0.006064  -0.000099  -0.002848   0.006468   0.004931
     88      -0.057374  -0.004528   0.003273  -0.001769   0.009104  -0.005721
     89       0.175257   0.017188  -0.004563   0.007492   0.004497   0.006630
     90       0.112213   0.019908  -0.022307   0.011501   0.328736   0.028462
     91      -0.229431  -0.012869  -0.010257  -0.000031   0.442252  -0.013911
     92       0.260393   0.032335  -0.018807   0.016262   0.225020   0.020178
     93      -0.160212  -0.021115   0.005522  -0.010280   0.017808  -0.000420
     94      -0.012465  -0.000998   0.005072  -0.001010  -0.071284  -0.003971
     95       0.262165   0.011591   0.019318  -0.002095  -0.541973   0.007767
     96      -0.155501  -0.024915   0.018330  -0.013648  -0.292471  -0.015339
     97      -0.010282  -0.010111   0.017806  -0.009186  -0.295442  -0.000599
     98       0.249814   0.034640  -0.024743   0.018955   0.354487   0.021591
                 24         25         26         27         28         29    
      0      -0.042409   0.051037  -0.001251   0.006246   0.159843  -0.020908
      1      -0.075179   0.078106  -0.002126  -0.007834   0.069712  -0.110765
      2      -0.055636   0.028461  -0.000411  -0.021737  -0.086768  -0.101477
      3       0.046389  -0.065104   0.003953  -0.002330   0.049331   0.014550
      4       0.088702  -0.093540   0.004584  -0.001623   0.037917  -0.001314
      5       0.032391  -0.068446   0.003707  -0.018478  -0.098539  -0.037927
      6      -0.008367   0.006932  -0.001501   0.003488  -0.205119   0.087408
      7       0.011025   0.033647  -0.004224   0.034543  -0.121062   0.214074
      8      -0.000719   0.011475  -0.001306   0.022122   0.003041   0.150366
[...]
     17       0.000095  -0.000006  -0.000004
     18      -0.000603   0.000599   0.000193
     19       0.000210  -0.000431  -0.000150
     20       0.000446  -0.000269   0.000045
     21      -0.000200   0.000411   0.001954
     22       0.001024  -0.000536  -0.001621
     23       0.000568   0.000213   0.001614
     24       0.000304   0.000026  -0.000017
     25       0.000235  -0.000052  -0.000132
     26      -0.000576   0.000014   0.000271
     27       0.022450  -0.059684  -0.000563
     28      -0.030103   0.004159   0.000483
     29      -0.019485  -0.049976  -0.000031
     30      -0.539652   0.360999   0.009070
     31       0.357548  -0.278165  -0.006988
     32      -0.038132  -0.003216   0.002204
     33      -0.000039  -0.001806   0.000008
     34      -0.001524  -0.000527  -0.000052
     35      -0.000879  -0.001861   0.000056
     36      -0.002661   0.000389   0.000466
     37      -0.001216   0.001509   0.000795
     38       0.003212   0.001702  -0.000302
     39       0.004723   0.008721  -0.000111
     40       0.003115   0.003470  -0.000296
     41       0.004680   0.005345  -0.000594
     42       0.226383   0.478399  -0.000810
     43       0.073524   0.223610  -0.000204
     44       0.309915   0.709331  -0.000606
     45       0.005901  -0.000832   0.135643
     46       0.008877  -0.003664   0.702701
     47      -0.038280   0.006380  -0.692645
     48      -0.001463  -0.000380  -0.004092
     49       0.578687  -0.055962  -0.065604
     50       0.294452  -0.028576  -0.000188
     51       0.000775  -0.000036  -0.000053
     52      -0.001413   0.000334   0.000016
     53       0.001637  -0.000350   0.000037
     54      -0.007078  -0.000080   0.000109
     55       0.002318  -0.000000  -0.000269
     56      -0.001167   0.000023  -0.000097
     57      -0.000315   0.000050   0.000017
     58       0.001263  -0.000235   0.000058
     59      -0.000702   0.000154  -0.000002
     60      -0.000097  -0.000111  -0.000003
     61      -0.000000   0.000052  -0.000013
     62       0.000109  -0.000024  -0.000003
     63       0.000727  -0.001162  -0.000022
     64       0.002824  -0.003049   0.000238
     65      -0.000411  -0.000277  -0.000036
     66      -0.001307   0.004852  -0.000083
     67      -0.000609   0.000753   0.000033
     68      -0.001733   0.003581  -0.000080
     69      -0.000193   0.000134  -0.008344
     70      -0.037459   0.003739  -0.040187
     71      -0.016209   0.001405   0.043604
     72      -0.000008  -0.000041  -0.000001
     73      -0.000005   0.000014  -0.000015
     74      -0.000018  -0.000027   0.000013
     75      -0.000232  -0.000187   0.000071
     76      -0.000511  -0.000135   0.000172
     77       0.000035   0.000108  -0.000071
     78       0.000307  -0.000030  -0.000023
     79       0.000287   0.000327  -0.000022
     80       0.000447   0.000808  -0.000084
     81       0.000986  -0.000086   0.000284
     82      -0.000364   0.000006  -0.000168
     83      -0.000495   0.000097  -0.000047
     84      -0.000573   0.000161   0.000094
     85       0.000795  -0.000223  -0.000142
     86      -0.000787   0.000240   0.000142
     87       0.000017  -0.000003  -0.000001
     88      -0.000028   0.000006  -0.000006
     89       0.000008  -0.000019   0.000005
     90      -0.000120  -0.000281   0.000013
     91      -0.000020   0.000048   0.000004
     92       0.000240   0.000300  -0.000014
     93       0.000121  -0.000074  -0.000004
     94       0.000458  -0.000319   0.000044
     95      -0.000070  -0.000028  -0.000005
     96      -0.000229   0.000431  -0.000002
     97      -0.000069   0.000113   0.000010
     98      -0.000272   0.000367  -0.000005


-----------
IR SPECTRUM  
-----------

 Mode    freq (cm**-1)   T**2         TX         TY         TZ
-------------------------------------------------------------------
   7:        34.71    0.000000  (  0.000000   0.000000   0.000000)
   8:        43.97    0.000000  (  0.000000   0.000000   0.000000)
   9:        51.41    0.000000  (  0.000000   0.000000   0.000000)
  10:        53.19    0.000000  (  0.000000   0.000000   0.000000)
  11:        68.29    0.000000  (  0.000000   0.000000   0.000000)
  12:        71.58    0.000000  (  0.000000   0.000000   0.000000)
  13:        88.91    0.000000  (  0.000000   0.000000   0.000000)
  14:       113.66    0.000000  (  0.000000   0.000000   0.000000)
  15:       129.91    0.000000  (  0.000000   0.000000   0.000000)
  16:       139.38    0.000000  (  0.000000   0.000000   0.000000)
  17:       176.37    0.000000  (  0.000000   0.000000   0.000000)
  18:       204.39    0.000000  (  0.000000   0.000000   0.000000)
  19:       228.18    0.000000  (  0.000000   0.000000   0.000000)
  20:       254.69    0.000000  (  0.000000   0.000000   0.000000)
  21:       263.87    0.000000  (  0.000000   0.000000   0.000000)
  22:       277.53    0.000000  (  0.000000   0.000000   0.000000)
  23:       324.97    0.000000  (  0.000000   0.000000   0.000000)
  24:       373.90    0.000000  (  0.000000   0.000000   0.000000)
  25:       384.38    0.000000  (  0.000000   0.000000   0.000000)
  26:       394.63    0.000000  (  0.000000   0.000000   0.000000)
  27:       424.85    0.000000  (  0.000000   0.000000   0.000000)
  28:       435.09    0.000000  (  0.000000   0.000000   0.000000)
  29:       440.54    0.000000  (  0.000000   0.000000   0.000000)
  30:       578.03    0.000000  (  0.000000   0.000000   0.000000)
  31:       586.63    0.000000  (  0.000000   0.000000   0.000000)
  32:       628.77    0.000000  (  0.000000   0.000000   0.000000)
  33:       658.93    0.000000  (  0.000000   0.000000   0.000000)
  34:       744.67    0.000000  (  0.000000   0.000000   0.000000)
  35:       772.82    0.000000  (  0.000000   0.000000   0.000000)
  36:       823.75    0.000000  (  0.000000   0.000000   0.000000)
  37:       828.21    0.000000  (  0.000000   0.000000   0.000000)
  38:       875.77    0.000000  (  0.000000   0.000000   0.000000)
  39:       897.98    0.000000  (  0.000000   0.000000   0.000000)
  40:       916.32    0.000000  (  0.000000   0.000000   0.000000)
  41:       920.73    0.000000  (  0.000000   0.000000   0.000000)
  42:       933.71    0.000000  (  0.000000   0.000000   0.000000)
  43:       934.01    0.000000  (  0.000000   0.000000   0.000000)
  44:       938.45    0.000000  (  0.000000   0.000000   0.000000)
  45:       973.31    0.000000  (  0.000000   0.000000   0.000000)
  46:       984.30    0.000000  (  0.000000   0.000000   0.000000)
  47:      1006.85    0.000000  (  0.000000   0.000000   0.000000)
  48:      1065.77    0.000000  (  0.000000   0.000000   0.000000)
  49:      1066.80    0.000000  (  0.000000   0.000000   0.000000)
  50:      1097.89    0.000000  (  0.000000   0.000000   0.000000)
  51:      1115.45    0.000000  (  0.000000   0.000000   0.000000)
  52:      1122.03    0.000000  (  0.000000   0.000000   0.000000)
  53:      1146.81    0.000000  (  0.000000   0.000000   0.000000)
  54:      1177.05    0.000000  (  0.000000   0.000000   0.000000)
  55:      1180.11    0.000000  (  0.000000   0.000000   0.000000)
  56:      1200.89    0.000000  (  0.000000   0.000000   0.000000)
  57:      1210.94    0.000000  (  0.000000   0.000000   0.000000)
  58:      1233.19    0.000000  (  0.000000   0.000000   0.000000)
  59:      1269.94    0.000000  (  0.000000   0.000000   0.000000)
  60:      1274.37    0.000000  (  0.000000   0.000000   0.000000)
  61:      1279.41    0.000000  (  0.000000   0.000000   0.000000)
  62:      1291.83    0.000000  (  0.000000   0.000000   0.000000)
  63:      1305.09    0.000000  (  0.000000   0.000000   0.000000)
  64:      1352.63    0.000000  (  0.000000   0.000000   0.000000)
  65:      1360.85    0.000000  (  0.000000   0.000000   0.000000)
  66:      1379.04    0.000000  (  0.000000   0.000000   0.000000)
  67:      1426.46    0.000000  (  0.000000   0.000000   0.000000)
  68:      1428.80    0.000000  (  0.000000   0.000000   0.000000)
  69:      1448.25    0.000000  (  0.000000   0.000000   0.000000)
  70:      1501.04    0.000000  (  0.000000   0.000000   0.000000)
  71:      1505.68    0.000000  (  0.000000   0.000000   0.000000)
  72:      1507.48    0.000000  (  0.000000   0.000000   0.000000)
  73:      1509.36    0.000000  (  0.000000   0.000000   0.000000)
  74:      1513.12    0.000000  (  0.000000   0.000000   0.000000)
  75:      1544.98    0.000000  (  0.000000   0.000000   0.000000)
  76:      1555.11    0.000000  (  0.000000   0.000000   0.000000)
  77:      1561.57    0.000000  (  0.000000   0.000000   0.000000)
  78:      1568.53    0.000000  (  0.000000   0.000000   0.000000)
  79:      1650.25    0.000000  (  0.000000   0.000000   0.000000)
  80:      2840.35    0.000000  (  0.000000   0.000000   0.000000)
  81:      2856.81    0.000000  (  0.000000   0.000000   0.000000)
  82:      2929.49    0.000000  (  0.000000   0.000000   0.000000)
  83:      2943.48    0.000000  (  0.000000   0.000000   0.000000)
  84:      2962.44    0.000000  (  0.000000   0.000000   0.000000)
  85:      2965.79    0.000000  (  0.000000   0.000000   0.000000)
  86:      2970.90    0.000000  (  0.000000   0.000000   0.000000)
  87:      2978.92    0.000000  (  0.000000   0.000000   0.000000)
  88:      2984.15    0.000000  (  0.000000   0.000000   0.000000)
  89:      2996.81    0.000000  (  0.000000   0.000000   0.000000)
  90:      3057.12    0.000000  (  0.000000   0.000000   0.000000)
  91:      3060.96    0.000000  (  0.000000   0.000000   0.000000)
  92:      3068.26    0.000000  (  0.000000   0.000000   0.000000)
  93:      3075.99    0.000000  (  0.000000   0.000000   0.000000)
  94:      3083.91    0.000000  (  0.000000   0.000000   0.000000)
  95:      3367.96    0.000000  (  0.000000   0.000000   0.000000)
  96:      3379.50    0.000000  (  0.000000   0.000000   0.000000)
  97:      3407.54    0.000000  (  0.000000   0.000000   0.000000)
  98:      3577.45    0.000000  (  0.000000   0.000000   0.000000)

The first frequency considered to be a vibration is 7
The total number of vibrations considered is 92


--------------------------
THERMOCHEMISTRY AT 298.15K
--------------------------

Temperature         ... 298.15 K
Pressure            ... 1.00 atm
Total Mass          ... 197.28 AMU

Throughout the following assumptions are being made:
  (1) The electronic state is orbitally nondegenerate
  (2) There are no thermally accessible electronically excited states
  (3) Hindered rotations indicated by low frequency modes are not
      treated as such but are treated as vibrations and this may
      cause some error
  (4) All equations used are the standard statistical mechanics
      equations for an ideal gas
  (5) All vibrations are strictly harmonic

freq.      34.71  E(vib)   ...       0.54 
freq.      43.97  E(vib)   ...       0.53 
freq.      51.41  E(vib)   ...       0.52 
freq.      53.19  E(vib)   ...       0.52 
freq.      68.29  E(vib)   ...       0.50 
freq.      71.58  E(vib)   ...       0.50 
freq.      88.91  E(vib)   ...       0.47 
freq.     113.66  E(vib)   ...       0.44 
freq.     129.91  E(vib)   ...       0.43 
freq.     139.38  E(vib)   ...       0.42 
freq.     176.37  E(vib)   ...       0.38 
freq.     204.39  E(vib)   ...       0.35 
freq.     228.18  E(vib)   ...       0.32 
freq.     254.69  E(vib)   ...       0.30 
freq.     263.87  E(vib)   ...       0.29 
freq.     277.53  E(vib)   ...       0.28 
freq.     324.97  E(vib)   ...       0.24 
freq.     373.90  E(vib)   ...       0.21 
freq.     384.38  E(vib)   ...       0.20 
freq.     394.63  E(vib)   ...       0.20 
freq.     424.85  E(vib)   ...       0.18 
freq.     435.09  E(vib)   ...       0.17 
freq.     440.54  E(vib)   ...       0.17 
freq.     578.03  E(vib)   ...       0.11 
freq.     586.63  E(vib)   ...       0.11 
freq.     628.77  E(vib)   ...       0.09 
freq.     658.93  E(vib)   ...       0.08 
freq.     744.67  E(vib)   ...       0.06 
freq.     772.82  E(vib)   ...       0.05 
freq.     823.75  E(vib)   ...       0.05 
freq.     828.21  E(vib)   ...       0.04 
freq.     875.77  E(vib)   ...       0.04 
freq.     897.98  E(vib)   ...       0.03 
freq.     916.32  E(vib)   ...       0.03 
freq.     920.73  E(vib)   ...       0.03 
freq.     933.71  E(vib)   ...       0.03 
freq.     934.01  E(vib)   ...       0.03 
freq.     938.45  E(vib)   ...       0.03 
freq.     973.31  E(vib)   ...       0.03 
freq.     984.30  E(vib)   ...       0.02 
freq.    1006.85  E(vib)   ...       0.02 
freq.    1065.77  E(vib)   ...       0.02 
freq.    1066.80  E(vib)   ...       0.02 
freq.    1097.89  E(vib)   ...       0.02 
freq.    1115.45  E(vib)   ...       0.01 
freq.    1122.03  E(vib)   ...       0.01 
freq.    1146.81  E(vib)   ...       0.01 
freq.    1177.05  E(vib)   ...       0.01 
freq.    1180.11  E(vib)   ...       0.01 
freq.    1200.89  E(vib)   ...       0.01 
freq.    1210.94  E(vib)   ...       0.01 
freq.    1233.19  E(vib)   ...       0.01 
freq.    1269.94  E(vib)   ...       0.01 
freq.    1274.37  E(vib)   ...       0.01 
freq.    1279.41  E(vib)   ...       0.01 
freq.    1291.83  E(vib)   ...       0.01 
freq.    1305.09  E(vib)   ...       0.01 
freq.    1352.63  E(vib)   ...       0.01 
freq.    1360.85  E(vib)   ...       0.01 
freq.    1379.04  E(vib)   ...       0.01 
freq.    1426.46  E(vib)   ...       0.00 
freq.    1428.80  E(vib)   ...       0.00 
freq.    1448.25  E(vib)   ...       0.00 
freq.    1501.04  E(vib)   ...       0.00 
freq.    1505.68  E(vib)   ...       0.00 
freq.    1507.48  E(vib)   ...       0.00 
freq.    1509.36  E(vib)   ...       0.00 
freq.    1513.12  E(vib)   ...       0.00 
freq.    1544.98  E(vib)   ...       0.00 
freq.    1555.11  E(vib)   ...       0.00 
freq.    1561.57  E(vib)   ...       0.00 
freq.    1568.53  E(vib)   ...       0.00 
freq.    1650.25  E(vib)   ...       0.00 
freq.    2840.35  E(vib)   ...       0.00 
freq.    2856.81  E(vib)   ...       0.00 
freq.    2929.49  E(vib)   ...       0.00 
freq.    2943.48  E(vib)   ...       0.00 
freq.    2962.44  E(vib)   ...       0.00 
freq.    2965.79  E(vib)   ...       0.00 
freq.    2970.90  E(vib)   ...       0.00 
freq.    2978.92  E(vib)   ...       0.00 
freq.    2984.15  E(vib)   ...       0.00 
freq.    2996.81  E(vib)   ...       0.00 
freq.    3057.12  E(vib)   ...       0.00 
freq.    3060.96  E(vib)   ...       0.00 
freq.    3068.26  E(vib)   ...       0.00 
freq.    3075.99  E(vib)   ...       0.00 
freq.    3083.91  E(vib)   ...       0.00 
freq.    3367.96  E(vib)   ...       0.00 
freq.    3379.50  E(vib)   ...       0.00 
freq.    3407.54  E(vib)   ...       0.00 
freq.    3577.45  E(vib)   ...       0.00 

------------
INNER ENERGY
------------

The inner energy is: U= E(el) + E(ZPE) + E(vib) + E(rot) + E(trans)
    E(el)   - is the total energy from the electronic structure calculation
              = E(kin-el) + E(nuc-el) + E(el-el) + E(nuc-nuc)
    E(ZPE)  - the the zero temperature vibrational energy from the frequency calculation
    E(vib)  - the the finite temperature correction to E(ZPE) due to population
              of excited vibrational states
    E(rot)  - is the rotational thermal energy
    E(trans)- is the translational thermal energy

Summary of contributions to the inner energy U:
Electronic energy                ...    -44.26420579 Eh
Zero point energy                ...      0.27643328 Eh     173.46 kcal/mol
Thermal vibrational correction   ...      0.01482726 Eh       9.30 kcal/mol
Thermal rotational correction    ...      0.00141627 Eh       0.89 kcal/mol
Thermal translational correction ...      0.00141627 Eh       0.89 kcal/mol
-----------------------------------------------------------------------
Total thermal energy                    -43.97011271 Eh


Summary of corrections to the electronic energy:
(perhaps to be used in another calculation)
Total thermal correction                  0.01765980 Eh      11.08 kcal/mol
Non-thermal (ZPE) correction              0.27643328 Eh     173.46 kcal/mol
-----------------------------------------------------------------------
Total correction                          0.29409308 Eh     184.55 kcal/mol


--------
ENTHALPY
--------

The enthalpy is H = U + kB*T
                kB is Boltzmann's constant
Total free energy                 ...    -43.97011271 Eh 
Thermal Enthalpy correction       ...      0.00094421 Eh       0.59 kcal/mol
-----------------------------------------------------------------------
Total Enthalpy                    ...    -43.96916850 Eh


Note: Only C1 symmetry has been detected, increase convergence thresholds 
      if your molecule has a higher symmetry. Symmetry factor of 1.0 is   
      used for the rotational entropy correction. 
 

Note: Rotational entropy computed according to Herzberg 
Infrared and Raman Spectra, Chapter V,1, Van Nostrand Reinhold, 1945 
Point Group:  C1, Symmetry Number:   1  
Rotational constants in cm-1:     0.031125     0.009462     0.008095 

Vibrational entropy computed according to the QRRHO of S. Grimme
Chem.Eur.J. 2012 18 9955


-------
ENTROPY
-------

The entropy contributions are T*S = T*(S(el)+S(vib)+S(rot)+S(trans))
     S(el)   - electronic entropy
     S(vib)  - vibrational entropy
     S(rot)  - rotational entropy
     S(trans)- translational entropy
The entropies will be listed as mutliplied by the temperature to get
units of energy

Electronic entropy                ...      0.00000000 Eh      0.00 kcal/mol
Vibrational entropy               ...      0.02679270 Eh     16.81 kcal/mol
Rotational entropy                ...      0.01562279 Eh      9.80 kcal/mol
Translational entropy             ...      0.01983352 Eh     12.45 kcal/mol
-----------------------------------------------------------------------
Final entropy term                ...      0.06224901 Eh     39.06 kcal/mol

In case the symmetry of your molecule has not been determined correctly
or in case you have a reason to use a different symmetry number we print 
out the resulting rotational entropy values for sn=1,12 :
 --------------------------------------------------------
|  sn= 1 | S(rot)=       0.01562279 Eh      9.80 kcal/mol|
|  sn= 2 | S(rot)=       0.01496833 Eh      9.39 kcal/mol|
|  sn= 3 | S(rot)=       0.01458550 Eh      9.15 kcal/mol|
|  sn= 4 | S(rot)=       0.01431388 Eh      8.98 kcal/mol|
|  sn= 5 | S(rot)=       0.01410319 Eh      8.85 kcal/mol|
|  sn= 6 | S(rot)=       0.01393105 Eh      8.74 kcal/mol|
|  sn= 7 | S(rot)=       0.01378550 Eh      8.65 kcal/mol|
|  sn= 8 | S(rot)=       0.01365942 Eh      8.57 kcal/mol|
|  sn= 9 | S(rot)=       0.01354821 Eh      8.50 kcal/mol|
|  sn=10 | S(rot)=       0.01344873 Eh      8.44 kcal/mol|
|  sn=11 | S(rot)=       0.01335874 Eh      8.38 kcal/mol|
|  sn=12 | S(rot)=       0.01327659 Eh      8.33 kcal/mol|
 --------------------------------------------------------


-------------------
GIBBS FREE ENERGY
-------------------

The Gibbs free energy is G = H - T*S

Total enthalpy                    ...    -43.96916850 Eh 
Total entropy correction          ...     -0.06224901 Eh    -39.06 kcal/mol
-----------------------------------------------------------------------
Final Gibbs free energy         ...    -44.03141751 Eh

For completeness - the Gibbs free energy minus the electronic energy
G-E(el)                           ...      0.23278828 Eh    146.08 kcal/mol


Total Time for Numerical Frequencies  :        61.946 sec
Time for Reference State(s)           :         0.089 sec
Time for Displacements                :        55.544 sec

Timings for individual modules:

Sum of individual times         ...        0.483 sec (=   0.008 min)
XTB module                      ...        0.483 sec (=   0.008 min) 100.0 %
                             ****ORCA TERMINATED NORMALLY****
TOTAL RUN TIME: 0 days 0 hours 1 minutes 3 seconds 79 msec
(SLURM) EXECUTION TIME: 63.119122113 seconds.
