
                                 *****************
                                 * O   R   C   A *
                                 *****************

           --- An Ab Initio, DFT and Semiempirical electronic structure package ---

                  #######################################################
                  #                        -***-                        #
                  #          Department of theory and spectroscopy      #
                  #               Directorship: Frank Neese             #
                  #        Max Planck Institute fuer Kohlenforschung    #
                  #                Kaiser Wilhelm Platz 1               #
                  #                 D-45470 Muelheim/Ruhr               #
                  #                      Germany                        #
                  #                                                     #
                  #                  All rights reserved                #
                  #                        -***-                        #
                  #######################################################


                         Program Version 4.2.1 -  RELEASE  -


 With contributions from (in alphabetic order):
   Daniel Aravena         : Magnetic Suceptibility
   Michael Atanasov       : Ab Initio Ligand Field Theory (pilot matlab implementation)
   Alexander A. Auer      : GIAO ZORA, VPT2
   Ute Becker             : Parallelization
   Giovanni Bistoni       : ED, misc. LED, open-shell LED, HFLD
   Martin Brehm           : Molecular dynamics
   Dmytro Bykov           : SCF Hessian
   Vijay G. Chilkuri      : MRCI spin determinant printing, contributions to CSF-ICE
   Dipayan Datta          : RHF DLPNO-CCSD density
   Achintya Kumar Dutta   : EOM-CC, STEOM-CC
   Dmitry Ganyushin       : Spin-Orbit,Spin-Spin,Magnetic field MRCI
   Miquel Garcia          : C-PCM Hessian, Gaussian charge scheme
   Yang Guo               : DLPNO-NEVPT2, CIM, IAO-localization
   Andreas Hansen         : Spin unrestricted coupled pair/coupled cluster methods
   Benjamin Helmich-Paris : CASSCF linear response (MC-RPA)
   Lee Huntington         : MR-EOM, pCC
   Robert Izsak           : Overlap fitted RIJCOSX, COSX-SCS-MP3, EOM
   Christian Kollmar      : KDIIS, OOCD, Brueckner-CCSD(T), CCSD density
   Simone Kossmann        : Meta GGA functionals, TD-DFT gradient, OOMP2, MP2 Hessian
   Martin Krupicka        : AUTO-CI
   Lucas Lang             : DCDCAS
   Dagmar Lenk            : GEPOL surface, SMD
   Dimitrios Liakos       : Extrapolation schemes; Compound Job, initial MDCI parallelization
   Dimitrios Manganas     : Further ROCIS development; embedding schemes
   Dimitrios Pantazis     : SARC Basis sets
   Taras Petrenko         : DFT Hessian,TD-DFT gradient, ASA, ECA, R-Raman, ABS, FL, XAS/XES, NRVS
   Peter Pinski           : DLPNO-MP2, DLPNO-MP2 Gradient
   Christoph Reimann      : Effective Core Potentials
   Marius Retegan         : Local ZFS, SOC
   Christoph Riplinger    : Optimizer, TS searches, QM/MM, DLPNO-CCSD(T), (RO)-DLPNO pert. Triples
   Tobias Risthaus        : Range-separated hybrids, TD-DFT gradient, RPA, STAB
   Michael Roemelt        : Original ROCIS implementation
   Masaaki Saitow         : Open-shell DLPNO-CCSD energy and density
   Barbara Sandhoefer     : DKH picture change effects
   Avijit Sen             : IP-ROCIS
   Kantharuban Sivalingam : CASSCF convergence, NEVPT2, FIC-MRCI
   Bernardo de Souza      : ESD, SOC TD-DFT
   Georgi Stoychev        : AutoAux, RI-MP2 NMR
   Willem Van den Heuvel  : Paramagnetic NMR
   Boris Wezisla          : Elementary symmetry handling
   Frank Wennmohs         : Technical directorship


 We gratefully acknowledge several colleagues who have allowed us to
 interface, adapt or use parts of their codes:
   Stefan Grimme, W. Hujo, H. Kruse,             : VdW corrections, initial TS optimization,
                  C. Bannwarth                     DFT functionals, gCP, sTDA/sTD-DF
   Ed Valeev, F. Pavosevic, A. Kumar             : LibInt (2-el integral package), F12 methods
   Garnet Chan, S. Sharma, J. Yang, R. Olivares  : DMRG
   Ulf Ekstrom                                   : XCFun DFT Library
   Mihaly Kallay                                 : mrcc  (arbitrary order and MRCC methods)
   Andreas Klamt, Michael Diedenhofen            : otool_cosmo (COSMO solvation model)
   Jiri Pittner, Ondrej Demel                    : Mk-CCSD
   Frank Weinhold                                : gennbo (NPA and NBO analysis)
   Christopher J. Cramer and Donald G. Truhlar   : smd solvation model
   Lars Goerigk                                  : TD-DFT with DH, B97 family of functionals
   V. Asgeirsson, H. Jonsson                     : NEB implementation
   FAccTs GmbH                                   : IRC, NEB, NEB-TS, Multilevel, MM, QM/MM, CI optimization
   S Lehtola, MJT Oliveira, MAL Marques          : LibXC Library


 Your calculation uses the libint2 library for the computation of 2-el integrals
 For citations please refer to: http://libint.valeyev.net

 Your ORCA version has been built with support for libXC version: 4.2.3
 For citations please refer to: https://tddft.org/programs/libxc/

 This ORCA versions uses:
   CBLAS   interface :  Fast vector & matrix operations
   LAPACKE interface :  Fast linear algebra routines
   SCALAPACK package :  Parallel linear algebra routines




***************************************
The coordinates will be read from file: init.xyz
***************************************


Your calculation utilizes the geometrical counterpoise correction gCP
Please cite in your paper:
H.Kruse, S. Grimme J.Chem.Phys., 136, (2012), 154101 
   

Your calculation utilizes the atom-pairwise dispersion correction
based on tight binding partial charges (D4)
Cite in your paper:
E.Caldeweyher, C.Bannwarth, S.Grimme, J.Chem.Phys., (2017), 147, 034112.
E.Caldeweyher, S.Ehlert, A.Hansen, H.Neugebauer, S.Grimme, J.Chem.Phys., (2018), in progress.
   

----- Orbital basis set information -----
Your calculation utilizes the basis: def2-TZVP
   F. Weigend and R. Ahlrichs, Phys. Chem. Chem. Phys. 7, 3297 (2005).

----- AuxJ basis set information -----
Your calculation utilizes the auxiliary basis: def2/J
   F. Weigend, Phys. Chem. Chem. Phys. 8, 1057 (2006).

================================================================================
                                        WARNINGS
                       Please study these warnings very carefully!
================================================================================


WARNING: Geometry Optimization
  ===> : Switching off AutoStart
         For restart on a previous wavefunction, please use MOREAD

INFO   : the flag for use of LIBINT has been found!

================================================================================
                                       INPUT FILE
================================================================================
NAME = acetamide.inp
|  1> ! revPBE D4 gCP(DFT/TZ) def2-TZVP Opt Freq TightOpt TightSCF Grid4 FinalGrid5 LargePrint
|  2> 
|  3> *xyzfile 0 1 init.xyz
|  4> 
|  5>                          ****END OF INPUT****
================================================================================

                       *****************************
                       * Geometry Optimization Run *
                       *****************************

Geometry optimization settings:
Update method            Update   .... BFGS
Choice of coordinates    CoordSys .... Z-matrix Internals
Initial Hessian          InHess   .... Almoef's Model

Convergence Tolerances:
Energy Change            TolE     ....  1.0000e-06 Eh
Max. Gradient            TolMAXG  ....  1.0000e-04 Eh/bohr
RMS Gradient             TolRMSG  ....  3.0000e-05 Eh/bohr
Max. Displacement        TolMAXD  ....  1.0000e-03 bohr
RMS Displacement         TolRMSD  ....  6.0000e-04 bohr
Strict Convergence                ....  False
------------------------------------------------------------------------------
                        ORCA OPTIMIZATION COORDINATE SETUP
------------------------------------------------------------------------------

The optimization will be done in new redundant internal coordinates
Making redundant internal coordinates   ...  (new redundants) done
Evaluating the initial hessian          ...  (Almloef) done
Evaluating the coordinates              ...  done
Calculating the B-matrix                .... done
Calculating the G-matrix                .... done
Diagonalizing the G-matrix              .... done
The first mode is                       ....    9
The number of degrees of freedom        ....   21

    -----------------------------------------------------------------
                    Redundant Internal Coordinates


    -----------------------------------------------------------------
         Definition                    Initial Value    Approx d2E/dq
    -----------------------------------------------------------------
      1. B(C   1,C   0)                  1.5127         0.398036   
      2. B(H   2,C   0)                  1.1590         0.279484   
      3. B(H   3,C   0)                  1.1590         0.279484   
      4. B(H   4,C   0)                  1.2030         0.237756   
      5. B(N   5,C   1)                  1.3385         0.676180   
      6. B(O   6,C   1)                  1.2411         0.967169   
      7. B(H   7,N   5)                  1.0017         0.446096   
      8. B(H   8,N   5)                  1.0186         0.419193   
      9. A(H   3,C   0,H   4)          109.9771         0.262495   
     10. A(C   1,C   0,H   4)          111.3338         0.306312   
     11. A(H   2,C   0,H   4)          109.9771         0.262495   
     12. A(C   1,C   0,H   2)          107.5094         0.314413   
     13. A(H   2,C   0,H   3)          110.4814         0.268962   
     14. A(C   1,C   0,H   3)          107.5094         0.314413   
     15. A(C   0,C   1,N   5)          116.3078         0.404702   
     16. A(N   5,C   1,O   6)          121.4187         0.471789   
     17. A(C   0,C   1,O   6)          122.2736         0.431341   
     18. A(H   7,N   5,H   8)          120.0610         0.303196   
     19. A(C   1,N   5,H   8)          118.9770         0.362047   
     20. A(C   1,N   5,H   7)          120.9620         0.365918   
     21. D(N   5,C   1,C   0,H   3)    120.5181         0.011763   
     22. D(O   6,C   1,C   0,H   2)     59.4819         0.011763   
     23. D(N   5,C   1,C   0,H   2)   -120.5181         0.011763   
     24. D(O   6,C   1,C   0,H   3)    -59.4819         0.011763   
     25. D(O   6,C   1,C   0,H   4)    180.0000         0.011763   
     26. D(N   5,C   1,C   0,H   4)      0.0000         0.011763   
     27. D(H   7,N   5,C   1,C   0)      0.0000         0.037582   
     28. D(H   8,N   5,C   1,O   6)      0.0000         0.037582   
     29. D(H   8,N   5,C   1,C   0)    180.0000         0.037582   
     30. D(H   7,N   5,C   1,O   6)    180.0000         0.037582   
    -----------------------------------------------------------------

Number of atoms                         .... 9
Number of degrees of freedom            .... 30

         *************************************************************
         *                GEOMETRY OPTIMIZATION CYCLE   1            *
         *************************************************************
---------------------------------
CARTESIAN COORDINATES (ANGSTROEM)
---------------------------------
  C      0.707816    1.274796    0.000000
  C     -0.077144   -0.018342    0.000000
  H      0.408955    1.864121    0.952172
  H      0.408955    1.864121   -0.952172
  H      1.892817    1.067452    0.000000
  N      0.640717   -1.148042    0.000000
  O     -1.318008   -0.040325    0.000000
  H      1.642092   -1.122315    0.000000
  H      0.153269   -2.042479    0.000000

----------------------------
CARTESIAN COORDINATES (A.U.)
----------------------------
  NO LB      ZA    FRAG     MASS         X           Y           Z
   0 C     6.0000    0    12.011    1.337579    2.409015    0.000000
   1 C     6.0000    0    12.011   -0.145781   -0.034661    0.000000
   2 H     1.0000    0     1.008    0.772813    3.522677    1.799344
   3 H     1.0000    0     1.008    0.772813    3.522677   -1.799344
   4 H     1.0000    0     1.008    3.576906    2.017192    0.000000
   5 N     7.0000    0    14.007    1.210779   -2.169484    0.000000
   6 O     8.0000    0    15.999   -2.490674   -0.076204    0.000000
   7 H     1.0000    0     1.008    3.103104   -2.120869    0.000000
   8 H     1.0000    0     1.008    0.289636   -3.859726    0.000000

--------------------------------
INTERNAL COORDINATES (ANGSTROEM)
--------------------------------
 C      0   0   0     0.000000000000     0.00000000     0.00000000
 C      1   0   0     1.512735038159     0.00000000     0.00000000
 H      1   2   0     1.158987842137   107.50938556     0.00000000
 H      1   2   3     1.158987842137   107.50938556   241.03629036
 H      1   2   3     1.203004085506   111.33380497   120.51814518
 N      2   1   3     1.338486391006   116.30775779   239.48185482
 O      2   1   3     1.241058413694   122.27355911    59.48185482
 H      6   2   1     1.001705709027   120.96199159     0.00000000
 H      6   2   1     1.018637843810   118.97697526   180.00000000

---------------------------
INTERNAL COORDINATES (A.U.)
---------------------------
 C      0   0   0     0.000000000000     0.00000000     0.00000000
 C      1   0   0     2.858654935308     0.00000000     0.00000000
 H      1   2   0     2.190169614184   107.50938556     0.00000000
 H      1   2   3     2.190169614184   107.50938556   241.03629036
 H      1   2   3     2.273348259594   111.33380497   120.51814518
 N      2   1   3     2.529372712982   116.30775779   239.48185482
 O      2   1   3     2.345260518081   122.27355911    59.48185482
 H      6   2   1     1.892949456847   120.96199159     0.00000000
 H      6   2   1     1.924946554449   118.97697526   180.00000000

---------------------
BASIS SET INFORMATION
---------------------
There are 4 groups of distinct atoms

 Group   1 Type C   : 11s6p2d1f contracted to 5s3p2d1f pattern {62111/411/11/1}
 Group   2 Type H   : 5s1p contracted to 3s1p pattern {311/1}
 Group   3 Type N   : 11s6p2d1f contracted to 5s3p2d1f pattern {62111/411/11/1}
 Group   4 Type O   : 11s6p2d1f contracted to 5s3p2d1f pattern {62111/411/11/1}

Atom   0C    basis set group =>   1
Atom   1C    basis set group =>   1
Atom   2H    basis set group =>   2
Atom   3H    basis set group =>   2
Atom   4H    basis set group =>   2
Atom   5N    basis set group =>   3
Atom   6O    basis set group =>   4
Atom   7H    basis set group =>   2
Atom   8H    basis set group =>   2

-------------------------
BASIS SET IN INPUT FORMAT
-------------------------

 # Basis set for element : H 
 NewGTO H 
 S 3 
   1      34.0613410000      0.0254393072
   2       5.1235746000      0.1900859489
   3       1.1646626000      0.8524411301
 S 1 
   1       0.3272304100      1.0000000000
 S 1 
   1       0.1030724100      1.0000000000
 P 1 
   1       0.8000000000      1.0000000000
  end;

 # Basis set for element : C 
 NewGTO C 
 S 6 
   1   13575.3496820000      0.0006064549
   2    2035.2333680000      0.0046979088
   3     463.2256235900      0.0243324776
   4     131.2001959800      0.0973999683
   5      42.8530158910      0.3019558425
   6      15.5841857660      0.6623360915
 S 2 
   1       6.2067138508      0.6559530854
   2       2.5764896527      0.3758563329
 S 1 
   1       0.5769633942      1.0000000000
 S 1 
   1       0.2297283136      1.0000000000
 S 1 
   1       0.0951644400      1.0000000000
 P 4 
   1      34.6972322440      0.0113272200
   2       7.9582622826      0.0761696592
   3       2.3780826883      0.3019225220
   4       0.8143320818      0.7278502735
 P 1 
   1       0.2888754725      1.0000000000
 P 1 
   1       0.1005682367      1.0000000000
 D 1 
   1       1.0970000000      1.0000000000
 D 1 
   1       0.3180000000      1.0000000000
 F 1 
   1       0.7610000000      1.0000000000
  end;

 # Basis set for element : N 
 NewGTO N 
 S 6 
   1   19730.8006470000      0.0005862639
   2    2957.8958745000      0.0045428821
   3     673.2213359500      0.0235584136
   4     190.6824949400      0.0947091933
   5      62.2954418980      0.2971978492
   6      22.6541611820      0.6691624689
 S 2 
   1       8.9791477428      0.6459668363
   2       3.6863002370      0.3870057440
 S 1 
   1       0.8466007680      1.0000000000
 S 1 
   1       0.3364713377      1.0000000000
 S 1 
   1       0.1364765367      1.0000000000
 P 4 
   1      49.2003805100      0.0114488252
   2      11.3467905370      0.0784223379
   3       3.4273972411      0.3081809474
   4       1.1785525134      0.7202719637
 P 1 
   1       0.4164220497      1.0000000000
 P 1 
   1       0.1426082601      1.0000000000
 D 1 
   1       1.6540000000      1.0000000000
 D 1 
   1       0.4690000000      1.0000000000
 F 1 
   1       1.0930000000      1.0000000000
  end;

 # Basis set for element : O 
 NewGTO O 
 S 6 
   1   27032.3826310000      0.0005722733
   2    4052.3871392000      0.0044353233
   3     922.3272271000      0.0230201076
   4     261.2407098900      0.0928224906
   5      85.3546413510      0.2937850002
   6      31.0350352450      0.6740160450
 S 2 
   1      12.2608607280      0.6383993702
   2       4.9987076005      0.3953458713
 S 1 
   1       1.1703108158      1.0000000000
 S 1 
   1       0.4647474099      1.0000000000
 S 1 
   1       0.1850453636      1.0000000000
 P 4 
   1      63.2749548010      0.0120183321
   2      14.6270493790      0.0830054217
   3       4.4501223456      0.3199174393
   4       1.5275799647      0.7071554292
 P 1 
   1       0.5293511794      1.0000000000
 P 1 
   1       0.1747842127      1.0000000000
 D 1 
   1       2.3140000000      1.0000000000
 D 1 
   1       0.6450000000      1.0000000000
 F 1 
   1       1.4280000000      1.0000000000
  end;

---------------------------------
AUXILIARY/J BASIS SET INFORMATION
---------------------------------
There are 4 groups of distinct atoms

 Group   1 Type C   : 12s5p4d2f1g contracted to 6s4p3d1f1g pattern {711111/2111/211/2/1}
 Group   2 Type H   : 5s2p1d contracted to 3s1p1d pattern {311/2/1}
 Group   3 Type N   : 12s5p4d2f1g contracted to 6s4p3d1f1g pattern {711111/2111/211/2/1}
 Group   4 Type O   : 12s5p4d2f1g contracted to 6s4p3d1f1g pattern {711111/2111/211/2/1}

Atom   0C    basis set group =>   1
Atom   1C    basis set group =>   1
Atom   2H    basis set group =>   2
Atom   3H    basis set group =>   2
Atom   4H    basis set group =>   2
Atom   5N    basis set group =>   3
Atom   6O    basis set group =>   4
Atom   7H    basis set group =>   2
Atom   8H    basis set group =>   2

-------------------------------------
AUXILIARY/J BASIS SET IN INPUT FORMAT
-------------------------------------

 # Auxiliary/J basis set for element : H 
 NewAuxJGTO H 
 S 3 
   1      15.6752927000      0.1007184237
   2       3.6063578000      0.3404257499
   3       1.2080016000      0.6491996172
 S 1 
   1       0.4726794000      1.0000000000
 S 1 
   1       0.2018100000      1.0000000000
 P 2 
   1       2.0281365000      0.5596620919
   2       0.5358730000      0.5596620919
 D 1 
   1       2.2165124000      1.0000000000
  end;

 # Auxiliary/J basis set for element : C 
 NewAuxJGTO C 
 S 7 
   1    1861.0916331000      0.0134602335
   2     642.9939764000      0.0299160374
   3     235.1105725000      0.1008649584
   4      90.7028894000      0.2370970548
   5      36.7794552000      0.3924037254
   6      15.6046273000      0.3195862154
   7       6.8907294000      0.0530104441
 S 1 
   1       3.1478850000     -1.0000000000
 S 1 
   1       1.4777287000      1.0000000000
 S 1 
   1       0.7076466000      1.0000000000
 S 1 
   1       0.3430122000      1.0000000000
 S 1 
   1       0.1669453000      1.0000000000
 P 2 
   1      13.5472892000     -0.6769313712
   2       5.4669419000     -0.3779500978
 P 1 
   1       2.1751721000      1.0000000000
 P 1 
   1       0.8582194000      1.0000000000
 P 1 
   1       0.3376720000      1.0000000000
 D 2 
   1       5.9287253000     -0.3533329857
   2       1.9809209000     -0.7456525731
 D 1 
   1       0.8055417000     -1.0000000000
 D 1 
   1       0.3531244000     -1.0000000000
 F 2 
   1       1.6755626000      0.6311076882
   2       0.5997536000      0.4968166032
 G 1 
   1       1.0024600000     -1.0000000000
  end;

 # Auxiliary/J basis set for element : N 
 NewAuxJGTO N 
 S 7 
   1    2542.9401785000      0.0128431329
   2    1029.5472946000      0.0206655120
   3     424.9053546000      0.0652200677
   4     178.4573708000      0.1617388940
   5      76.1362742000      0.3094256941
   6      32.9338653000      0.3918849307
   7      14.4155436000      0.1822470660
 S 1 
   1       6.3718891000     -1.0000000000
 S 1 
   1       2.8381742000      1.0000000000
 S 1 
   1       1.2711793000      1.0000000000
 S 1 
   1       0.5712407000      1.0000000000
 S 1 
   1       0.2569887000      1.0000000000
 P 2 
   1      17.8975990000     -1.0974070137
   2       6.5346319000      0.1380055963
 P 1 
   1       2.3523645000      1.0000000000
 P 1 
   1       0.8397377000      1.0000000000
 P 1 
   1       0.2989335000      1.0000000000
 D 2 
   1       7.6909870000      0.1770780943
   2       2.3044972000      0.8918319220
 D 1 
   1       0.8403987000      1.0000000000
 D 1 
   1       0.3303797000      1.0000000000
 F 2 
   1       2.3331076000      0.6223178877
   2       0.8446137000      0.5036714203
 G 1 
   1       1.4037700000     -1.0000000000
  end;

 # Auxiliary/J basis set for element : O 
 NewAuxJGTO O 
 S 7 
   1    2876.8216605000      0.0168151159
   2    1004.7443032000      0.0340137548
   3     369.7579954000      0.1194951309
   4     142.9442404000      0.2664627624
   5      57.8366425000      0.4202764046
   6      24.3864983000      0.2765077335
   7      10.6622662000      0.0057008815
 S 1 
   1       4.8070437000     -1.0000000000
 S 1 
   1       2.2210770000      1.0000000000
 S 1 
   1       1.0447795000      1.0000000000
 S 1 
   1       0.4968425000      1.0000000000
 S 1 
   1       0.2371384000      1.0000000000
 P 2 
   1      64.2613382000     -0.2731534179
   2      16.3006076000     -0.8168011598
 P 1 
   1       4.3550542000      1.0000000000
 P 1 
   1       1.2019554000      1.0000000000
 P 1 
   1       0.3354196000      1.0000000000
 D 2 
   1       9.2146611000     -0.4661230638
   2       2.8435251000     -0.6600908911
 D 1 
   1       0.9955759000     -1.0000000000
 D 1 
   1       0.3649441000     -1.0000000000
 F 2 
   1       2.6420115000      0.5931563945
   2       0.7345613000      0.5931563945
 G 1 
   1       1.3931000000     -1.0000000000
  end;

------------------------------------------------------------------------------
                           ORCA GTO INTEGRAL CALCULATION
                           -- RI-GTO INTEGRALS CHOSEN --
------------------------------------------------------------------------------

                         BASIS SET STATISTICS AND STARTUP INFO

Gaussian basis set:
 # of primitive gaussian shells          ...  110
 # of primitive gaussian functions       ...  224
 # of contracted shells                  ...   64
 # of contracted basis functions         ...  154
 Highest angular momentum                ...    3
 Maximum contraction depth               ...    6
Auxiliary gaussian basis set:
 # of primitive gaussian shells          ...  136
 # of primitive gaussian functions       ...  360
 # of contracted shells                  ...   85
 # of contracted aux-basis functions     ...  251
 Highest angular momentum                ...    4
 Maximum contraction depth               ...    7
Ratio of auxiliary to basis functions    ...  1.63
Integral package used                  ... LIBINT
 One Electron integrals                  ... done
 Ordering auxiliary basis shells         ... done
 Integral threshhold             Thresh  ...  2.500e-11
 Primitive cut-off               TCut    ...  2.500e-12
 Pre-screening matrix                    ... done
 Shell pair data                         ... 
 Ordering of the shell pairs             ... done (   0.000 sec) 2044 of 2080 pairs
 Determination of significant pairs      ... done (   0.000 sec)
 Creation of shell pair data             ... done (   0.000 sec)
 Storage of shell pair data              ... done (   0.000 sec)
 Shell pair data done in (   0.001 sec)
 Computing two index integrals           ... done
 Cholesky decomposition of the V-matrix  ... done


Timings:
 Total evaluation time                   ...   0.091 sec (  0.002 min)
 One electron matrix time                ...   0.009 sec (  0.000 min) =  9.7%
 Schwartz matrix evaluation time         ...   0.063 sec (  0.001 min) = 69.0%
 Two index repulsion integral time       ...   0.001 sec (  0.000 min) =  1.3%
 Cholesky decomposition of V             ...   0.001 sec (  0.000 min) =  1.4%
 Three index repulsion integral time     ...   0.000 sec (  0.000 min) =  0.0%

-------------------------------------------------------------------------------
                                 ORCA SCF
-------------------------------------------------------------------------------

------------
SCF SETTINGS
------------
Hamiltonian:
 Density Functional     Method          .... DFT(GTOs)
 Exchange Functional    Exchange        .... PBE
   PBE kappa parameter   XKappa         ....  1.245000
   PBE mue parameter    XMuePBE         ....  0.219520
 Correlation Functional Correlation     .... PBE
   PBE beta parameter  CBetaPBE         ....  0.066725
 LDA part of GGA corr.  LDAOpt          .... PW91-LDA
 Gradients option       PostSCFGGA      .... off
   Density functional embedding theory  .... OFF
   NL short-range parameter             ....  3.700000
 RI-approximation to the Coulomb term is turned on
   Number of auxiliary basis functions  .... 251


General Settings:
 Integral files         IntName         .... acetamide
 Hartree-Fock type      HFTyp           .... RHF
 Total Charge           Charge          ....    0
 Multiplicity           Mult            ....    1
 Number of Electrons    NEL             ....   32
 Basis Dimension        Dim             ....  154
 Nuclear Repulsion      ENuc            ....    120.8778823632 Eh

Convergence Acceleration:
 DIIS                   CNVDIIS         .... on
   Start iteration      DIISMaxIt       ....    12
   Startup error        DIISStart       ....  0.200000
   # of expansion vecs  DIISMaxEq       ....     5
   Bias factor          DIISBfac        ....   1.050
   Max. coefficient     DIISMaxC        ....  10.000
 Newton-Raphson         CNVNR           .... off
 SOSCF                  CNVSOSCF        .... on
   Start iteration      SOSCFMaxIt      ....   150
   Startup grad/error   SOSCFStart      ....  0.003300
 Level Shifting         CNVShift        .... on
   Level shift para.    LevelShift      ....    0.2500
   Turn off err/grad.   ShiftErr        ....    0.0010
 Zerner damping         CNVZerner       .... off
 Static damping         CNVDamp         .... on
   Fraction old density DampFac         ....    0.7000
   Max. Damping (<1)    DampMax         ....    0.9800
   Min. Damping (>=0)   DampMin         ....    0.0000
   Turn off err/grad.   DampErr         ....    0.1000
 Fernandez-Rico         CNVRico         .... off

SCF Procedure:
 Maximum # iterations   MaxIter         ....   125
 SCF integral mode      SCFMode         .... Direct
   Integral package                     .... LIBINT
 Reset frequency        DirectResetFreq ....    20
 Integral Threshold     Thresh          ....  2.500e-11 Eh
 Primitive CutOff       TCut            ....  2.500e-12 Eh

Convergence Tolerance:
 Convergence Check Mode ConvCheckMode   .... Total+1el-Energy
 Convergence forced     ConvForced      .... 0
 Energy Change          TolE            ....  1.000e-08 Eh
 1-El. energy change                    ....  1.000e-05 Eh
 Orbital Gradient       TolG            ....  1.000e-05
 Orbital Rotation angle TolX            ....  1.000e-05
 DIIS Error             TolErr          ....  5.000e-07


Diagonalization of the overlap matrix:
Smallest eigenvalue                        ... 4.647e-04
Time for diagonalization                   ...    0.005 sec
Threshold for overlap eigenvalues          ... 1.000e-08
Number of eigenvalues below threshold      ... 0
Time for construction of square roots      ...    0.002 sec
Total time needed                          ...    0.008 sec

-------------------
DFT GRID GENERATION
-------------------

General Integration Accuracy     IntAcc      ...  4.670
Radial Grid Type                 RadialGrid  ... Gauss-Chebyshev
Angular Grid (max. acc.)         AngularGrid ... Lebedev-302
Angular grid pruning method      GridPruning ... 3 (G Style)
Weight generation scheme         WeightScheme... Becke
Basis function cutoff            BFCut       ...    1.0000e-11
Integration weight cutoff        WCut        ...    1.0000e-14
Grids for H and He will be reduced by one unit

# of grid points (after initial pruning)     ...  41818 (   0.0 sec)
# of grid points (after weights+screening)   ...  39717 (   0.0 sec)
nearest neighbour list constructed           ...    0.0 sec
Grid point re-assignment to atoms done       ...    0.0 sec
Grid point division into batches done        ...    0.1 sec
Reduced shell lists constructed in    0.3 sec

Total number of grid points                  ...    39717
Total number of batches                      ...      627
Average number of points per batch           ...       63
Average number of grid points per atom       ...     4413
Average number of shells per batch           ...    45.67 (71.36%)
Average number of basis functions per batch  ...   112.98 (73.36%)
Average number of large shells per batch     ...    37.97 (83.14%)
Average number of large basis fcns per batch ...    92.94 (82.26%)
Maximum spatial batch extension              ...  17.53, 19.32, 20.64 au
Average spatial batch extension              ...   2.78,  2.74,  2.85 au

Time for grid setup =    0.355 sec

------------------------------
INITIAL GUESS: MODEL POTENTIAL
------------------------------
Loading Hartree-Fock densities                     ... done
Calculating cut-offs                               ... done
Setting up the integral package                    ... done
Initializing the effective Hamiltonian             ... done
Starting the Coulomb interaction                   ... done (   0.0 sec)
Reading the grid                                   ... done
Mapping shells                                     ... done
Starting the XC term evaluation                    ... done (   0.3 sec)
  promolecular density results
     # of electrons  =     31.997623244
     EX              =    -26.525113901
     EC              =     -1.042941500
     EX+EC           =    -27.568055400
Transforming the Hamiltonian                       ... done (   0.0 sec)
Diagonalizing the Hamiltonian                      ... done (   0.0 sec)
Back transforming the eigenvectors                 ... done (   0.0 sec)
Now organizing SCF variables                       ... done
                      ------------------
                      INITIAL GUESS DONE (   0.8 sec)
                      ------------------
----------------------
INITIAL GUESS ORBITALS
----------------------
                      0         1         2         3         4         5   
                 -18.96167 -14.22664 -10.07486 -10.07320  -1.08933  -0.95787
                   2.00000   2.00000   2.00000   2.00000   2.00000   2.00000
                  --------  --------  --------  --------  --------  --------
  0C   1s        -0.000012  0.000009  0.017422 -0.467724  0.007964 -0.008127
  0C   2s         0.000059 -0.000054  0.022675 -0.606661  0.016316 -0.016978
  0C   3s        -0.000146  0.000776  0.000423 -0.038074 -0.025869  0.025429
  0C   4s        -0.001933 -0.001588  0.011799  0.022275 -0.012544  0.031357
  0C   5s         0.006902 -0.000055 -0.013239 -0.033935  0.004733 -0.007412
  0C   1pz       -0.000000 -0.000000 -0.000000  0.000000 -0.000000  0.000000
  0C   1px        0.000012 -0.000025  0.000032  0.000470  0.011435  0.002246
  0C   1py        0.000206 -0.000266 -0.000143  0.000537  0.011816 -0.016998
  0C   2pz        0.000000  0.000000  0.000000 -0.000000  0.000000 -0.000000
  0C   2px        0.001947  0.000006 -0.004928  0.001575  0.000854  0.001496
  0C   2py        0.000198  0.001459 -0.005887  0.000253  0.000646 -0.014661
  0C   3pz       -0.000000  0.000000 -0.000000 -0.000000  0.000000  0.000000
  0C   3px        0.001244  0.001323  0.002518  0.000932 -0.000513 -0.000434
  0C   3py       -0.002176 -0.001056  0.004034  0.002603 -0.000396  0.001750
  0C   1dz2       0.000134 -0.000057 -0.000071  0.000095  0.000471 -0.000810
  0C   1dxz      -0.000000 -0.000000 -0.000000 -0.000000  0.000000 -0.000000
  0C   1dyz       0.000000 -0.000000  0.000000 -0.000000  0.000000 -0.000000
  0C   1dx2y2     0.000027  0.000076  0.000088  0.000114 -0.000181 -0.002080
  0C   1dxy      -0.000018  0.000046 -0.000100 -0.000221 -0.000988  0.000077
  0C   2dz2      -0.000552  0.000840  0.000580 -0.000883  0.000833 -0.001882
  0C   2dxz       0.000000 -0.000000 -0.000000  0.000000 -0.000000  0.000000
  0C   2dyz       0.000000  0.000000  0.000000 -0.000000  0.000000 -0.000000
  0C   2dx2y2    -0.000119 -0.000128 -0.001370  0.000564 -0.001685 -0.004296
  0C   2dxy      -0.001118 -0.000141  0.001357 -0.000222  0.001496  0.000022
  0C   1f0        0.000000  0.000000  0.000000 -0.000000 -0.000000 -0.000000
  0C   1f+1      -0.000002 -0.000064 -0.000451  0.000510 -0.000090 -0.000275
  0C   1f-1       0.000055 -0.000069 -0.000268 -0.000863 -0.000529  0.000933
  0C   1f+2      -0.000000 -0.000000 -0.000000  0.000000 -0.000000  0.000000
  0C   1f-2      -0.000000 -0.000000 -0.000000  0.000000 -0.000000  0.000000
  0C   1f+3       0.000140 -0.000057  0.000723  0.000625 -0.000480 -0.000519
  0C   1f-3      -0.000064  0.000066 -0.000132 -0.000147 -0.000502 -0.001193
  1C   1s        -0.000045  0.000005  0.467750  0.017456  0.057632 -0.023979
  1C   2s         0.000247 -0.000007  0.605607  0.022568  0.119596 -0.050094
  1C   3s        -0.000081 -0.001449  0.041053  0.001544 -0.190984  0.081904
  1C   4s        -0.005158  0.011637 -0.010045 -0.004387 -0.132036  0.051624
  1C   5s        -0.003225 -0.007660  0.013715  0.013432 -0.011904  0.014989
  1C   1pz       -0.000000 -0.000000  0.000000 -0.000000  0.000000 -0.000000
  1C   1px        0.000589  0.000084 -0.000696 -0.000230  0.109106  0.122425
  1C   1py       -0.000048 -0.000266 -0.000298 -0.000425  0.022850 -0.084796
  1C   2pz        0.000000 -0.000000 -0.000000  0.000000 -0.000000  0.000000
  1C   2px        0.008498  0.004209 -0.007961  0.001717  0.027099  0.044306
  1C   2py        0.000894 -0.005454 -0.016354  0.003268  0.001941 -0.030554
  1C   3pz        0.000000 -0.000000  0.000000  0.000000 -0.000000  0.000000
  1C   3px       -0.009338 -0.004892  0.004004  0.003985  0.000930  0.009565
  1C   3py        0.000391  0.004270  0.009001  0.001736  0.001596 -0.003475
  1C   1dz2       0.000260 -0.000063 -0.002770 -0.000149  0.012382 -0.003466
  1C   1dxz      -0.000000  0.000000  0.000000  0.000000  0.000000  0.000000
  1C   1dyz       0.000000  0.000000  0.000000 -0.000000  0.000000 -0.000000
  1C   1dx2y2    -0.000253 -0.000061  0.001070  0.000028 -0.012979 -0.010455
  1C   1dxy       0.000009 -0.000033 -0.000660  0.000067  0.001296 -0.008111
  1C   2dz2       0.001786 -0.002069 -0.002387  0.000177  0.009638 -0.002074
  1C   2dxz       0.000000 -0.000000 -0.000000 -0.000000 -0.000000 -0.000000
  1C   2dyz       0.000000  0.000000 -0.000000  0.000000 -0.000000  0.000000
  1C   2dx2y2    -0.005731 -0.001069  0.004428 -0.002265  0.003814  0.000701
  1C   2dxy      -0.000354 -0.002297 -0.008657  0.003930 -0.001618 -0.000092
  1C   1f0        0.000000  0.000000  0.000000 -0.000000  0.000000 -0.000000
  1C   1f+1      -0.000339 -0.000027  0.000870 -0.000421 -0.002820 -0.003085
  1C   1f-1      -0.000023 -0.000016  0.000939 -0.000621 -0.000530  0.001933
  1C   1f+2      -0.000000  0.000000  0.000000 -0.000000  0.000000 -0.000000
  1C   1f-2       0.000000  0.000000  0.000000  0.000000 -0.000000  0.000000
  1C   1f+3       0.000071 -0.000251  0.002663  0.000695 -0.007553  0.000737
  1C   1f-3      -0.000037  0.000047  0.000193 -0.000058 -0.000288  0.000526
  2H   1s         0.000053 -0.000084 -0.000166  0.000272 -0.003306  0.002369
  2H   2s         0.000240 -0.000211 -0.000893  0.001512 -0.004053  0.002415
  2H   3s        -0.000581  0.000541  0.000073  0.005265 -0.000956  0.000581
  2H   1pz        0.000004  0.000020  0.000049 -0.001304  0.000556 -0.000158
  2H   1px        0.000098 -0.000071  0.000012  0.000482  0.000219  0.000230
  2H   1py       -0.000087  0.000042  0.000419 -0.000887  0.000982 -0.000505
  3H   1s         0.000053 -0.000084 -0.000166  0.000272 -0.003306  0.002369
  3H   2s         0.000240 -0.000211 -0.000893  0.001512 -0.004053  0.002415
  3H   3s        -0.000581  0.000541  0.000073  0.005265 -0.000956  0.000581
  3H   1pz       -0.000004 -0.000020 -0.000049  0.001304 -0.000556  0.000158
  3H   1px        0.000098 -0.000071  0.000012  0.000482  0.000219  0.000230
  3H   1py       -0.000087  0.000042  0.000419 -0.000887  0.000982 -0.000505
  4H   1s        -0.000045  0.000098  0.000162  0.000014 -0.001995  0.006112
  4H   2s        -0.000976  0.000445  0.001118 -0.000407 -0.000393  0.007457
  4H   3s        -0.001140 -0.000203 -0.000167  0.005742 -0.001064  0.001507
  4H   1pz       -0.000000 -0.000000  0.000000 -0.000000  0.000000  0.000000
  4H   1px        0.000210 -0.000137 -0.000217 -0.000945  0.000130 -0.001422
  4H   1py        0.000058  0.000002  0.000353  0.000194  0.000065 -0.000962
  5N   1s        -0.000006  0.449411 -0.000035 -0.000005  0.025798 -0.094190
  5N   2s         0.000037  0.625423 -0.000111  0.000036  0.057473 -0.211657
  5N   3s        -0.000290  0.039014  0.003351 -0.000470 -0.087154  0.333046
  5N   4s        -0.001653 -0.034961 -0.015014  0.003348 -0.099912  0.402844
  5N   5s         0.006318  0.021528  0.003132 -0.003234 -0.007600  0.058899
  5N   1pz        0.000000 -0.000000 -0.000000 -0.000000 -0.000000 -0.000000
  5N   1px        0.000003 -0.000488 -0.000471  0.000014  0.024151 -0.009631
  5N   1py       -0.000092  0.000899  0.000786 -0.000181 -0.021320  0.035920
  5N   2pz       -0.000000  0.000000  0.000000  0.000000  0.000000  0.000000
  5N   2px        0.001399  0.003660  0.005815 -0.000137  0.016375 -0.015466
  5N   2py       -0.000388 -0.005778 -0.010444  0.002321 -0.014685  0.035922
  5N   3pz        0.000000  0.000000 -0.000000 -0.000000  0.000000 -0.000000
  5N   3px        0.001011  0.000301 -0.003042  0.001300 -0.001585 -0.001555
  5N   3py        0.002542  0.001548 -0.000843  0.000122 -0.001829  0.001724
  5N   1dz2       0.000156 -0.000506  0.000252 -0.000040  0.002184 -0.007494
  5N   1dxz      -0.000000 -0.000000 -0.000000  0.000000  0.000000 -0.000000
  5N   1dyz      -0.000000 -0.000000 -0.000000 -0.000000 -0.000000 -0.000000
  5N   1dx2y2     0.000006 -0.000040  0.000016  0.000044 -0.000228 -0.000850
  5N   1dxy      -0.000023 -0.000158  0.000057  0.000053  0.001519 -0.001351
  5N   2dz2      -0.000772  0.001131  0.001576  0.000151  0.005775 -0.013417
  5N   2dxz       0.000000  0.000000  0.000000 -0.000000 -0.000000  0.000000
  5N   2dyz       0.000000  0.000000  0.000000  0.000000  0.000000  0.000000
  5N   2dx2y2     0.000093  0.000995  0.002451 -0.000609 -0.001522 -0.005396
  5N   2dxy       0.000542  0.001686  0.005024 -0.000317  0.003336 -0.006858
  5N   1f0        0.000000 -0.000000 -0.000000 -0.000000 -0.000000 -0.000000
  5N   1f+1       0.000043 -0.000133 -0.000421 -0.000015 -0.000898  0.000203
  5N   1f-1      -0.000122  0.000153  0.000694  0.000006  0.000880 -0.000707
  5N   1f+2      -0.000000  0.000000 -0.000000 -0.000000 -0.000000 -0.000000
  5N   1f-2       0.000000 -0.000000 -0.000000 -0.000000 -0.000000 -0.000000
  5N   1f+3      -0.000015 -0.000018  0.001064  0.000104  0.001273 -0.005858
  5N   1f-3       0.000017 -0.000026  0.000138  0.000071  0.000930 -0.000117
  6O   1s        -0.436117  0.000002 -0.000038 -0.000004  0.088368  0.037243
  6O   2s        -0.638264 -0.000020 -0.000274  0.000029  0.206967  0.087628
  6O   3s        -0.037781  0.000113  0.003870 -0.000369 -0.308073 -0.133577
  6O   4s         0.032791  0.000556 -0.013376  0.001637 -0.402301 -0.177878
  6O   5s        -0.013337 -0.002938 -0.001691  0.002639 -0.102856 -0.054306
  6O   1pz       -0.000000 -0.000000 -0.000000  0.000000  0.000000  0.000000
  6O   1px       -0.001753  0.000153  0.000763 -0.000156 -0.115744 -0.027298
  6O   1py       -0.000015 -0.000091  0.000044 -0.000122  0.000323 -0.013842
  6O   2pz        0.000000  0.000000  0.000000 -0.000000 -0.000000 -0.000000
  6O   2px        0.006502 -0.000414 -0.009387  0.001180 -0.090442 -0.022226
  6O   2py        0.000005  0.000341 -0.000685  0.000818  0.000620 -0.011360
  6O   3pz       -0.000000 -0.000000 -0.000000 -0.000000  0.000000 -0.000000
  6O   3px       -0.000648 -0.000472 -0.000545  0.000764 -0.008523 -0.001712
  6O   3py       -0.000248 -0.000927 -0.002134  0.000876 -0.000181 -0.001056
  6O   1dz2       0.000136 -0.000085  0.000009  0.000020  0.003309  0.000885
  6O   1dxz       0.000000  0.000000 -0.000000  0.000000 -0.000000  0.000000
  6O   1dyz       0.000000  0.000000  0.000000  0.000000 -0.000000  0.000000
  6O   1dx2y2    -0.000323 -0.000016  0.000061 -0.000006 -0.005505 -0.001541
  6O   1dxy       0.000009 -0.000009  0.000101 -0.000100 -0.000023 -0.000982
  6O   2dz2      -0.000679  0.000362  0.001875 -0.000122  0.008124  0.001124
  6O   2dxz      -0.000000 -0.000000  0.000000 -0.000000 -0.000000 -0.000000
  6O   2dyz      -0.000000  0.000000  0.000000 -0.000000  0.000000 -0.000000
  6O   2dx2y2     0.001481  0.000118 -0.003618  0.000011 -0.014073 -0.003885
  6O   2dxy      -0.000069  0.000117 -0.000660  0.000567  0.000345 -0.002918
  6O   1f0       -0.000000  0.000000 -0.000000  0.000000  0.000000 -0.000000
  6O   1f+1      -0.000106  0.000060  0.000510 -0.000005  0.002243  0.000226
  6O   1f-1       0.000000  0.000005 -0.000008  0.000027 -0.000024  0.000210
  6O   1f+2       0.000000 -0.000000  0.000000 -0.000000 -0.000000 -0.000000
  6O   1f-2       0.000000  0.000000 -0.000000 -0.000000  0.000000  0.000000
  6O   1f+3      -0.000152 -0.000092  0.000840  0.000090  0.002634  0.000858
  6O   1f-3       0.000011 -0.000056  0.000037 -0.000001 -0.000074  0.000787
  7H   1s        -0.000131  0.000033 -0.000431  0.000128 -0.011994  0.071704
  7H   2s        -0.001569 -0.000473 -0.000231 -0.000143 -0.006034  0.059849
  7H   3s         0.000439 -0.002601  0.000872 -0.000705 -0.000043  0.002968
  7H   1pz        0.000000 -0.000000 -0.000000  0.000000 -0.000000  0.000000
  7H   1px        0.000318  0.000696  0.000317 -0.000034  0.002067 -0.014838
  7H   1py       -0.000063 -0.000001 -0.000541 -0.000011 -0.000330  0.001059
  8H   1s        -0.000199  0.000080 -0.000381  0.000071 -0.015419  0.063879
  8H   2s         0.000123  0.000309 -0.002035  0.001021 -0.012015  0.050762
  8H   3s         0.000105 -0.001936  0.000029  0.000342 -0.001486  0.002820
  8H   1pz        0.000000  0.000000  0.000000 -0.000000  0.000000  0.000000
  8H   1px        0.000053 -0.000229  0.000149  0.000043 -0.000687  0.005461
  8H   1py       -0.000112 -0.000446 -0.000599  0.000281 -0.003140  0.011459
                      6         7         8         9        10        11   
                  -0.76640  -0.64678  -0.59531  -0.54639  -0.49713  -0.48201
                   2.00000   2.00000   2.00000   2.00000   2.00000   2.00000
                  --------  --------  --------  --------  --------  --------
  0C   1s        -0.088511 -0.030066  0.023230 -0.017572 -0.000000 -0.008126
  0C   2s        -0.187242 -0.064082  0.049712 -0.037727 -0.000000 -0.017198
  0C   3s         0.304537  0.104641 -0.086859  0.063879  0.000000  0.027024
  0C   4s         0.347151  0.143777 -0.095339  0.091102 -0.000000  0.057491
  0C   5s         0.002495  0.014607 -0.030625  0.061879  0.000000 -0.001165
  0C   1pz       -0.000000 -0.000000 -0.000000 -0.000000 -0.225528  0.000000
  0C   1px       -0.030397  0.006939  0.000851  0.116546 -0.000000  0.160737
  0C   1py       -0.035692  0.058214 -0.082733  0.069959  0.000000  0.181887
  0C   2pz       -0.000000  0.000000  0.000000 -0.000000 -0.173984 -0.000000
  0C   2px       -0.018551  0.002446 -0.002864  0.084801 -0.000000  0.121526
  0C   2py       -0.025131  0.034813 -0.071882  0.050306 -0.000000  0.135187
  0C   3pz        0.000000 -0.000000 -0.000000 -0.000000 -0.053705 -0.000000
  0C   3px        0.001151 -0.001134  0.003325  0.022656 -0.000000  0.041122
  0C   3py        0.001035  0.008378 -0.016050 -0.000845 -0.000000  0.042540
  0C   1dz2      -0.001129  0.002145 -0.003314  0.002006 -0.000000  0.004725
  0C   1dxz       0.000000 -0.000000 -0.000000 -0.000000  0.006484 -0.000000
  0C   1dyz       0.000000  0.000000  0.000000 -0.000000 -0.003371  0.000000
  0C   1dx2y2    -0.001734  0.002676 -0.002289  0.000536  0.000000  0.005773
  0C   1dxy       0.003023 -0.001501  0.002381 -0.006609 -0.000000 -0.009293
  0C   2dz2      -0.004173 -0.001029 -0.007727  0.005648 -0.000000  0.003237
  0C   2dxz      -0.000000  0.000000  0.000000  0.000000  0.006067  0.000000
  0C   2dyz      -0.000000 -0.000000  0.000000 -0.000000  0.007499 -0.000000
  0C   2dx2y2    -0.001640  0.004723 -0.007867 -0.005352 -0.000000  0.002375
  0C   2dxy       0.003961 -0.000107  0.001653 -0.006665  0.000000 -0.007423
  0C   1f0       -0.000000  0.000000  0.000000  0.000000  0.001459 -0.000000
  0C   1f+1      -0.001824 -0.000723  0.000651 -0.001340  0.000000 -0.000945
  0C   1f-1       0.005347  0.001511 -0.000359  0.001113 -0.000000  0.000312
  0C   1f+2       0.000000  0.000000 -0.000000  0.000000  0.000359  0.000000
  0C   1f-2       0.000000 -0.000000 -0.000000  0.000000 -0.001726  0.000000
  0C   1f+3      -0.004978 -0.001723  0.000836 -0.000564  0.000000  0.001067
  0C   1f-3       0.000978  0.001865 -0.001930 -0.002400  0.000000 -0.000402
  1C   1s        -0.035943  0.051411 -0.004864  0.033489  0.000000  0.011036
  1C   2s        -0.076076  0.110165 -0.010522  0.071917  0.000000  0.023623
  1C   3s         0.124943 -0.189773  0.020288 -0.128886 -0.000000 -0.032827
  1C   4s         0.120413 -0.189308  0.003410 -0.126503  0.000000 -0.080804
  1C   5s         0.026707 -0.007664  0.005216 -0.045841 -0.000000 -0.023855
  1C   1pz        0.000000 -0.000000 -0.000000 -0.000000 -0.218562  0.000000
  1C   1px        0.082695 -0.062370  0.088213  0.155681 -0.000000 -0.182431
  1C   1py        0.106241  0.144072  0.037207 -0.155897 -0.000000 -0.169741
  1C   2pz       -0.000000  0.000000 -0.000000  0.000000 -0.176658  0.000000
  1C   2px        0.044466 -0.029065  0.049621  0.068581  0.000000 -0.101602
  1C   2py        0.069677  0.069919  0.023834 -0.098320 -0.000000 -0.125560
  1C   3pz       -0.000000  0.000000  0.000000 -0.000000 -0.034214  0.000000
  1C   3px        0.010028 -0.003132  0.006039 -0.035991 -0.000000  0.009687
  1C   3py        0.009458  0.005278  0.019426 -0.024346 -0.000000 -0.019036
  1C   1dz2      -0.003532  0.007195 -0.000323  0.003551 -0.000000 -0.001500
  1C   1dxz      -0.000000 -0.000000 -0.000000 -0.000000  0.004003 -0.000000
  1C   1dyz      -0.000000 -0.000000 -0.000000 -0.000000  0.000969 -0.000000
  1C   1dx2y2    -0.003587  0.005030  0.008427 -0.010310  0.000000  0.015338
  1C   1dxy       0.003620  0.006917 -0.006091 -0.002751 -0.000000  0.001278
  1C   2dz2      -0.004598  0.006275  0.000654 -0.001055  0.000000  0.001848
  1C   2dxz       0.000000  0.000000  0.000000  0.000000  0.006925 -0.000000
  1C   2dyz       0.000000  0.000000  0.000000  0.000000 -0.003391  0.000000
  1C   2dx2y2    -0.002511 -0.000725  0.019949  0.010544 -0.000000  0.013279
  1C   2dxy       0.009203 -0.003537 -0.010498  0.003987 -0.000000 -0.001648
  1C   1f0        0.000000 -0.000000 -0.000000 -0.000000  0.008977 -0.000000
  1C   1f+1      -0.001887  0.001343 -0.002477 -0.003227  0.000000  0.003835
  1C   1f-1      -0.002323 -0.002901 -0.000988  0.003550  0.000000  0.003827
  1C   1f+2      -0.000000 -0.000000 -0.000000 -0.000000 -0.001253 -0.000000
  1C   1f-2       0.000000 -0.000000  0.000000  0.000000 -0.000143  0.000000
  1C   1f+3       0.002107 -0.006464 -0.000541 -0.003185  0.000000  0.000752
  1C   1f-3       0.000185 -0.000805  0.004308  0.001218 -0.000000  0.005319
  2H   1s         0.062686  0.036995 -0.039010  0.021795 -0.085084  0.034101
  2H   2s         0.065914  0.042205 -0.045268  0.023060 -0.117063  0.046457
  2H   3s         0.012630  0.007152 -0.007637  0.006930 -0.025962  0.015398
  2H   1pz       -0.008595 -0.005380  0.005792 -0.002371  0.007011 -0.004884
  2H   1px        0.002106  0.001973 -0.001439  0.004455 -0.003571  0.006825
  2H   1py       -0.006448 -0.001745  0.001012  0.001242  0.009899  0.002539
  3H   1s         0.062686  0.036995 -0.039010  0.021795  0.085084  0.034101
  3H   2s         0.065914  0.042205 -0.045268  0.023060  0.117063  0.046457
  3H   3s         0.012630  0.007152 -0.007637  0.006930  0.025962  0.015398
  3H   1pz        0.008595  0.005380 -0.005792  0.002371  0.007011  0.004884
  3H   1px        0.002106  0.001973 -0.001439  0.004455  0.003571  0.006825
  3H   1py       -0.006448 -0.001745  0.001012  0.001242 -0.009899  0.002539
  4H   1s         0.054067  0.025789 -0.011749  0.056486  0.000000  0.069461
  4H   2s         0.056126  0.028631 -0.009980  0.076132 -0.000000  0.097340
  4H   3s         0.011865  0.009953 -0.000686  0.008042 -0.000000  0.026643
  4H   1pz        0.000000  0.000000 -0.000000 -0.000000 -0.006642 -0.000000
  4H   1px       -0.009132 -0.002788  0.001248 -0.008939  0.000000 -0.007862
  4H   1py        0.000573  0.001490 -0.004673  0.003340 -0.000000  0.006544
  5N   1s         0.022822 -0.019097  0.002128 -0.001985 -0.000000  0.001322
  5N   2s         0.051766 -0.043443  0.004815 -0.004706 -0.000000  0.003133
  5N   3s        -0.085830  0.072749 -0.007231  0.009628  0.000000 -0.005523
  5N   4s        -0.098247  0.090481 -0.014277  0.007287 -0.000000 -0.013350
  5N   5s        -0.030679  0.034178  0.008470  0.024434  0.000000 -0.008197
  5N   1pz        0.000000 -0.000000  0.000000 -0.000000 -0.151573  0.000000
  5N   1px        0.006361  0.212351  0.284660 -0.104403 -0.000000  0.115159
  5N   1py        0.080604 -0.241840  0.220679  0.109262  0.000000  0.077452
  5N   2pz        0.000000 -0.000000  0.000000 -0.000000 -0.130897  0.000000
  5N   2px        0.003856  0.158168  0.206365 -0.080457  0.000000  0.084426
  5N   2py        0.063321 -0.182902  0.165241  0.084936 -0.000000  0.052450
  5N   3pz        0.000000 -0.000000  0.000000  0.000000 -0.054691 -0.000000
  5N   3px        0.002092  0.046425  0.053290 -0.025099  0.000000  0.021452
  5N   3py        0.015578 -0.050345  0.052309  0.046703 -0.000000  0.019600
  5N   1dz2       0.001144 -0.000314 -0.000053 -0.000382 -0.000000  0.000091
  5N   1dxz       0.000000 -0.000000  0.000000  0.000000  0.002193  0.000000
  5N   1dyz      -0.000000  0.000000 -0.000000  0.000000 -0.003567 -0.000000
  5N   1dx2y2    -0.001991  0.005338  0.005273 -0.002864 -0.000000  0.007386
  5N   1dxy      -0.001485  0.008376 -0.003738 -0.002697 -0.000000 -0.003559
  5N   2dz2       0.001343  0.001064 -0.000038 -0.001079 -0.000000 -0.001898
  5N   2dxz      -0.000000  0.000000 -0.000000 -0.000000  0.005884 -0.000000
  5N   2dyz       0.000000 -0.000000  0.000000 -0.000000 -0.009631  0.000000
  5N   2dx2y2    -0.008567  0.002158 -0.005899 -0.000287  0.000000  0.016277
  5N   2dxy       0.000206  0.012145  0.000371 -0.003872  0.000000 -0.005044
  5N   1f0       -0.000000  0.000000 -0.000000  0.000000  0.003759 -0.000000
  5N   1f+1      -0.000201 -0.003218 -0.003780  0.001147 -0.000000 -0.000708
  5N   1f-1      -0.001505  0.003612 -0.002916 -0.001336  0.000000 -0.000951
  5N   1f+2      -0.000000  0.000000 -0.000000  0.000000  0.000571 -0.000000
  5N   1f-2       0.000000  0.000000 -0.000000  0.000000  0.001499 -0.000000
  5N   1f+3       0.001241 -0.000925 -0.000142 -0.000166 -0.000000  0.000618
  5N   1f-3       0.001355  0.000554  0.001067  0.000130 -0.000000 -0.002999
  6O   1s         0.018443 -0.024745 -0.014715 -0.036937  0.000000  0.012120
  6O   2s         0.043632 -0.058680 -0.034952 -0.087532  0.000000  0.028455
  6O   3s        -0.068131  0.091571  0.055307  0.135669  0.000000 -0.039846
  6O   4s        -0.093581  0.137067  0.077478  0.203260 -0.000000 -0.082161
  6O   5s        -0.039575  0.080621  0.045486  0.120612  0.000000 -0.040451
  6O   1pz        0.000000 -0.000000  0.000000 -0.000000 -0.230971  0.000000
  6O   1px        0.016383 -0.088941 -0.072276 -0.316934  0.000000  0.241718
  6O   1py        0.032301  0.052337  0.038420 -0.110406 -0.000000 -0.161982
  6O   2pz        0.000000  0.000000  0.000000 -0.000000 -0.186537  0.000000
  6O   2px        0.011352 -0.061851 -0.055380 -0.244180  0.000000  0.184438
  6O   2py        0.027428  0.042656  0.032209 -0.089901 -0.000000 -0.133292
  6O   3pz        0.000000 -0.000000 -0.000000  0.000000 -0.082960  0.000000
  6O   3px        0.004801 -0.021410 -0.023712 -0.101931  0.000000  0.087703
  6O   3py        0.008894  0.013785  0.009627 -0.032902  0.000000 -0.057730
  6O   1dz2      -0.000124  0.000993  0.000951  0.003675 -0.000000 -0.002374
  6O   1dxz      -0.000000 -0.000000  0.000000 -0.000000 -0.005347  0.000000
  6O   1dyz      -0.000000 -0.000000  0.000000 -0.000000 -0.000142  0.000000
  6O   1dx2y2     0.000015 -0.001743 -0.001337 -0.006064 -0.000000  0.004582
  6O   1dxy       0.001452  0.002017  0.001144 -0.003267  0.000000 -0.003577
  6O   2dz2      -0.000387  0.002244  0.002775  0.006893  0.000000 -0.004533
  6O   2dxz       0.000000  0.000000  0.000000  0.000000 -0.015440  0.000000
  6O   2dyz       0.000000  0.000000 -0.000000  0.000000 -0.000467 -0.000000
  6O   2dx2y2     0.000069 -0.003519 -0.002010 -0.013135  0.000000  0.009837
  6O   2dxy       0.005911  0.007164  0.005014 -0.009929 -0.000000 -0.010777
  6O   1f0       -0.000000 -0.000000 -0.000000  0.000000  0.002320 -0.000000
  6O   1f+1      -0.000140  0.000781  0.000569  0.001769  0.000000 -0.001290
  6O   1f-1      -0.000340 -0.000447 -0.000419  0.000627  0.000000  0.000570
  6O   1f+2       0.000000  0.000000  0.000000 -0.000000 -0.002808  0.000000
  6O   1f-2       0.000000 -0.000000 -0.000000 -0.000000 -0.000104 -0.000000
  6O   1f+3       0.000196  0.000489  0.000516  0.002449  0.000000 -0.002187
  6O   1f-3      -0.001142 -0.001814 -0.001169  0.002426  0.000000  0.002389
  7H   1s        -0.017952  0.102717  0.118175 -0.041451  0.000000  0.059944
  7H   2s        -0.012784  0.111300  0.144725 -0.050147 -0.000000  0.081475
  7H   3s        -0.003965  0.013629  0.022770 -0.006516  0.000000  0.028438
  7H   1pz        0.000000  0.000000  0.000000  0.000000 -0.006447  0.000000
  7H   1px        0.002642 -0.016474 -0.020381  0.006372  0.000000 -0.007489
  7H   1py        0.003380 -0.007608  0.006950  0.005001 -0.000000  0.002698
  8H   1s        -0.045414  0.063049 -0.136324 -0.016054  0.000000 -0.062446
  8H   2s        -0.044042  0.066549 -0.163611 -0.013024 -0.000000 -0.082435
  8H   3s        -0.001236  0.011428 -0.023752  0.000148 -0.000000 -0.024980
  8H   1pz       -0.000000 -0.000000 -0.000000 -0.000000 -0.006295  0.000000
  8H   1px       -0.004669  0.012182 -0.006472 -0.004828 -0.000000 -0.002815
  8H   1py       -0.006788  0.004315 -0.021882  0.000939 -0.000000 -0.008641
                     12        13        14        15        16        17   
                  -0.43826  -0.43195  -0.36682  -0.36474  -0.10792  -0.03451
                   2.00000   2.00000   2.00000   2.00000   0.00000   0.00000
                  --------  --------  --------  --------  --------  --------
  0C   1s        -0.003227 -0.000000  0.000000 -0.010939  0.000000 -0.041880
  0C   2s        -0.007007 -0.000000  0.000000 -0.024046  0.000000 -0.093280
  0C   3s         0.010542  0.000000  0.000000  0.047576 -0.000000  0.214305
  0C   4s         0.024205 -0.000000 -0.000000  0.033387  0.000000  0.165240
  0C   5s         0.005717  0.000000  0.000000  0.070068 -0.000000  2.052259
  0C   1pz        0.000000 -0.271626 -0.013520 -0.000000 -0.005264 -0.000000
  0C   1px        0.255683  0.000000  0.000000 -0.126772  0.000000  0.114076
  0C   1py       -0.231787 -0.000000  0.000000 -0.132631 -0.000000  0.040681
  0C   2pz        0.000000 -0.204903 -0.013858  0.000000 -0.015116  0.000000
  0C   2px        0.198889  0.000000 -0.000000 -0.100439 -0.000000  0.093362
  0C   2py       -0.183549  0.000000  0.000000 -0.099867 -0.000000 -0.007255
  0C   3pz        0.000000 -0.079298  0.026492 -0.000000 -0.096711  0.000000
  0C   3px        0.080411 -0.000000  0.000000 -0.029572  0.000000  0.173548
  0C   3py       -0.068808 -0.000000 -0.000000 -0.053624  0.000000  0.031132
  0C   1dz2      -0.011057  0.000000 -0.000000 -0.000991 -0.000000 -0.000770
  0C   1dxz      -0.000000  0.005023  0.000943  0.000000  0.002170 -0.000000
  0C   1dyz       0.000000 -0.011808 -0.002092 -0.000000  0.020535  0.000000
  0C   1dx2y2     0.007746  0.000000  0.000000 -0.005141 -0.000000 -0.005350
  0C   1dxy       0.002632 -0.000000 -0.000000  0.004843  0.000000  0.005196
  0C   2dz2      -0.004784  0.000000  0.000000  0.004626  0.000000 -0.022394
  0C   2dxz       0.000000 -0.003872  0.002382 -0.000000  0.017642 -0.000000
  0C   2dyz      -0.000000 -0.012373 -0.007354  0.000000  0.062855  0.000000
  0C   2dx2y2     0.005665  0.000000 -0.000000 -0.007116 -0.000000 -0.029047
  0C   2dxy       0.006142 -0.000000  0.000000 -0.000482  0.000000  0.040913
  0C   1f0        0.000000 -0.001300 -0.000568  0.000000  0.004554  0.000000
  0C   1f+1       0.000544 -0.000000 -0.000000 -0.000737  0.000000  0.006791
  0C   1f-1      -0.000007 -0.000000  0.000000  0.000444  0.000000 -0.002371
  0C   1f+2       0.000000 -0.000512 -0.001051 -0.000000  0.000973 -0.000000
  0C   1f-2      -0.000000  0.001120  0.000064 -0.000000 -0.006916 -0.000000
  0C   1f+3      -0.000846  0.000000  0.000000 -0.001384 -0.000000  0.001399
  0C   1f-3       0.001404 -0.000000 -0.000000 -0.001602  0.000000 -0.002292
  1C   1s        -0.005607 -0.000000  0.000000 -0.008513 -0.000000  0.003121
  1C   2s        -0.012010  0.000000  0.000000 -0.018140 -0.000000  0.007423
  1C   3s         0.018932 -0.000000  0.000000  0.023134 -0.000000  0.004224
  1C   4s         0.029192  0.000000 -0.000000  0.079391  0.000000 -0.110095
  1C   5s        -0.019465 -0.000000 -0.000000  0.011276  0.000000 -0.895437
  1C   1pz       -0.000000  0.120994  0.029879  0.000000 -0.424861 -0.000000
  1C   1px       -0.004050 -0.000000 -0.000000  0.037264  0.000000  0.009133
  1C   1py        0.071493  0.000000 -0.000000  0.077991  0.000000  0.028013
  1C   2pz       -0.000000  0.090586  0.027473  0.000000 -0.437260  0.000000
  1C   2px        0.007082  0.000000 -0.000000  0.033345 -0.000000  0.067999
  1C   2py        0.035443  0.000000  0.000000  0.047243 -0.000000 -0.002113
  1C   3pz       -0.000000  0.033490 -0.016518 -0.000000 -0.347891 -0.000000
  1C   3px       -0.011894 -0.000000 -0.000000 -0.003982  0.000000  0.013823
  1C   3py        0.022455 -0.000000  0.000000 -0.024708  0.000000 -0.071691
  1C   1dz2      -0.000233 -0.000000 -0.000000  0.001337  0.000000 -0.007540
  1C   1dxz       0.000000 -0.010844  0.019767  0.000000 -0.007254 -0.000000
  1C   1dyz       0.000000 -0.010113 -0.011909 -0.000000 -0.007107  0.000000
  1C   1dx2y2     0.008013  0.000000  0.000000 -0.001913  0.000000  0.005664
  1C   1dxy       0.010268 -0.000000 -0.000000  0.030462 -0.000000  0.000538
  1C   2dz2      -0.004014 -0.000000  0.000000 -0.002234 -0.000000  0.017159
  1C   2dxz       0.000000 -0.017176  0.032624  0.000000 -0.010134 -0.000000
  1C   2dyz       0.000000 -0.022051 -0.020976 -0.000000 -0.009054 -0.000000
  1C   2dx2y2     0.016616 -0.000000  0.000000 -0.005599  0.000000 -0.010259
  1C   2dxy       0.010663  0.000000 -0.000000  0.046655 -0.000000 -0.009381
  1C   1f0        0.000000 -0.003831 -0.001233  0.000000  0.001045 -0.000000
  1C   1f+1      -0.000391 -0.000000  0.000000 -0.000943  0.000000 -0.002276
  1C   1f-1      -0.001240 -0.000000 -0.000000 -0.000529  0.000000  0.000348
  1C   1f+2      -0.000000  0.004226 -0.005362 -0.000000  0.000095  0.000000
  1C   1f-2       0.000000 -0.003605 -0.004596 -0.000000 -0.001968  0.000000
  1C   1f+3       0.000042  0.000000  0.000000 -0.001080  0.000000 -0.000435
  1C   1f-3      -0.006755 -0.000000 -0.000000  0.009671  0.000000 -0.000524
  2H   1s        -0.090183 -0.115147 -0.009964 -0.008118  0.062079 -0.027668
  2H   2s        -0.128039 -0.166467 -0.013956 -0.011316  0.109618 -0.025718
  2H   3s        -0.036057 -0.046639 -0.027518 -0.014874  0.273691 -0.716082
  2H   1pz        0.013629  0.008811 -0.000077  0.001297  0.001249 -0.016737
  2H   1px        0.004197 -0.005485  0.000275 -0.004056  0.001323  0.011601
  2H   1py        0.001219  0.010796  0.000387 -0.003874  0.006127 -0.007072
  3H   1s        -0.090183  0.115147  0.009964 -0.008118 -0.062079 -0.027668
  3H   2s        -0.128039  0.166467  0.013956 -0.011316 -0.109618 -0.025718
  3H   3s        -0.036057  0.046639  0.027518 -0.014874 -0.273691 -0.716082
  3H   1pz       -0.013629  0.008811 -0.000077 -0.001297  0.001249  0.016737
  3H   1px        0.004197  0.005485 -0.000275 -0.004056 -0.001323  0.011601
  3H   1py        0.001219 -0.010796 -0.000387 -0.003874 -0.006127 -0.007072
  4H   1s         0.146305  0.000000  0.000000 -0.046407 -0.000000 -0.051605
  4H   2s         0.213505 -0.000000  0.000000 -0.069786  0.000000 -0.076875
  4H   3s         0.059831 -0.000000 -0.000000 -0.051812  0.000000 -1.015625
  4H   1pz        0.000000 -0.007875  0.000156  0.000000 -0.000176  0.000000
  4H   1px       -0.019072 -0.000000 -0.000000  0.002772 -0.000000 -0.028539
  4H   1py       -0.002615 -0.000000  0.000000 -0.005661  0.000000  0.013253
  5N   1s         0.009445  0.000000 -0.000000  0.014200  0.000000 -0.032003
  5N   2s         0.021764 -0.000000 -0.000000  0.033003  0.000000 -0.076074
  5N   3s        -0.037572  0.000000  0.000000 -0.060766 -0.000000  0.169943
  5N   4s        -0.059821 -0.000000 -0.000000 -0.068091  0.000000  0.100297
  5N   5s        -0.000303  0.000000  0.000000 -0.090143 -0.000000  1.012760
  5N   1pz       -0.000000  0.145857  0.395245  0.000000  0.219482  0.000000
  5N   1px       -0.020066 -0.000000 -0.000000  0.080028 -0.000000  0.083440
  5N   1py       -0.108824 -0.000000  0.000000 -0.095396 -0.000000 -0.048931
  5N   2pz       -0.000000  0.123969  0.339176  0.000000  0.185513 -0.000000
  5N   2px       -0.015554  0.000000  0.000000  0.063476  0.000000  0.052256
  5N   2py       -0.086663 -0.000000 -0.000000 -0.074130 -0.000000 -0.023817
  5N   3pz       -0.000000  0.060185  0.204773  0.000000  0.260324  0.000000
  5N   3px       -0.007042  0.000000 -0.000000  0.037494 -0.000000  0.143687
  5N   3py       -0.016103  0.000000  0.000000 -0.037110 -0.000000 -0.133248
  5N   1dz2       0.000216  0.000000  0.000000 -0.000324 -0.000000  0.002864
  5N   1dxz       0.000000 -0.001741 -0.000767 -0.000000  0.005650 -0.000000
  5N   1dyz      -0.000000  0.002038  0.001976  0.000000 -0.009197 -0.000000
  5N   1dx2y2    -0.002283  0.000000 -0.000000  0.001244 -0.000000 -0.003651
  5N   1dxy       0.003593 -0.000000  0.000000  0.001844  0.000000 -0.002145
  5N   2dz2      -0.001382 -0.000000 -0.000000 -0.001648  0.000000  0.008460
  5N   2dxz       0.000000 -0.004226  0.001891  0.000000  0.015608  0.000000
  5N   2dyz      -0.000000  0.002720  0.001060 -0.000000 -0.035771  0.000000
  5N   2dx2y2    -0.006392 -0.000000  0.000000  0.002974  0.000000 -0.022781
  5N   2dxy       0.007202  0.000000 -0.000000 -0.000466 -0.000000 -0.007970
  5N   1f0        0.000000 -0.002980 -0.006312 -0.000000 -0.000364  0.000000
  5N   1f+1       0.000082 -0.000000 -0.000000 -0.000395 -0.000000  0.000700
  5N   1f-1       0.001108  0.000000 -0.000000  0.000966 -0.000000 -0.000467
  5N   1f+2      -0.000000  0.000324 -0.000529 -0.000000  0.002364  0.000000
  5N   1f-2       0.000000 -0.001167 -0.000246  0.000000  0.003071  0.000000
  5N   1f+3       0.000920 -0.000000 -0.000000  0.000925  0.000000  0.001757
  5N   1f-3       0.001378  0.000000 -0.000000 -0.000728 -0.000000  0.000704
  6O   1s         0.000225 -0.000000 -0.000000  0.000836  0.000000 -0.011236
  6O   2s         0.000400  0.000000 -0.000000  0.002071  0.000000 -0.027586
  6O   3s         0.001115 -0.000000  0.000000 -0.004467  0.000000  0.051397
  6O   4s        -0.007254  0.000000 -0.000000 -0.001329 -0.000000  0.065560
  6O   5s        -0.009792  0.000000  0.000000 -0.009698 -0.000000  0.357212
  6O   1pz       -0.000000  0.263105 -0.305705 -0.000000  0.238099  0.000000
  6O   1px        0.046996  0.000000  0.000000 -0.021332  0.000000  0.032089
  6O   1py        0.004050  0.000000  0.000000 -0.456481  0.000000 -0.008832
  6O   2pz       -0.000000  0.215274 -0.251815 -0.000000  0.194944 -0.000000
  6O   2px        0.033880  0.000000 -0.000000 -0.016360 -0.000000  0.048477
  6O   2py        0.002212 -0.000000  0.000000 -0.372303 -0.000000 -0.004118
  6O   3pz       -0.000000  0.105460 -0.139230 -0.000000  0.241032  0.000000
  6O   3px        0.016947  0.000000  0.000000 -0.008339 -0.000000  0.143350
  6O   3py       -0.001613  0.000000 -0.000000 -0.215447 -0.000000 -0.021591
  6O   1dz2      -0.000380 -0.000000 -0.000000  0.000259 -0.000000  0.000195
  6O   1dxz      -0.000000  0.004345 -0.002849 -0.000000 -0.005721  0.000000
  6O   1dyz       0.000000 -0.000176 -0.000325 -0.000000 -0.000250 -0.000000
  6O   1dx2y2     0.000894 -0.000000 -0.000000 -0.000356  0.000000 -0.000243
  6O   1dxy       0.000461 -0.000000  0.000000 -0.003977  0.000000  0.000450
  6O   2dz2      -0.000346  0.000000  0.000000  0.000498  0.000000 -0.006565
  6O   2dxz      -0.000000  0.012926 -0.007663  0.000000 -0.016403 -0.000000
  6O   2dyz       0.000000 -0.001353 -0.001917  0.000000 -0.001820  0.000000
  6O   2dx2y2     0.002521  0.000000 -0.000000 -0.000533 -0.000000  0.013887
  6O   2dxy      -0.000316  0.000000 -0.000000 -0.008983 -0.000000  0.001295
  6O   1f0        0.000000 -0.001971  0.001442  0.000000  0.001057  0.000000
  6O   1f+1      -0.000227  0.000000  0.000000  0.000202  0.000000 -0.000917
  6O   1f-1       0.000119  0.000000  0.000000  0.000729 -0.000000 -0.000168
  6O   1f+2      -0.000000  0.002605 -0.001901 -0.000000 -0.001653 -0.000000
  6O   1f-2       0.000000 -0.000377 -0.000626 -0.000000 -0.000445  0.000000
  6O   1f+3      -0.000533  0.000000  0.000000  0.000111  0.000000 -0.000960
  6O   1f-3       0.000061  0.000000  0.000000  0.002529 -0.000000 -0.000271
  7H   1s        -0.016563  0.000000 -0.000000  0.022303 -0.000000 -0.046985
  7H   2s        -0.012603 -0.000000 -0.000000  0.033055  0.000000 -0.097272
  7H   3s        -0.002915 -0.000000 -0.000000  0.014228  0.000000 -0.822822
  7H   1pz       -0.000000  0.005808  0.018105  0.000000  0.013319 -0.000000
  7H   1px        0.002574  0.000000  0.000000 -0.002014  0.000000 -0.035376
  7H   1py        0.000390 -0.000000 -0.000000 -0.003634  0.000000 -0.006923
  8H   1s         0.042523  0.000000  0.000000  0.012836 -0.000000 -0.030795
  8H   2s         0.059518 -0.000000 -0.000000  0.026686  0.000000 -0.085539
  8H   3s         0.028813  0.000000 -0.000000  0.027813 -0.000000 -0.488935
  8H   1pz       -0.000000  0.006505  0.017189  0.000000  0.013650  0.000000
  8H   1px        0.003364 -0.000000 -0.000000  0.002080  0.000000  0.011938
  8H   1py        0.003412 -0.000000 -0.000000 -0.000652  0.000000  0.013103
                     18        19        20        21        22        23   
                   0.00221   0.00724   0.04094   0.04559   0.07862   0.09069
                   0.00000   0.00000   0.00000   0.00000   0.00000   0.00000
                  --------  --------  --------  --------  --------  --------
  0C   1s         0.010502  0.034985 -0.000000  0.027003 -0.012795 -0.004097
  0C   2s         0.023640  0.078134 -0.000000  0.060154 -0.029413 -0.009552
  0C   3s        -0.055097 -0.189592  0.000000 -0.126682  0.081662  0.040029
  0C   4s        -0.018502 -0.091731  0.000000 -0.146252 -0.161651 -0.085822
  0C   5s        -0.713286 -2.585544  0.000000 -1.621450  3.832638  1.895623
  0C   1pz        0.000000  0.000000 -0.329379 -0.000000 -0.000000  0.000000
  0C   1px        0.223168  0.055435  0.000000 -0.120881 -0.080282  0.075409
  0C   1py       -0.041384 -0.162427 -0.000000  0.120865 -0.141058  0.104143
  0C   2pz       -0.000000 -0.000000 -0.254921 -0.000000  0.000000 -0.000000
  0C   2px        0.212452  0.050299 -0.000000 -0.077621 -0.105115  0.034240
  0C   2py       -0.009943 -0.097688 -0.000000  0.164502 -0.173245  0.167637
  0C   3pz        0.000000  0.000000 -1.353299 -0.000000  0.000000 -0.000000
  0C   3px        0.773302  0.416527  0.000000 -0.203925 -1.317106  0.079956
  0C   3py       -0.094341 -0.211376 -0.000000  0.955471 -2.014996 -0.546163
  0C   1dz2       0.009841  0.008121  0.000000 -0.019776  0.013833 -0.001639
  0C   1dxz       0.000000  0.000000 -0.012662 -0.000000 -0.000000 -0.000000
  0C   1dyz      -0.000000 -0.000000  0.014773  0.000000 -0.000000  0.000000
  0C   1dx2y2    -0.017672 -0.001889 -0.000000  0.004356  0.018784  0.012215
  0C   1dxy       0.002194 -0.000329 -0.000000  0.010529 -0.028918  0.001841
  0C   2dz2       0.055661  0.058908 -0.000000 -0.021001 -0.001383  0.013871
  0C   2dxz       0.000000  0.000000 -0.068922 -0.000000 -0.000000  0.000000
  0C   2dyz      -0.000000 -0.000000  0.067396  0.000000  0.000000 -0.000000
  0C   2dx2y2    -0.058866  0.018942 -0.000000  0.045542 -0.003993  0.016164
  0C   2dxy      -0.003277 -0.025125  0.000000 -0.023101 -0.020401  0.068438
  0C   1f0       -0.000000 -0.000000  0.001292  0.000000  0.000000 -0.000000
  0C   1f+1       0.000299 -0.006080  0.000000 -0.005526  0.003254  0.003321
  0C   1f-1       0.005057  0.006136  0.000000 -0.000990  0.002981 -0.004757
  0C   1f+2       0.000000  0.000000 -0.006855 -0.000000 -0.000000  0.000000
  0C   1f-2       0.000000  0.000000 -0.006441 -0.000000 -0.000000  0.000000
  0C   1f+3       0.004096 -0.000310 -0.000000 -0.001388  0.002254 -0.000536
  0C   1f-3      -0.005304  0.002469  0.000000  0.000165 -0.002682  0.001700
  1C   1s        -0.008261  0.002341  0.000000 -0.013268  0.056844 -0.015130
  1C   2s        -0.018370  0.004886  0.000000 -0.028643  0.125213 -0.034518
  1C   3s         0.011544 -0.010600  0.000000  0.032268 -0.184559 -0.027183
  1C   4s         0.202971 -0.039936 -0.000000  0.223230 -0.821292  0.715153
  1C   5s         0.875844  1.081940 -0.000000  0.903353 -4.236699  1.982752
  1C   1pz       -0.000000 -0.000000  0.112565  0.000000 -0.000000 -0.000000
  1C   1px        0.081059 -0.011214 -0.000000  0.045488 -0.094142 -0.089864
  1C   1py       -0.006349  0.025562 -0.000000  0.149555 -0.091855  0.005764
  1C   2pz       -0.000000  0.000000  0.100770  0.000000  0.000000  0.000000
  1C   2px        0.094940 -0.004278 -0.000000  0.056815 -0.291449 -0.531213
  1C   2py       -0.060208  0.072933 -0.000000  0.248411 -0.009414 -0.060551
  1C   3pz        0.000000 -0.000000  0.487318  0.000000 -0.000000  0.000000
  1C   3px        0.041469  0.154304 -0.000000  0.161071 -1.523519 -1.846863
  1C   3py        0.031551  0.282766 -0.000000  0.429089 -1.439709 -1.127123
  1C   1dz2       0.005717  0.007286  0.000000  0.000369 -0.013718  0.024022
  1C   1dxz       0.000000  0.000000 -0.006072 -0.000000 -0.000000  0.000000
  1C   1dyz      -0.000000  0.000000 -0.005863 -0.000000 -0.000000 -0.000000
  1C   1dx2y2     0.024187  0.000726 -0.000000  0.005868  0.009076 -0.010306
  1C   1dxy      -0.000983  0.004588  0.000000 -0.011382 -0.002443 -0.002951
  1C   2dz2      -0.009606 -0.006298  0.000000 -0.019295 -0.014453 -0.057866
  1C   2dxz      -0.000000 -0.000000 -0.005202 -0.000000 -0.000000 -0.000000
  1C   2dyz       0.000000 -0.000000 -0.019352 -0.000000  0.000000  0.000000
  1C   2dx2y2     0.023008  0.026230  0.000000 -0.027227  0.033059  0.114077
  1C   2dxy      -0.001929  0.024584 -0.000000  0.002093  0.066613  0.019421
  1C   1f0        0.000000  0.000000  0.004578  0.000000 -0.000000 -0.000000
  1C   1f+1      -0.001150  0.000361  0.000000 -0.002107  0.005717  0.010101
  1C   1f-1       0.001332  0.000804  0.000000 -0.002547 -0.000795 -0.001434
  1C   1f+2      -0.000000  0.000000 -0.001922 -0.000000  0.000000 -0.000000
  1C   1f-2      -0.000000 -0.000000 -0.004777 -0.000000  0.000000 -0.000000
  1C   1f+3       0.003799  0.000579 -0.000000  0.000751 -0.007549  0.010013
  1C   1f-3      -0.000357 -0.002656 -0.000000  0.009017  0.004106  0.002951
  2H   1s         0.035659  0.043422  0.065307 -0.029586  0.031494 -0.030851
  2H   2s         0.041185  0.032823  0.044704 -0.096217  0.061301 -0.080641
  2H   3s         0.682301  1.267200  1.710851 -0.150300 -0.014935 -0.339709
  2H   1pz        0.018374  0.031979  0.030613 -0.004463  0.001251 -0.003479
  2H   1px        0.006695 -0.006861 -0.017430 -0.004317 -0.016833 -0.003519
  2H   1py        0.010081  0.010811  0.026217  0.012051 -0.016255 -0.006410
  3H   1s         0.035659  0.043422 -0.065307 -0.029586  0.031494 -0.030851
  3H   2s         0.041185  0.032823 -0.044704 -0.096217  0.061301 -0.080641
  3H   3s         0.682301  1.267200 -1.710851 -0.150300 -0.014935 -0.339709
  3H   1pz       -0.018374 -0.031979  0.030613  0.004463 -0.001251  0.003479
  3H   1px        0.006695 -0.006861  0.017430 -0.004317 -0.016833 -0.003519
  3H   1py        0.010081  0.010811 -0.026217  0.012051 -0.016255 -0.006410
  4H   1s        -0.083731  0.010502 -0.000000  0.077954  0.044874  0.024373
  4H   2s        -0.133117  0.002250 -0.000000  0.114659  0.197718  0.121786
  4H   3s        -1.037042  0.315979 -0.000000  1.397797  0.133625 -0.505192
  4H   1pz       -0.000000 -0.000000 -0.018149 -0.000000  0.000000 -0.000000
  4H   1px       -0.026206  0.005806 -0.000000  0.032383 -0.016995 -0.017855
  4H   1py        0.004735 -0.001554 -0.000000  0.013237 -0.023314  0.012128
  5N   1s         0.022521 -0.026487  0.000000 -0.014223 -0.016093  0.002259
  5N   2s         0.053397 -0.063397  0.000000 -0.033923 -0.038270  0.005535
  5N   3s        -0.112269  0.150157 -0.000000  0.078682  0.078748 -0.013891
  5N   4s        -0.110913  0.057415  0.000000  0.031023  0.098370  0.036485
  5N   5s        -0.744890  0.910487 -0.000000  0.489927  0.973106 -0.454166
  5N   1pz        0.000000  0.000000 -0.028135 -0.000000 -0.000000  0.000000
  5N   1px        0.136339  0.023323 -0.000000  0.164928  0.046610  0.068781
  5N   1py        0.074926 -0.140138 -0.000000  0.090856  0.128369 -0.060142
  5N   2pz        0.000000  0.000000 -0.017073 -0.000000 -0.000000  0.000000
  5N   2px        0.125462  0.007843 -0.000000  0.101999 -0.055013  0.021234
  5N   2py        0.006874 -0.076391 -0.000000  0.071967  0.194491 -0.065957
  5N   3pz       -0.000000  0.000000 -0.137275 -0.000000  0.000000 -0.000000
  5N   3px        0.480836  0.029468 -0.000000  0.518814  0.380167  0.727930
  5N   3py        0.182609 -0.327383 -0.000000  0.412850  0.910702 -0.160851
  5N   1dz2      -0.002243  0.004794 -0.000000  0.002167  0.001080  0.002405
  5N   1dxz       0.000000  0.000000 -0.003129 -0.000000  0.000000 -0.000000
  5N   1dyz       0.000000 -0.000000  0.002622  0.000000 -0.000000  0.000000
  5N   1dx2y2    -0.009470 -0.001325  0.000000 -0.008653  0.005209  0.007978
  5N   1dxy       0.002799 -0.001837 -0.000000  0.006440  0.011649 -0.006142
  5N   2dz2      -0.001779  0.018247 -0.000000  0.006285 -0.005962  0.039766
  5N   2dxz      -0.000000 -0.000000 -0.014023 -0.000000 -0.000000  0.000000
  5N   2dyz      -0.000000  0.000000 -0.000393  0.000000  0.000000 -0.000000
  5N   2dx2y2    -0.031345 -0.001967  0.000000 -0.053010 -0.020595  0.038342
  5N   2dxy       0.034306 -0.028916 -0.000000  0.012409 -0.008484 -0.026537
  5N   1f0       -0.000000 -0.000000  0.000144 -0.000000  0.000000 -0.000000
  5N   1f+1      -0.001706 -0.000255  0.000000  0.000210  0.001715 -0.003808
  5N   1f-1       0.001432  0.000032  0.000000 -0.000941 -0.004446  0.002129
  5N   1f+2      -0.000000 -0.000000  0.000560  0.000000 -0.000000 -0.000000
  5N   1f-2      -0.000000 -0.000000 -0.001666 -0.000000 -0.000000  0.000000
  5N   1f+3      -0.001225  0.002639 -0.000000  0.000704  0.002089  0.000582
  5N   1f-3       0.001839  0.000283 -0.000000  0.000954 -0.000962 -0.001474
  6O   1s        -0.002693  0.000226 -0.000000  0.002619 -0.004545  0.038098
  6O   2s        -0.006361  0.000514 -0.000000  0.006275 -0.010770  0.095471
  6O   3s         0.009125  0.000276 -0.000000 -0.010307  0.014688 -0.201038
  6O   4s         0.036896 -0.012421  0.000000 -0.015971  0.062560 -0.092302
  6O   5s        -0.150118 -0.082600 -0.000000 -0.046557 -0.276596 -2.570894
  6O   1pz        0.000000  0.000000 -0.097133 -0.000000  0.000000  0.000000
  6O   1px        0.054660 -0.000053 -0.000000  0.001306  0.109513 -0.070100
  6O   1py        0.044024 -0.048712  0.000000 -0.073671  0.014133  0.011045
  6O   2pz        0.000000 -0.000000 -0.075864 -0.000000  0.000000  0.000000
  6O   2px        0.037205 -0.007861 -0.000000  0.004083  0.069942 -0.202991
  6O   2py        0.035109 -0.045712  0.000000 -0.050975  0.011913 -0.001784
  6O   3pz       -0.000000  0.000000 -0.120910 -0.000000 -0.000000 -0.000000
  6O   3px        0.003296 -0.019896 -0.000000 -0.017709  0.045246 -0.843692
  6O   3py        0.052315 -0.016555  0.000000 -0.128821  0.153104  0.141007
  6O   1dz2       0.000824  0.000708  0.000000 -0.000013 -0.000748 -0.002473
  6O   1dxz      -0.000000  0.000000  0.001773  0.000000  0.000000  0.000000
  6O   1dyz       0.000000 -0.000000 -0.000184 -0.000000  0.000000  0.000000
  6O   1dx2y2     0.000134  0.000371  0.000000 -0.000081 -0.001283  0.005466
  6O   1dxy      -0.000450 -0.000357 -0.000000  0.003452 -0.002182 -0.000697
  6O   2dz2       0.008548  0.004000  0.000000 -0.000165  0.002128  0.042272
  6O   2dxz       0.000000 -0.000000  0.011265  0.000000 -0.000000 -0.000000
  6O   2dyz      -0.000000 -0.000000  0.004966  0.000000 -0.000000 -0.000000
  6O   2dx2y2    -0.003601  0.001529 -0.000000 -0.003529 -0.022379 -0.053572
  6O   2dxy       0.001890  0.000980 -0.000000  0.015212  0.005279  0.007492
  6O   1f0       -0.000000  0.000000 -0.000812 -0.000000  0.000000 -0.000000
  6O   1f+1       0.001049  0.000218 -0.000000  0.000380 -0.000079  0.003765
  6O   1f-1       0.000063  0.000213  0.000000 -0.000660  0.000115 -0.000239
  6O   1f+2       0.000000 -0.000000  0.000732  0.000000 -0.000000 -0.000000
  6O   1f-2      -0.000000 -0.000000 -0.000053 -0.000000  0.000000 -0.000000
  6O   1f+3      -0.000124 -0.000487 -0.000000  0.000312  0.000896  0.003209
  6O   1f-3      -0.000768  0.000613  0.000000 -0.002171 -0.000074 -0.000732
  7H   1s        -0.017081 -0.041700  0.000000 -0.057994 -0.006331  0.022575
  7H   2s        -0.114920 -0.087548  0.000000 -0.139321 -0.013729 -0.066969
  7H   3s        -0.411953 -0.630927  0.000000 -1.362855 -0.883156 -0.429113
  7H   1pz        0.000000  0.000000 -0.007174 -0.000000 -0.000000 -0.000000
  7H   1px       -0.006010 -0.021877  0.000000 -0.040900 -0.031621 -0.004585
  7H   1py       -0.004128 -0.000680 -0.000000  0.007382  0.021238 -0.009044
  8H   1s         0.060305 -0.045918 -0.000000  0.033126  0.016043 -0.058747
  8H   2s         0.152359 -0.091961 -0.000000  0.148860  0.224511 -0.101348
[...]

-------
TIMINGS
-------

Total SCF Hessian time: 0 days 0 hours 3 min 7 sec 
                   F(y)            G[Q(x)]           CPSCF         Total
Table01         1.2  0.01         2.5  0.01       103.3  0.55       187.4 
Table01a        1.2  0.01,        2.5, 0.01,      103.3  0.55       187.4 
Table01b        1.2   0.6,        2.5,  1.4,      103.3  55.1       187.4 

Writing the Hessian file to the disk             ... done


Maximum memory used throughout the entire calculation: 184.5 MB

-----------------------
VIBRATIONAL FREQUENCIES
-----------------------

Scaling factor for frequencies =  1.000000000  (already applied!)

   0:         0.00 cm**-1
   1:         0.00 cm**-1
   2:         0.00 cm**-1
   3:         0.00 cm**-1
   4:         0.00 cm**-1
   5:         0.00 cm**-1
   6:        26.66 cm**-1
   7:       110.70 cm**-1
   8:       419.05 cm**-1
   9:       506.97 cm**-1
  10:       526.19 cm**-1
  11:       652.18 cm**-1
  12:       817.68 cm**-1
  13:       947.70 cm**-1
  14:      1014.25 cm**-1
  15:      1080.78 cm**-1
  16:      1299.47 cm**-1
  17:      1345.97 cm**-1
  18:      1427.27 cm**-1
  19:      1443.07 cm**-1
  20:      1570.62 cm**-1
  21:      1708.41 cm**-1
  22:      2978.37 cm**-1
  23:      3054.64 cm**-1
  24:      3055.09 cm**-1
  25:      3493.98 cm**-1
  26:      3630.11 cm**-1


------------
NORMAL MODES
------------

These modes are the Cartesian displacements weighted by the diagonal matrix
M(i,i)=1/sqrt(m[i]) where m[i] is the mass of the displaced atom
Thus, these vectors are normalized but *not* orthogonal

                  0          1          2          3          4          5    
      0       0.000000   0.000000   0.000000   0.000000   0.000000   0.000000
      1       0.000000   0.000000   0.000000   0.000000   0.000000   0.000000
      2       0.000000   0.000000   0.000000   0.000000   0.000000   0.000000
      3       0.000000   0.000000   0.000000   0.000000   0.000000   0.000000
      4       0.000000   0.000000   0.000000   0.000000   0.000000   0.000000
      5       0.000000   0.000000   0.000000   0.000000   0.000000   0.000000
      6       0.000000   0.000000   0.000000   0.000000   0.000000   0.000000
      7       0.000000   0.000000   0.000000   0.000000   0.000000   0.000000
      8       0.000000   0.000000   0.000000   0.000000   0.000000   0.000000
      9       0.000000   0.000000   0.000000   0.000000   0.000000   0.000000
     10       0.000000   0.000000   0.000000   0.000000   0.000000   0.000000
     11       0.000000   0.000000   0.000000   0.000000   0.000000   0.000000
     12       0.000000   0.000000   0.000000   0.000000   0.000000   0.000000
     13       0.000000   0.000000   0.000000   0.000000   0.000000   0.000000
     14       0.000000   0.000000   0.000000   0.000000   0.000000   0.000000
     15       0.000000   0.000000   0.000000   0.000000   0.000000   0.000000
     16       0.000000   0.000000   0.000000   0.000000   0.000000   0.000000
     17       0.000000   0.000000   0.000000   0.000000   0.000000   0.000000
     18       0.000000   0.000000   0.000000   0.000000   0.000000   0.000000
     19       0.000000   0.000000   0.000000   0.000000   0.000000   0.000000
     20       0.000000   0.000000   0.000000   0.000000   0.000000   0.000000
     21       0.000000   0.000000   0.000000   0.000000   0.000000   0.000000
     22       0.000000   0.000000   0.000000   0.000000   0.000000   0.000000
     23       0.000000   0.000000   0.000000   0.000000   0.000000   0.000000
     24       0.000000   0.000000   0.000000   0.000000   0.000000   0.000000
     25       0.000000   0.000000   0.000000   0.000000   0.000000   0.000000
     26       0.000000   0.000000   0.000000   0.000000   0.000000   0.000000
                  6          7          8          9         10         11    
      0       0.000000  -0.000000   0.137112  -0.000000  -0.129643  -0.000000
      1       0.000000   0.000000  -0.121701  -0.000000  -0.176729  -0.000000
      2       0.001338  -0.000878  -0.000000  -0.015153   0.000000  -0.027009
      3      -0.000000   0.000000  -0.134040   0.000000  -0.031983   0.000000
      4       0.000000   0.000000   0.032616  -0.000000  -0.126794   0.000000
      5       0.016764  -0.029108   0.000000   0.168673  -0.000000  -0.196281
      6      -0.410938   0.033221   0.383329   0.187190  -0.251150  -0.140978
      7       0.268536  -0.046469  -0.016233   0.247843  -0.223220  -0.233218
      8      -0.311461   0.040732   0.008041  -0.123303  -0.008443   0.085271
      9       0.410938  -0.033221   0.383329  -0.187190  -0.251149   0.140978
     10      -0.268536   0.046469  -0.016234  -0.247844  -0.223220   0.233218
     11      -0.311460   0.040732  -0.008041  -0.123303   0.008444   0.085271
     12      -0.000000  -0.000000   0.080831  -0.000000  -0.100234  -0.000000
     13      -0.000000  -0.000000  -0.520136   0.000000   0.031926  -0.000000
     14       0.533449  -0.031878  -0.000000  -0.249171   0.000000   0.111969
     15      -0.000000   0.000000   0.065790   0.000000   0.162955  -0.000000
     16       0.000000  -0.000000   0.169507  -0.000000  -0.037256   0.000000
     17      -0.036316   0.136322   0.000000  -0.016475   0.000000   0.065586
     18      -0.000000   0.000000  -0.138118   0.000000  -0.030062   0.000000
     19      -0.000000   0.000000  -0.076654   0.000000   0.278285  -0.000000
     20       0.040772  -0.014997  -0.000000  -0.043297   0.000000   0.095191
     21      -0.000000  -0.000000   0.063723   0.000000   0.162565   0.000000
     22       0.000000  -0.000000   0.451768   0.000000   0.398865   0.000000
     23      -0.127933  -0.847739   0.000000   0.337502  -0.000000   0.598750
     24      -0.000000  -0.000000   0.330184   0.000000   0.578609  -0.000000
     25       0.000000  -0.000000   0.023547  -0.000000  -0.266922   0.000000
     26      -0.140792  -0.500821  -0.000000  -0.754877   0.000001  -0.642861
                 12         13         14         15         16         17    
      0      -0.151378  -0.129932  -0.000000   0.095987   0.052558  -0.047239
      1      -0.268126   0.056521   0.000000  -0.039777  -0.031590  -0.140626
      2       0.000000   0.000000   0.168079   0.000000   0.000000   0.000000
      3       0.104879  -0.014574   0.000000  -0.037473  -0.019106  -0.005017
      4       0.111831   0.043592  -0.000000   0.015544   0.344821   0.071693
      5       0.000000   0.000000  -0.184911  -0.000000  -0.000000   0.000000
      6      -0.156239   0.332644   0.208658  -0.222824  -0.400931   0.185710
      7      -0.276279   0.181680   0.569166  -0.081346  -0.196257   0.492029
      8      -0.000578   0.059672  -0.164645  -0.066461  -0.035235  -0.322983
      9      -0.156239   0.332644  -0.208658  -0.222824  -0.400931   0.185710
     10      -0.276279   0.181680  -0.569166  -0.081346  -0.196257   0.492029
     11       0.000578  -0.059672  -0.164645   0.066461   0.035235   0.322983
     12      -0.173530  -0.222895   0.000000   0.143414  -0.015323   0.040265
     13      -0.361628  -0.638669  -0.000000   0.356130  -0.262364   0.447260
     14      -0.000000  -0.000000  -0.372315  -0.000000   0.000000  -0.000000
     15      -0.038523   0.111163  -0.000000   0.149212   0.003978   0.000803
     16       0.200144  -0.078730  -0.000000   0.015249  -0.137642  -0.030240
     17      -0.000000  -0.000000   0.021024   0.000000   0.000000   0.000000
     18       0.131303  -0.016571   0.000000  -0.141032  -0.008238   0.008223
     19      -0.014009   0.034863  -0.000000   0.014508  -0.044291  -0.008456
     20      -0.000000  -0.000000   0.032091   0.000000   0.000000  -0.000000
     21      -0.043555   0.114882  -0.000000   0.153195   0.020874   0.004442
     22      -0.221593  -0.420629   0.000000  -0.645532  -0.065228   0.007909
     23      -0.000000   0.000000   0.010283   0.000000   0.000000  -0.000000
     24      -0.465116  -0.117076   0.000000  -0.383155   0.473189   0.064871
     25       0.439325   0.043694  -0.000000   0.298675  -0.396619  -0.063424
     26       0.000000   0.000000   0.090387   0.000000   0.000000   0.000000
                 18         19         20         21         22         23    
      0      -0.000000   0.062304   0.000262   0.050285   0.030503  -0.079135
      1       0.000000   0.019334   0.004565   0.004397   0.038706   0.048258
      2       0.050729   0.000000  -0.000000   0.000000   0.000000   0.000002
      3       0.000000  -0.007415  -0.037268  -0.676138  -0.000139  -0.002137
      4       0.000000  -0.071080  -0.049168   0.020373  -0.001814   0.002536
      5       0.026737   0.000000   0.000000  -0.000000   0.000000   0.000000
      6      -0.482641  -0.390826   0.024990  -0.028879   0.145513   0.104365
      7      -0.104898   0.312874   0.012357  -0.109348  -0.275314  -0.239344
      8      -0.051915  -0.327525   0.003641   0.061747  -0.432662  -0.385570
      9       0.482641  -0.390825   0.024990  -0.028879   0.145512   0.104355
     10       0.104898   0.312874   0.012357  -0.109348  -0.275314  -0.239324
     11      -0.051915   0.327525  -0.003641  -0.061747   0.432661   0.385542
     12       0.000000  -0.037251   0.004517   0.065779  -0.646569   0.738878
     13       0.000000  -0.517455   0.040187   0.231172   0.105569  -0.108398
     14      -0.709314  -0.000000   0.000000   0.000000  -0.000000   0.000001
     15       0.000000  -0.004988  -0.052986   0.101754  -0.000207   0.001022
     16      -0.000000   0.021443   0.102548  -0.049758   0.000158  -0.000571
     17      -0.001022  -0.000000  -0.000000   0.000000  -0.000000   0.000000
     18      -0.000000   0.018196   0.035678   0.403406  -0.000357   0.000704
     19      -0.000000   0.008927   0.002767   0.005793   0.000236  -0.000430
     20      -0.004933  -0.000000  -0.000000  -0.000000  -0.000000  -0.000000
     21       0.000000  -0.009029  -0.044888   0.085684   0.005057  -0.006301
     22      -0.000000   0.022808  -0.738210   0.050807   0.000794  -0.003446
     23      -0.016663  -0.000000   0.000000  -0.000000  -0.000000   0.000000
     24       0.000000  -0.045603   0.601345  -0.453069  -0.002783   0.001745
     25      -0.000000   0.045820  -0.264135   0.241052  -0.001267   0.000024
     26      -0.000751  -0.000000  -0.000000   0.000000  -0.000000   0.000000
                  24         25         26    
      0      -0.000002   0.000792  -0.000124
      1       0.000001   0.000261   0.000400
      2      -0.091360  -0.000000   0.000000
      3      -0.000000  -0.000698  -0.001540
      4       0.000000   0.001339  -0.001801
      5      -0.001226   0.000000  -0.000000
      6      -0.187664   0.000088   0.000280
      7       0.383121  -0.001071  -0.001139
      8       0.560037   0.000294  -0.000177
      9       0.187669   0.000088   0.000280
     10      -0.383133  -0.001071  -0.001139
     11       0.560057  -0.000294   0.000177
     12       0.000019  -0.006482   0.005314
     13      -0.000003   0.003360  -0.000910
     14      -0.018324  -0.000000   0.000000
     15       0.000000   0.020112  -0.076759
     16      -0.000000  -0.048961  -0.039029
     17      -0.000099  -0.000000   0.000000
     18       0.000000  -0.000834   0.000710
     19      -0.000000   0.000005   0.000231
     20       0.000240  -0.000000  -0.000000
     21      -0.000000  -0.637290   0.770113
     22      -0.000000  -0.010336   0.001845
     23      -0.000681   0.000000  -0.000000
     24       0.000000   0.376228   0.299220
     25      -0.000000   0.670333   0.556720
     26      -0.000307  -0.000000  -0.000000


-----------
IR SPECTRUM
-----------

 Mode    freq (cm**-1)   T**2         TX         TY         TZ
-------------------------------------------------------------------
   6:        26.66    7.596450  ( -0.000000   0.000000  -2.756166)
   7:       110.70  172.711846  ( -0.000006   0.000000 -13.141988)
   8:       419.05    4.451104  (  1.768274   1.150787  -0.000001)
   9:       506.97    7.048604  (  0.000016  -0.000008  -2.654921)
  10:       526.19   10.972542  (  0.293448  -3.299459   0.000002)
  11:       652.18    6.228303  ( -0.000012   0.000003  -2.495657)
  12:       817.68    3.089307  (  1.220151   1.265124  -0.000000)
  13:       947.70    8.617084  ( -2.128824   2.021186   0.000000)
  14:      1014.25    2.547827  ( -0.000013   0.000003  -1.596191)
  15:      1080.78    0.132301  (  0.279751  -0.232466  -0.000001)
  16:      1299.47  120.326805  ( -2.975992  10.557948   0.000000)
  17:      1345.97   49.158481  ( -0.164798   7.009374  -0.000000)
  18:      1427.27    7.144613  (  0.000004  -0.000000  -2.672941)
  19:      1443.07    7.783971  ( -2.311218  -1.562767  -0.000002)
  20:      1570.62   82.903159  (  2.152564  -8.847012   0.000000)
  21:      1708.41  318.415216  (-17.419765   3.868723   0.000001)
  22:      2978.37    9.961208  (  2.775567   1.502477   0.000000)
  23:      3054.64   19.771695  ( -4.383716   0.744802   0.000055)
  24:      3055.09    4.829900  ( -0.000111   0.000019  -2.197703)
  25:      3493.98   18.987205  ( -1.597715   4.053950  -0.000000)
  26:      3630.11   25.074822  (  4.214554   2.704137  -0.000000)

The first frequency considered to be a vibration is 6
The total number of vibrations considered is 21


--------------------------
THERMOCHEMISTRY AT 298.15K
--------------------------

Temperature         ... 298.15 K
Pressure            ... 1.00 atm
Total Mass          ... 59.07 AMU

Throughout the following assumptions are being made:
  (1) The electronic state is orbitally nondegenerate
  (2) There are no thermally accessible electronically excited states
  (3) Hindered rotations indicated by low frequency modes are not
      treated as such but are treated as vibrations and this may
      cause some error
  (4) All equations used are the standard statistical mechanics
      equations for an ideal gas
  (5) All vibrations are strictly harmonic

freq.      26.66  E(vib)   ...       0.56 
freq.     110.70  E(vib)   ...       0.45 
freq.     419.05  E(vib)   ...       0.18 
freq.     506.97  E(vib)   ...       0.14 
freq.     526.19  E(vib)   ...       0.13 
freq.     652.18  E(vib)   ...       0.08 
freq.     817.68  E(vib)   ...       0.05 
freq.     947.70  E(vib)   ...       0.03 
freq.    1014.25  E(vib)   ...       0.02 
freq.    1080.78  E(vib)   ...       0.02 
freq.    1299.47  E(vib)   ...       0.01 
freq.    1345.97  E(vib)   ...       0.01 
freq.    1427.27  E(vib)   ...       0.00 
freq.    1443.07  E(vib)   ...       0.00 
freq.    1570.62  E(vib)   ...       0.00 
freq.    1708.41  E(vib)   ...       0.00 
freq.    2978.37  E(vib)   ...       0.00 
freq.    3054.64  E(vib)   ...       0.00 
freq.    3055.09  E(vib)   ...       0.00 
freq.    3493.98  E(vib)   ...       0.00 
freq.    3630.11  E(vib)   ...       0.00 

------------
INNER ENERGY
------------

The inner energy is: U= E(el) + E(ZPE) + E(vib) + E(rot) + E(trans)
    E(el)   - is the total energy from the electronic structure calculation
              = E(kin-el) + E(nuc-el) + E(el-el) + E(nuc-nuc)
    E(ZPE)  - the the zero temperature vibrational energy from the frequency calculation
    E(vib)  - the the finite temperature correction to E(ZPE) due to population
              of excited vibrational states
    E(rot)  - is the rotational thermal energy
    E(trans)- is the translational thermal energy

Summary of contributions to the inner energy U:
Electronic energy                ...   -209.25604858 Eh
Zero point energy                ...      0.07087183 Eh      44.47 kcal/mol
Thermal vibrational correction   ...      0.00266773 Eh       1.67 kcal/mol
Thermal rotational correction    ...      0.00141627 Eh       0.89 kcal/mol
Thermal translational correction ...      0.00141627 Eh       0.89 kcal/mol
-----------------------------------------------------------------------
Total thermal energy                   -209.17967648 Eh


Summary of corrections to the electronic energy:
(perhaps to be used in another calculation)
Total thermal correction                  0.00550027 Eh       3.45 kcal/mol
Non-thermal (ZPE) correction              0.07087183 Eh      44.47 kcal/mol
-----------------------------------------------------------------------
Total correction                          0.07637210 Eh      47.92 kcal/mol


--------
ENTHALPY
--------

The enthalpy is H = U + kB*T
                kB is Boltzmann's constant
Total free energy                 ...   -209.17967648 Eh 
Thermal Enthalpy correction       ...      0.00094421 Eh       0.59 kcal/mol
-----------------------------------------------------------------------
Total Enthalpy                    ...   -209.17873227 Eh


Note: Rotational entropy computed according to Herzberg 
Infrared and Raman Spectra, Chapter V,1, Van Nostrand Reinhold, 1945 
Point Group:  Cs, Symmetry Number:   1  
Rotational constants in cm-1:     0.355972     0.305234     0.169566 

Vibrational entropy computed according to the QRRHO of S. Grimme
Chem.Eur.J. 2012 18 9955


-------
ENTROPY
-------

The entropy contributions are T*S = T*(S(el)+S(vib)+S(rot)+S(trans))
     S(el)   - electronic entropy
     S(vib)  - vibrational entropy
     S(rot)  - rotational entropy
     S(trans)- translational entropy
The entropies will be listed as mutliplied by the temperature to get
units of energy

Electronic entropy                ...      0.00000000 Eh      0.00 kcal/mol
Vibrational entropy               ...      0.00489262 Eh      3.07 kcal/mol
Rotational entropy                ...      0.01139638 Eh      7.15 kcal/mol
Translational entropy             ...      0.01812560 Eh     11.37 kcal/mol
-----------------------------------------------------------------------
Final entropy term                ...      0.03441461 Eh     21.60 kcal/mol

In case the symmetry of your molecule has not been determined correctly
or in case you have a reason to use a different symmetry number we print 
out the resulting rotational entropy values for sn=1,12 :
 --------------------------------------------------------
|  sn= 1 | S(rot)=       0.01139638 Eh      7.15 kcal/mol|
|  sn= 2 | S(rot)=       0.01074193 Eh      6.74 kcal/mol|
|  sn= 3 | S(rot)=       0.01035909 Eh      6.50 kcal/mol|
|  sn= 4 | S(rot)=       0.01008747 Eh      6.33 kcal/mol|
|  sn= 5 | S(rot)=       0.00987678 Eh      6.20 kcal/mol|
|  sn= 6 | S(rot)=       0.00970464 Eh      6.09 kcal/mol|
|  sn= 7 | S(rot)=       0.00955909 Eh      6.00 kcal/mol|
|  sn= 8 | S(rot)=       0.00943301 Eh      5.92 kcal/mol|
|  sn= 9 | S(rot)=       0.00932181 Eh      5.85 kcal/mol|
|  sn=10 | S(rot)=       0.00922233 Eh      5.79 kcal/mol|
|  sn=11 | S(rot)=       0.00913234 Eh      5.73 kcal/mol|
|  sn=12 | S(rot)=       0.00905018 Eh      5.68 kcal/mol|
 --------------------------------------------------------


-------------------
GIBBS FREE ENERGY
-------------------

The Gibbs free energy is G = H - T*S

Total enthalpy                    ...   -209.17873227 Eh 
Total entropy correction          ...     -0.03441461 Eh    -21.60 kcal/mol
-----------------------------------------------------------------------
Final Gibbs free energy         ...   -209.21314688 Eh

For completeness - the Gibbs free energy minus the electronic energy
G-E(el)                           ...      0.04290170 Eh     26.92 kcal/mol


Timings for individual modules:

Sum of individual times         ...      286.506 sec (=   4.775 min)
GTO integral calculation        ...        0.930 sec (=   0.015 min)   0.3 %
SCF iterations                  ...       59.086 sec (=   0.985 min)  20.6 %
SCF Gradient evaluation         ...       38.785 sec (=   0.646 min)  13.5 %
Geometry relaxation             ...        0.225 sec (=   0.004 min)   0.1 %
Analytical frequency calculation...      187.480 sec (=   3.125 min)  65.4 %
                             ****ORCA TERMINATED NORMALLY****
TOTAL RUN TIME: 0 days 0 hours 4 minutes 47 seconds 248 msec
