
                                 *****************
                                 * O   R   C   A *
                                 *****************

           --- An Ab Initio, DFT and Semiempirical electronic structure package ---

                  #######################################################
                  #                        -***-                        #
                  #          Department of theory and spectroscopy      #
                  #               Directorship: Frank Neese             #
                  #        Max Planck Institute fuer Kohlenforschung    #
                  #                Kaiser Wilhelm Platz 1               #
                  #                 D-45470 Muelheim/Ruhr               #
                  #                      Germany                        #
                  #                                                     #
                  #                  All rights reserved                #
                  #                        -***-                        #
                  #######################################################


                         Program Version 4.2.1 -  RELEASE  -


 With contributions from (in alphabetic order):
   Daniel Aravena         : Magnetic Suceptibility
   Michael Atanasov       : Ab Initio Ligand Field Theory (pilot matlab implementation)
   Alexander A. Auer      : GIAO ZORA, VPT2
   Ute Becker             : Parallelization
   Giovanni Bistoni       : ED, misc. LED, open-shell LED, HFLD
   Martin Brehm           : Molecular dynamics
   Dmytro Bykov           : SCF Hessian
   Vijay G. Chilkuri      : MRCI spin determinant printing, contributions to CSF-ICE
   Dipayan Datta          : RHF DLPNO-CCSD density
   Achintya Kumar Dutta   : EOM-CC, STEOM-CC
   Dmitry Ganyushin       : Spin-Orbit,Spin-Spin,Magnetic field MRCI
   Miquel Garcia          : C-PCM Hessian, Gaussian charge scheme
   Yang Guo               : DLPNO-NEVPT2, CIM, IAO-localization
   Andreas Hansen         : Spin unrestricted coupled pair/coupled cluster methods
   Benjamin Helmich-Paris : CASSCF linear response (MC-RPA)
   Lee Huntington         : MR-EOM, pCC
   Robert Izsak           : Overlap fitted RIJCOSX, COSX-SCS-MP3, EOM
   Christian Kollmar      : KDIIS, OOCD, Brueckner-CCSD(T), CCSD density
   Simone Kossmann        : Meta GGA functionals, TD-DFT gradient, OOMP2, MP2 Hessian
   Martin Krupicka        : AUTO-CI
   Lucas Lang             : DCDCAS
   Dagmar Lenk            : GEPOL surface, SMD
   Dimitrios Liakos       : Extrapolation schemes; Compound Job, initial MDCI parallelization
   Dimitrios Manganas     : Further ROCIS development; embedding schemes
   Dimitrios Pantazis     : SARC Basis sets
   Taras Petrenko         : DFT Hessian,TD-DFT gradient, ASA, ECA, R-Raman, ABS, FL, XAS/XES, NRVS
   Peter Pinski           : DLPNO-MP2, DLPNO-MP2 Gradient
   Christoph Reimann      : Effective Core Potentials
   Marius Retegan         : Local ZFS, SOC
   Christoph Riplinger    : Optimizer, TS searches, QM/MM, DLPNO-CCSD(T), (RO)-DLPNO pert. Triples
   Tobias Risthaus        : Range-separated hybrids, TD-DFT gradient, RPA, STAB
   Michael Roemelt        : Original ROCIS implementation
   Masaaki Saitow         : Open-shell DLPNO-CCSD energy and density
   Barbara Sandhoefer     : DKH picture change effects
   Avijit Sen             : IP-ROCIS
   Kantharuban Sivalingam : CASSCF convergence, NEVPT2, FIC-MRCI
   Bernardo de Souza      : ESD, SOC TD-DFT
   Georgi Stoychev        : AutoAux, RI-MP2 NMR
   Willem Van den Heuvel  : Paramagnetic NMR
   Boris Wezisla          : Elementary symmetry handling
   Frank Wennmohs         : Technical directorship


 We gratefully acknowledge several colleagues who have allowed us to
 interface, adapt or use parts of their codes:
   Stefan Grimme, W. Hujo, H. Kruse,             : VdW corrections, initial TS optimization,
                  C. Bannwarth                     DFT functionals, gCP, sTDA/sTD-DF
   Ed Valeev, F. Pavosevic, A. Kumar             : LibInt (2-el integral package), F12 methods
   Garnet Chan, S. Sharma, J. Yang, R. Olivares  : DMRG
   Ulf Ekstrom                                   : XCFun DFT Library
   Mihaly Kallay                                 : mrcc  (arbitrary order and MRCC methods)
   Andreas Klamt, Michael Diedenhofen            : otool_cosmo (COSMO solvation model)
   Jiri Pittner, Ondrej Demel                    : Mk-CCSD
   Frank Weinhold                                : gennbo (NPA and NBO analysis)
   Christopher J. Cramer and Donald G. Truhlar   : smd solvation model
   Lars Goerigk                                  : TD-DFT with DH, B97 family of functionals
   V. Asgeirsson, H. Jonsson                     : NEB implementation
   FAccTs GmbH                                   : IRC, NEB, NEB-TS, Multilevel, MM, QM/MM, CI optimization
   S Lehtola, MJT Oliveira, MAL Marques          : LibXC Library


 Your calculation uses the libint2 library for the computation of 2-el integrals
 For citations please refer to: http://libint.valeyev.net

 Your ORCA version has been built with support for libXC version: 4.2.3
 For citations please refer to: https://tddft.org/programs/libxc/

 This ORCA versions uses:
   CBLAS   interface :  Fast vector & matrix operations
   LAPACKE interface :  Fast linear algebra routines
   SCALAPACK package :  Parallel linear algebra routines




***************************************
The coordinates will be read from file: init.xyz
***************************************


Your calculation utilizes the geometrical counterpoise correction gCP
Please cite in your paper:
H.Kruse, S. Grimme J.Chem.Phys., 136, (2012), 154101 
   

Your calculation utilizes the atom-pairwise dispersion correction
based on tight binding partial charges (D4)
Cite in your paper:
E.Caldeweyher, C.Bannwarth, S.Grimme, J.Chem.Phys., (2017), 147, 034112.
E.Caldeweyher, S.Ehlert, A.Hansen, H.Neugebauer, S.Grimme, J.Chem.Phys., (2018), in progress.
   

----- Orbital basis set information -----
Your calculation utilizes the basis: def2-TZVP
   F. Weigend and R. Ahlrichs, Phys. Chem. Chem. Phys. 7, 3297 (2005).

----- AuxJ basis set information -----
Your calculation utilizes the auxiliary basis: def2/J
   F. Weigend, Phys. Chem. Chem. Phys. 8, 1057 (2006).

================================================================================
                                        WARNINGS
                       Please study these warnings very carefully!
================================================================================


WARNING: Geometry Optimization
  ===> : Switching off AutoStart
         For restart on a previous wavefunction, please use MOREAD

INFO   : the flag for use of LIBINT has been found!

================================================================================
                                       INPUT FILE
================================================================================
NAME = acetamide-pcm=water.inp
|  1> ! revPBE D4 gCP(DFT/TZ) def2-TZVP CPCM(water) Opt Freq TightOpt TightSCF Grid4 FinalGrid5 LargePrint
|  2> 
|  3> *xyzfile 0 1 init.xyz
|  4> 
|  5>                          ****END OF INPUT****
================================================================================

                       *****************************
                       * Geometry Optimization Run *
                       *****************************

Geometry optimization settings:
Update method            Update   .... BFGS
Choice of coordinates    CoordSys .... Z-matrix Internals
Initial Hessian          InHess   .... Almoef's Model

Convergence Tolerances:
Energy Change            TolE     ....  1.0000e-06 Eh
Max. Gradient            TolMAXG  ....  1.0000e-04 Eh/bohr
RMS Gradient             TolRMSG  ....  3.0000e-05 Eh/bohr
Max. Displacement        TolMAXD  ....  1.0000e-03 bohr
RMS Displacement         TolRMSD  ....  6.0000e-04 bohr
Strict Convergence                ....  False
------------------------------------------------------------------------------
                        ORCA OPTIMIZATION COORDINATE SETUP
------------------------------------------------------------------------------

The optimization will be done in new redundant internal coordinates
Making redundant internal coordinates   ...  (new redundants) done
Evaluating the initial hessian          ...  (Almloef) done
Evaluating the coordinates              ...  done
Calculating the B-matrix                .... done
Calculating the G-matrix                .... done
Diagonalizing the G-matrix              .... done
The first mode is                       ....    9
The number of degrees of freedom        ....   21

    -----------------------------------------------------------------
                    Redundant Internal Coordinates


    -----------------------------------------------------------------
         Definition                    Initial Value    Approx d2E/dq
    -----------------------------------------------------------------
      1. B(C   1,C   0)                  1.5262         0.378758   
      2. B(H   2,C   0)                  1.0996         0.347597   
      3. B(H   3,C   0)                  1.0996         0.347597   
      4. B(H   4,C   0)                  1.0997         0.347495   
      5. B(N   5,C   1)                  1.3742         0.593012   
      6. B(O   6,C   1)                  1.2282         1.013844   
      7. B(H   7,N   5)                  1.0117         0.429966   
      8. B(H   8,N   5)                  1.0144         0.425694   
      9. A(H   3,C   0,H   4)          109.1306         0.287623   
     10. A(C   1,C   0,H   4)          114.0908         0.323158   
     11. A(H   2,C   0,H   4)          109.1306         0.287623   
     12. A(C   1,C   0,H   2)          108.4188         0.323173   
     13. A(H   2,C   0,H   3)          107.4461         0.287636   
     14. A(C   1,C   0,H   3)          108.4188         0.323173   
     15. A(C   0,C   1,N   5)          115.4885         0.392037   
     16. A(N   5,C   1,O   6)          122.2270         0.464571   
     17. A(C   0,C   1,O   6)          122.2844         0.431146   
     18. A(H   7,N   5,H   8)          119.0148         0.302159   
     19. A(C   1,N   5,H   8)          118.3730         0.354980   
     20. A(C   1,N   5,H   7)          122.6122         0.355582   
     21. D(N   5,C   1,C   0,H   3)    121.8216         0.010709   
     22. D(O   6,C   1,C   0,H   2)     58.1784         0.010709   
     23. D(N   5,C   1,C   0,H   2)   -121.8216         0.010709   
     24. D(O   6,C   1,C   0,H   3)    -58.1784         0.010709   
     25. D(O   6,C   1,C   0,H   4)    180.0000         0.010709   
     26. D(N   5,C   1,C   0,H   4)     -0.0000         0.010709   
     27. D(H   7,N   5,C   1,C   0)     -0.0000         0.028290   
     28. D(H   8,N   5,C   1,O   6)      0.0000         0.028290   
     29. D(H   8,N   5,C   1,C   0)    180.0000         0.028290   
     30. D(H   7,N   5,C   1,O   6)   -180.0000         0.028290   
    -----------------------------------------------------------------

Number of atoms                         .... 9
Number of degrees of freedom            .... 30

         *************************************************************
         *                GEOMETRY OPTIMIZATION CYCLE   1            *
         *************************************************************
---------------------------------
CARTESIAN COORDINATES (ANGSTROEM)
---------------------------------
  C      0.719029    1.280086    0.000000
  C     -0.089495   -0.014412   -0.000000
  H      0.436510    1.866179    0.886476
  H      0.436510    1.866179   -0.886476
  H      1.808298    1.128987    0.000000
  N      0.649338   -1.173112   -0.000000
  O     -1.317707   -0.020761    0.000000
  H      1.661068   -1.174684   -0.000000
  H      0.155918   -2.059477    0.000000

----------------------------
CARTESIAN COORDINATES (A.U.)
----------------------------
  NO LB      ZA    FRAG     MASS         X           Y           Z
   0 C     6.0000    0    12.011    1.358768    2.419012    0.000000
   1 C     6.0000    0    12.011   -0.169121   -0.027235   -0.000000
   2 H     1.0000    0     1.008    0.824884    3.526568    1.675197
   3 H     1.0000    0     1.008    0.824885    3.526568   -1.675197
   4 H     1.0000    0     1.008    3.417189    2.133476    0.000000
   5 N     7.0000    0    14.007    1.227071   -2.216861   -0.000000
   6 O     8.0000    0    15.999   -2.490106   -0.039232    0.000000
   7 H     1.0000    0     1.008    3.138963   -2.219831   -0.000000
   8 H     1.0000    0     1.008    0.294642   -3.891847    0.000000

--------------------------------
INTERNAL COORDINATES (ANGSTROEM)
--------------------------------
 C      0   0   0     0.000000000000     0.00000000     0.00000000
 C      1   0   0     1.526249328112     0.00000000     0.00000000
 H      1   2   0     1.099619159432   108.41876294     0.00000000
 H      1   2   3     1.099619154656   108.41876009   243.64316256
 H      1   2   3     1.099699175465   114.09080074   121.82158244
 N      2   1   3     1.374212618907   115.48853069   238.17841095
 O      2   1   3     1.228228751680   122.28444258    58.17839775
 H      6   2   1     1.011730539174   122.61221312     0.00000000
 H      6   2   1     1.014448434216   118.37302680   179.99999421

---------------------------
INTERNAL COORDINATES (A.U.)
---------------------------
 C      0   0   0     0.000000000000     0.00000000     0.00000000
 C      1   0   0     2.884193242213     0.00000000     0.00000000
 H      1   2   0     2.077979062939   108.41876294     0.00000000
 H      1   2   3     2.077979053914   108.41876009   243.64316256
 H      1   2   3     2.078130271329   114.09080074   121.82158244
 N      2   1   3     2.596885499514   115.48853069   238.17841095
 O      2   1   3     2.321015970484   122.28444258    58.17839775
 H      6   2   1     1.911893640363   122.61221312     0.00000000
 H      6   2   1     1.917029717654   118.37302680   179.99999421

---------------------
BASIS SET INFORMATION
---------------------
There are 4 groups of distinct atoms

 Group   1 Type C   : 11s6p2d1f contracted to 5s3p2d1f pattern {62111/411/11/1}
 Group   2 Type H   : 5s1p contracted to 3s1p pattern {311/1}
 Group   3 Type N   : 11s6p2d1f contracted to 5s3p2d1f pattern {62111/411/11/1}
 Group   4 Type O   : 11s6p2d1f contracted to 5s3p2d1f pattern {62111/411/11/1}

Atom   0C    basis set group =>   1
Atom   1C    basis set group =>   1
Atom   2H    basis set group =>   2
Atom   3H    basis set group =>   2
Atom   4H    basis set group =>   2
Atom   5N    basis set group =>   3
Atom   6O    basis set group =>   4
Atom   7H    basis set group =>   2
Atom   8H    basis set group =>   2

-------------------------
BASIS SET IN INPUT FORMAT
-------------------------

 # Basis set for element : H 
 NewGTO H 
 S 3 
   1      34.0613410000      0.0254393072
   2       5.1235746000      0.1900859489
   3       1.1646626000      0.8524411301
 S 1 
   1       0.3272304100      1.0000000000
 S 1 
   1       0.1030724100      1.0000000000
 P 1 
   1       0.8000000000      1.0000000000
  end;

 # Basis set for element : C 
 NewGTO C 
 S 6 
   1   13575.3496820000      0.0006064549
   2    2035.2333680000      0.0046979088
   3     463.2256235900      0.0243324776
   4     131.2001959800      0.0973999683
   5      42.8530158910      0.3019558425
   6      15.5841857660      0.6623360915
 S 2 
   1       6.2067138508      0.6559530854
   2       2.5764896527      0.3758563329
 S 1 
   1       0.5769633942      1.0000000000
 S 1 
   1       0.2297283136      1.0000000000
 S 1 
   1       0.0951644400      1.0000000000
 P 4 
   1      34.6972322440      0.0113272200
   2       7.9582622826      0.0761696592
   3       2.3780826883      0.3019225220
   4       0.8143320818      0.7278502735
 P 1 
   1       0.2888754725      1.0000000000
 P 1 
   1       0.1005682367      1.0000000000
 D 1 
   1       1.0970000000      1.0000000000
 D 1 
   1       0.3180000000      1.0000000000
 F 1 
   1       0.7610000000      1.0000000000
  end;

 # Basis set for element : N 
 NewGTO N 
 S 6 
   1   19730.8006470000      0.0005862639
   2    2957.8958745000      0.0045428821
   3     673.2213359500      0.0235584136
   4     190.6824949400      0.0947091933
   5      62.2954418980      0.2971978492
   6      22.6541611820      0.6691624689
 S 2 
   1       8.9791477428      0.6459668363
   2       3.6863002370      0.3870057440
 S 1 
   1       0.8466007680      1.0000000000
 S 1 
   1       0.3364713377      1.0000000000
 S 1 
   1       0.1364765367      1.0000000000
 P 4 
   1      49.2003805100      0.0114488252
   2      11.3467905370      0.0784223379
   3       3.4273972411      0.3081809474
   4       1.1785525134      0.7202719637
 P 1 
   1       0.4164220497      1.0000000000
 P 1 
   1       0.1426082601      1.0000000000
 D 1 
   1       1.6540000000      1.0000000000
 D 1 
   1       0.4690000000      1.0000000000
 F 1 
   1       1.0930000000      1.0000000000
  end;

 # Basis set for element : O 
 NewGTO O 
 S 6 
   1   27032.3826310000      0.0005722733
   2    4052.3871392000      0.0044353233
   3     922.3272271000      0.0230201076
   4     261.2407098900      0.0928224906
   5      85.3546413510      0.2937850002
   6      31.0350352450      0.6740160450
 S 2 
   1      12.2608607280      0.6383993702
   2       4.9987076005      0.3953458713
 S 1 
   1       1.1703108158      1.0000000000
 S 1 
   1       0.4647474099      1.0000000000
 S 1 
   1       0.1850453636      1.0000000000
 P 4 
   1      63.2749548010      0.0120183321
   2      14.6270493790      0.0830054217
   3       4.4501223456      0.3199174393
   4       1.5275799647      0.7071554292
 P 1 
   1       0.5293511794      1.0000000000
 P 1 
   1       0.1747842127      1.0000000000
 D 1 
   1       2.3140000000      1.0000000000
 D 1 
   1       0.6450000000      1.0000000000
 F 1 
   1       1.4280000000      1.0000000000
  end;

---------------------------------
AUXILIARY/J BASIS SET INFORMATION
---------------------------------
There are 4 groups of distinct atoms

 Group   1 Type C   : 12s5p4d2f1g contracted to 6s4p3d1f1g pattern {711111/2111/211/2/1}
 Group   2 Type H   : 5s2p1d contracted to 3s1p1d pattern {311/2/1}
 Group   3 Type N   : 12s5p4d2f1g contracted to 6s4p3d1f1g pattern {711111/2111/211/2/1}
 Group   4 Type O   : 12s5p4d2f1g contracted to 6s4p3d1f1g pattern {711111/2111/211/2/1}

Atom   0C    basis set group =>   1
Atom   1C    basis set group =>   1
Atom   2H    basis set group =>   2
Atom   3H    basis set group =>   2
Atom   4H    basis set group =>   2
Atom   5N    basis set group =>   3
Atom   6O    basis set group =>   4
Atom   7H    basis set group =>   2
Atom   8H    basis set group =>   2

-------------------------------------
AUXILIARY/J BASIS SET IN INPUT FORMAT
-------------------------------------

 # Auxiliary/J basis set for element : H 
 NewAuxJGTO H 
 S 3 
   1      15.6752927000      0.1007184237
   2       3.6063578000      0.3404257499
   3       1.2080016000      0.6491996172
 S 1 
   1       0.4726794000      1.0000000000
 S 1 
   1       0.2018100000      1.0000000000
 P 2 
   1       2.0281365000      0.5596620919
   2       0.5358730000      0.5596620919
 D 1 
   1       2.2165124000      1.0000000000
  end;

 # Auxiliary/J basis set for element : C 
 NewAuxJGTO C 
 S 7 
   1    1861.0916331000      0.0134602335
   2     642.9939764000      0.0299160374
   3     235.1105725000      0.1008649584
   4      90.7028894000      0.2370970548
   5      36.7794552000      0.3924037254
   6      15.6046273000      0.3195862154
   7       6.8907294000      0.0530104441
 S 1 
   1       3.1478850000     -1.0000000000
 S 1 
   1       1.4777287000      1.0000000000
 S 1 
   1       0.7076466000      1.0000000000
 S 1 
   1       0.3430122000      1.0000000000
 S 1 
   1       0.1669453000      1.0000000000
 P 2 
   1      13.5472892000     -0.6769313712
   2       5.4669419000     -0.3779500978
 P 1 
   1       2.1751721000      1.0000000000
 P 1 
   1       0.8582194000      1.0000000000
 P 1 
   1       0.3376720000      1.0000000000
 D 2 
   1       5.9287253000     -0.3533329857
   2       1.9809209000     -0.7456525731
 D 1 
   1       0.8055417000     -1.0000000000
 D 1 
   1       0.3531244000     -1.0000000000
 F 2 
   1       1.6755626000      0.6311076882
   2       0.5997536000      0.4968166032
 G 1 
   1       1.0024600000     -1.0000000000
  end;

 # Auxiliary/J basis set for element : N 
 NewAuxJGTO N 
 S 7 
   1    2542.9401785000      0.0128431329
   2    1029.5472946000      0.0206655120
   3     424.9053546000      0.0652200677
   4     178.4573708000      0.1617388940
   5      76.1362742000      0.3094256941
   6      32.9338653000      0.3918849307
   7      14.4155436000      0.1822470660
 S 1 
   1       6.3718891000     -1.0000000000
 S 1 
   1       2.8381742000      1.0000000000
 S 1 
   1       1.2711793000      1.0000000000
 S 1 
   1       0.5712407000      1.0000000000
 S 1 
   1       0.2569887000      1.0000000000
 P 2 
   1      17.8975990000     -1.0974070137
   2       6.5346319000      0.1380055963
 P 1 
   1       2.3523645000      1.0000000000
 P 1 
   1       0.8397377000      1.0000000000
 P 1 
   1       0.2989335000      1.0000000000
 D 2 
   1       7.6909870000      0.1770780943
   2       2.3044972000      0.8918319220
 D 1 
   1       0.8403987000      1.0000000000
 D 1 
   1       0.3303797000      1.0000000000
 F 2 
   1       2.3331076000      0.6223178877
   2       0.8446137000      0.5036714203
 G 1 
   1       1.4037700000     -1.0000000000
  end;

 # Auxiliary/J basis set for element : O 
 NewAuxJGTO O 
 S 7 
   1    2876.8216605000      0.0168151159
   2    1004.7443032000      0.0340137548
   3     369.7579954000      0.1194951309
   4     142.9442404000      0.2664627624
   5      57.8366425000      0.4202764046
   6      24.3864983000      0.2765077335
   7      10.6622662000      0.0057008815
 S 1 
   1       4.8070437000     -1.0000000000
 S 1 
   1       2.2210770000      1.0000000000
 S 1 
   1       1.0447795000      1.0000000000
 S 1 
   1       0.4968425000      1.0000000000
 S 1 
   1       0.2371384000      1.0000000000
 P 2 
   1      64.2613382000     -0.2731534179
   2      16.3006076000     -0.8168011598
 P 1 
   1       4.3550542000      1.0000000000
 P 1 
   1       1.2019554000      1.0000000000
 P 1 
   1       0.3354196000      1.0000000000
 D 2 
   1       9.2146611000     -0.4661230638
   2       2.8435251000     -0.6600908911
 D 1 
   1       0.9955759000     -1.0000000000
 D 1 
   1       0.3649441000     -1.0000000000
 F 2 
   1       2.6420115000      0.5931563945
   2       0.7345613000      0.5931563945
 G 1 
   1       1.3931000000     -1.0000000000
  end;

------------------------------------------------------------------------------
                           ORCA GTO INTEGRAL CALCULATION
                           -- RI-GTO INTEGRALS CHOSEN --
------------------------------------------------------------------------------

                         BASIS SET STATISTICS AND STARTUP INFO

Gaussian basis set:
 # of primitive gaussian shells          ...  110
 # of primitive gaussian functions       ...  224
 # of contracted shells                  ...   64
 # of contracted basis functions         ...  154
 Highest angular momentum                ...    3
 Maximum contraction depth               ...    6
Auxiliary gaussian basis set:
 # of primitive gaussian shells          ...  136
 # of primitive gaussian functions       ...  360
 # of contracted shells                  ...   85
 # of contracted aux-basis functions     ...  251
 Highest angular momentum                ...    4
 Maximum contraction depth               ...    7
Ratio of auxiliary to basis functions    ...  1.63
Integral package used                  ... LIBINT
 One Electron integrals                  ... done
 Ordering auxiliary basis shells         ... done
 Integral threshhold             Thresh  ...  2.500e-11
 Primitive cut-off               TCut    ...  2.500e-12
 Pre-screening matrix                    ... done
 Shell pair data                         ... 
 Ordering of the shell pairs             ... done (   0.000 sec) 2043 of 2080 pairs
 Determination of significant pairs      ... done (   0.000 sec)
 Creation of shell pair data             ... done (   0.000 sec)
 Storage of shell pair data              ... done (   0.000 sec)
 Shell pair data done in (   0.001 sec)
 Computing two index integrals           ... done
 Cholesky decomposition of the V-matrix  ... done


Timings:
 Total evaluation time                   ...   0.092 sec (  0.002 min)
 One electron matrix time                ...   0.008 sec (  0.000 min) =  9.1%
 Schwartz matrix evaluation time         ...   0.061 sec (  0.001 min) = 67.0%
 Two index repulsion integral time       ...   0.001 sec (  0.000 min) =  1.3%
 Cholesky decomposition of V             ...   0.001 sec (  0.000 min) =  1.4%
 Three index repulsion integral time     ...   0.000 sec (  0.000 min) =  0.0%

-------------------------------------------------------------------------------
                                 ORCA SCF
-------------------------------------------------------------------------------

------------
SCF SETTINGS
------------
Hamiltonian:
 Density Functional     Method          .... DFT(GTOs)
 Exchange Functional    Exchange        .... PBE
   PBE kappa parameter   XKappa         ....  1.245000
   PBE mue parameter    XMuePBE         ....  0.219520
 Correlation Functional Correlation     .... PBE
   PBE beta parameter  CBetaPBE         ....  0.066725
 LDA part of GGA corr.  LDAOpt          .... PW91-LDA
 Gradients option       PostSCFGGA      .... off
   Density functional embedding theory  .... OFF
   NL short-range parameter             ....  3.700000
 RI-approximation to the Coulomb term is turned on
   Number of auxiliary basis functions  .... 251


General Settings:
 Integral files         IntName         .... acetamide-pcm=water
 Hartree-Fock type      HFTyp           .... RHF
 Total Charge           Charge          ....    0
 Multiplicity           Mult            ....    1
 Number of Electrons    NEL             ....   32
 Basis Dimension        Dim             ....  154
 Nuclear Repulsion      ENuc            ....    120.7696971765 Eh

Convergence Acceleration:
 DIIS                   CNVDIIS         .... on
   Start iteration      DIISMaxIt       ....    12
   Startup error        DIISStart       ....  0.200000
   # of expansion vecs  DIISMaxEq       ....     5
   Bias factor          DIISBfac        ....   1.050
   Max. coefficient     DIISMaxC        ....  10.000
 Newton-Raphson         CNVNR           .... off
 SOSCF                  CNVSOSCF        .... on
   Start iteration      SOSCFMaxIt      ....   150
   Startup grad/error   SOSCFStart      ....  0.003300
 Level Shifting         CNVShift        .... on
   Level shift para.    LevelShift      ....    0.2500
   Turn off err/grad.   ShiftErr        ....    0.0010
 Zerner damping         CNVZerner       .... off
 Static damping         CNVDamp         .... on
   Fraction old density DampFac         ....    0.7000
   Max. Damping (<1)    DampMax         ....    0.9800
   Min. Damping (>=0)   DampMin         ....    0.0000
   Turn off err/grad.   DampErr         ....    0.1000
 Fernandez-Rico         CNVRico         .... off

SCF Procedure:
 Maximum # iterations   MaxIter         ....   125
 SCF integral mode      SCFMode         .... Direct
   Integral package                     .... LIBINT
 Reset frequency        DirectResetFreq ....    20
 Integral Threshold     Thresh          ....  2.500e-11 Eh
 Primitive CutOff       TCut            ....  2.500e-12 Eh

Convergence Tolerance:
 Convergence Check Mode ConvCheckMode   .... Total+1el-Energy
 Convergence forced     ConvForced      .... 0
 Energy Change          TolE            ....  1.000e-08 Eh
 1-El. energy change                    ....  1.000e-05 Eh
 Orbital Gradient       TolG            ....  1.000e-05
 Orbital Rotation angle TolX            ....  1.000e-05
 DIIS Error             TolErr          ....  5.000e-07


Diagonalization of the overlap matrix:
Smallest eigenvalue                        ... 4.928e-04
Time for diagonalization                   ...    0.005 sec
Threshold for overlap eigenvalues          ... 1.000e-08
Number of eigenvalues below threshold      ... 0
Time for construction of square roots      ...    0.002 sec
Total time needed                          ...    0.007 sec

-------------------
DFT GRID GENERATION
-------------------

General Integration Accuracy     IntAcc      ...  4.670
Radial Grid Type                 RadialGrid  ... Gauss-Chebyshev
Angular Grid (max. acc.)         AngularGrid ... Lebedev-302
Angular grid pruning method      GridPruning ... 3 (G Style)
Weight generation scheme         WeightScheme... Becke
Basis function cutoff            BFCut       ...    1.0000e-11
Integration weight cutoff        WCut        ...    1.0000e-14
Grids for H and He will be reduced by one unit

# of grid points (after initial pruning)     ...  41818 (   0.0 sec)
# of grid points (after weights+screening)   ...  39707 (   0.0 sec)
nearest neighbour list constructed           ...    0.0 sec
Grid point re-assignment to atoms done       ...    0.0 sec
Grid point division into batches done        ...    0.1 sec
Reduced shell lists constructed in    0.3 sec

Total number of grid points                  ...    39707
Total number of batches                      ...      625
Average number of points per batch           ...       63
Average number of grid points per atom       ...     4412
Average number of shells per batch           ...    45.64 (71.31%)
Average number of basis functions per batch  ...   112.89 (73.31%)
Average number of large shells per batch     ...    37.91 (83.08%)
Average number of large basis fcns per batch ...    92.64 (82.06%)
Maximum spatial batch extension              ...  18.89, 19.43, 20.64 au
Average spatial batch extension              ...   2.79,  2.72,  2.89 au

Time for grid setup =    0.357 sec

------------------------------
INITIAL GUESS: MODEL POTENTIAL
------------------------------
Loading Hartree-Fock densities                     ... done
Calculating cut-offs                               ... done
Setting up the integral package                    ... done
Initializing the effective Hamiltonian             ... done
Starting the Coulomb interaction                   ... done (   0.0 sec)
Reading the grid                                   ... done
Mapping shells                                     ... done
Starting the XC term evaluation                    ... done (   0.3 sec)
  promolecular density results
     # of electrons  =     31.997501101
     EX              =    -26.545312487
     EC              =     -1.044549777
     EX+EC           =    -27.589862264
Transforming the Hamiltonian                       ... done (   0.0 sec)
Diagonalizing the Hamiltonian                      ... done (   0.0 sec)
Back transforming the eigenvectors                 ... done (   0.0 sec)
Now organizing SCF variables                       ... done
                      ------------------
                      INITIAL GUESS DONE (   0.8 sec)
                      ------------------
----------------------
INITIAL GUESS ORBITALS
----------------------
                      0         1         2         3         4         5   
                 -18.96481 -14.22028 -10.09116 -10.07151  -1.09408  -0.94590
                   2.00000   2.00000   2.00000   2.00000   2.00000   2.00000
                  --------  --------  --------  --------  --------  --------
  0C   1s        -0.000011  0.000009  0.468023  0.001293  0.007804 -0.009756
  0C   2s         0.000056 -0.000054  0.606874  0.001595  0.016003 -0.020414
  0C   3s        -0.000062  0.000721  0.037864  0.001130 -0.026028  0.031355
  0C   4s        -0.002104 -0.001306 -0.016991 -0.011823 -0.011011  0.036098
  0C   5s         0.007211 -0.000094  0.032734  0.013706  0.004791 -0.007123
  0C   1pz       -0.000000 -0.000000 -0.000000 -0.000000 -0.000000 -0.000000
  0C   1px        0.000023 -0.000030 -0.000115 -0.000035  0.011283  0.002277
  0C   1py        0.000182 -0.000247 -0.000027  0.000087  0.010282 -0.016673
  0C   2pz        0.000000  0.000000 -0.000000  0.000000 -0.000000 -0.000000
  0C   2px        0.002125 -0.000134 -0.000868  0.005065  0.000956  0.001019
  0C   2py        0.000364  0.001226  0.000006  0.005665 -0.000358 -0.014502
  0C   3pz       -0.000000  0.000000 -0.000000 -0.000000 -0.000000  0.000000
  0C   3px        0.001449  0.001514 -0.000780 -0.002527 -0.000608 -0.000978
  0C   3py       -0.002042 -0.001134 -0.001862 -0.004029 -0.000234  0.001200
  0C   1dz2       0.000127 -0.000049 -0.000062  0.000050  0.000394 -0.000815
  0C   1dxz       0.000000  0.000000  0.000000  0.000000  0.000000  0.000000
  0C   1dyz      -0.000000  0.000000  0.000000 -0.000000  0.000000  0.000000
  0C   1dx2y2     0.000036  0.000064  0.000118 -0.000052 -0.000367 -0.001797
  0C   1dxy      -0.000026  0.000046  0.000016  0.000081 -0.000851  0.000131
  0C   2dz2      -0.000526  0.000801  0.000741 -0.000509  0.000530 -0.001941
  0C   2dxz      -0.000000 -0.000000  0.000000 -0.000000  0.000000  0.000000
  0C   2dyz       0.000000  0.000000 -0.000000  0.000000 -0.000000  0.000000
  0C   2dx2y2    -0.000030 -0.000244 -0.000230  0.001293 -0.001825 -0.004007
  0C   2dxy      -0.001199 -0.000109 -0.000093 -0.001294  0.001551  0.000334
  0C   1f0        0.000000  0.000000 -0.000000  0.000000  0.000000 -0.000000
  0C   1f+1      -0.000004 -0.000050 -0.000915  0.000401 -0.000111 -0.000315
  0C   1f-1       0.000041 -0.000056  0.001255  0.000279 -0.000439  0.000997
  0C   1f+2       0.000000 -0.000000  0.000000 -0.000000 -0.000000  0.000000
  0C   1f-2      -0.000000 -0.000000 -0.000000 -0.000000 -0.000000 -0.000000
  0C   1f+3       0.000154 -0.000049 -0.001010 -0.000766 -0.000616 -0.000645
  0C   1f-3      -0.000050  0.000065  0.000290  0.000143 -0.000551 -0.001028
  1C   1s        -0.000044  0.000006  0.001261 -0.468076  0.056422 -0.024455
  1C   2s         0.000241 -0.000024  0.001672 -0.606098  0.117038 -0.051149
  1C   3s        -0.000309 -0.001564  0.000374 -0.040924 -0.185886  0.083562
  1C   4s        -0.004712  0.010719  0.002718  0.012105 -0.131666  0.058686
  1C   5s        -0.002804 -0.007413 -0.012390 -0.013802 -0.011936  0.014540
  1C   1pz       -0.000000  0.000000 -0.000000 -0.000000 -0.000000 -0.000000
  1C   1px        0.000636  0.000044  0.000210  0.001217  0.120002  0.110965
  1C   1py       -0.000065 -0.000199  0.000425 -0.000041  0.014372 -0.078805
  1C   2pz       -0.000000  0.000000  0.000000 -0.000000 -0.000000 -0.000000
  1C   2px        0.008930  0.004116 -0.002498  0.009682  0.028941  0.042057
  1C   2py        0.000808 -0.005364 -0.003498  0.013685  0.000904 -0.030772
  1C   3pz        0.000000  0.000000 -0.000000  0.000000 -0.000000 -0.000000
  1C   3px       -0.009274 -0.004903 -0.003785 -0.004257  0.000977  0.008956
  1C   3py        0.000565  0.004356 -0.001181 -0.008744  0.001728 -0.004635
  1C   1dz2       0.000233 -0.000105  0.000053  0.002672  0.012385 -0.003335
  1C   1dxz       0.000000 -0.000000 -0.000000  0.000000  0.000000  0.000000
  1C   1dyz       0.000000 -0.000000 -0.000000  0.000000  0.000000 -0.000000
  1C   1dx2y2    -0.000237 -0.000088  0.000052 -0.001316 -0.014569 -0.009548
  1C   1dxy      -0.000000 -0.000086 -0.000103  0.000510  0.001115 -0.006928
  1C   2dz2       0.001720 -0.001933  0.000017  0.002074  0.010142 -0.002468
  1C   2dxz       0.000000  0.000000 -0.000000  0.000000  0.000000  0.000000
  1C   2dyz       0.000000  0.000000  0.000000 -0.000000 -0.000000 -0.000000
  1C   2dx2y2    -0.005745 -0.001253  0.002195 -0.004753  0.003562  0.000496
  1C   2dxy      -0.000146 -0.002469 -0.004055  0.007572 -0.001011 -0.000315
  1C   1f0        0.000000 -0.000000  0.000000  0.000000  0.000000  0.000000
  1C   1f+1      -0.000324 -0.000069  0.000490 -0.000946 -0.003170 -0.002772
  1C   1f-1      -0.000006  0.000048  0.000639 -0.000816 -0.000377  0.001711
  1C   1f+2      -0.000000 -0.000000  0.000000 -0.000000 -0.000000 -0.000000
  1C   1f-2      -0.000000  0.000000 -0.000000  0.000000 -0.000000  0.000000
  1C   1f+3       0.000126 -0.000163 -0.000667 -0.002571 -0.007903  0.000710
  1C   1f-3      -0.000044  0.000020  0.000077 -0.000125 -0.000010  0.000450
  2H   1s         0.000054 -0.000086 -0.000626  0.000137 -0.003736  0.003739
  2H   2s         0.000245 -0.000228 -0.002826  0.000804 -0.004394  0.003731
  2H   3s        -0.000671  0.000631 -0.005317 -0.000183 -0.001117  0.000955
  2H   1pz        0.000018  0.000008  0.001821  0.000072  0.000652 -0.000364
  2H   1px        0.000094 -0.000078 -0.000625 -0.000080  0.000246  0.000301
  2H   1py       -0.000098  0.000044  0.001298 -0.000386  0.001041 -0.000683
  3H   1s         0.000054 -0.000086 -0.000626  0.000137 -0.003736  0.003739
  3H   2s         0.000245 -0.000228 -0.002826  0.000804 -0.004394  0.003731
  3H   3s        -0.000671  0.000631 -0.005317 -0.000183 -0.001117  0.000955
  3H   1pz       -0.000018 -0.000008 -0.001821 -0.000072 -0.000652  0.000364
  3H   1px        0.000094 -0.000078 -0.000625 -0.000080  0.000246  0.000301
  3H   1py       -0.000098  0.000044  0.001298 -0.000386  0.001041 -0.000683
  4H   1s        -0.000040  0.000111 -0.000536 -0.000260 -0.002296  0.008078
  4H   2s        -0.001181  0.000567 -0.001640 -0.001330 -0.000714  0.009066
  4H   3s        -0.001505 -0.000474 -0.005698  0.000048 -0.001012  0.002319
  4H   1pz        0.000000 -0.000000  0.000000  0.000000 -0.000000 -0.000000
  4H   1px        0.000197 -0.000124  0.002101  0.000260  0.000384 -0.001724
  4H   1py        0.000124 -0.000011 -0.000282 -0.000374 -0.000110 -0.000979
  5N   1s        -0.000005  0.449419  0.000004  0.000023  0.020356 -0.095827
  5N   2s         0.000029  0.625449 -0.000040  0.000106  0.045309 -0.215340
  5N   3s        -0.000155  0.038848  0.000501 -0.002907 -0.068864  0.338028
  5N   4s        -0.001817 -0.034337 -0.003113  0.011341 -0.076369  0.412950
  5N   5s         0.006081  0.021347  0.003719 -0.003174 -0.003982  0.062283
  5N   1pz       -0.000000  0.000000 -0.000000  0.000000 -0.000000 -0.000000
  5N   1px       -0.000018 -0.000449 -0.000026  0.000457  0.020523 -0.009254
  5N   1py       -0.000072  0.000710  0.000186 -0.000755 -0.016173  0.023771
  5N   2pz       -0.000000 -0.000000  0.000000 -0.000000 -0.000000 -0.000000
  5N   2px        0.001495  0.003427  0.000236 -0.004614  0.012667 -0.014564
  5N   2py       -0.000543 -0.005560 -0.002245  0.008457 -0.009579  0.028195
  5N   3pz       -0.000000 -0.000000  0.000000 -0.000000 -0.000000  0.000000
  5N   3px        0.001047  0.000225 -0.001290  0.003273 -0.002098 -0.000639
  5N   3py        0.002378  0.001510  0.000089  0.000547 -0.000660  0.001163
  5N   1dz2       0.000152 -0.000470  0.000046 -0.000196  0.001630 -0.007314
  5N   1dxz       0.000000 -0.000000  0.000000  0.000000  0.000000 -0.000000
  5N   1dyz       0.000000 -0.000000 -0.000000  0.000000 -0.000000 -0.000000
  5N   1dx2y2     0.000006 -0.000030 -0.000041  0.000012 -0.000256 -0.000599
  5N   1dxy      -0.000018 -0.000135 -0.000056  0.000014  0.001152 -0.000905
  5N   2dz2      -0.000682  0.001110 -0.000157 -0.001315  0.004368 -0.013576
  5N   2dxz      -0.000000  0.000000 -0.000000  0.000000  0.000000 -0.000000
  5N   2dyz      -0.000000 -0.000000  0.000000 -0.000000  0.000000 -0.000000
  5N   2dx2y2     0.000105  0.000866  0.000592 -0.002103 -0.001850 -0.004336
  5N   2dxy       0.000590  0.001782  0.000468 -0.004477  0.002214 -0.007158
  5N   1f0       -0.000000  0.000000 -0.000000 -0.000000  0.000000  0.000000
  5N   1f+1       0.000030 -0.000122  0.000010  0.000397 -0.000736  0.000276
  5N   1f-1      -0.000109  0.000172  0.000013 -0.000682  0.000678 -0.000573
  5N   1f+2       0.000000 -0.000000  0.000000 -0.000000 -0.000000 -0.000000
  5N   1f-2      -0.000000  0.000000  0.000000  0.000000  0.000000  0.000000
  5N   1f+3      -0.000009  0.000027 -0.000066 -0.001008  0.000847 -0.005938
  5N   1f-3       0.000033 -0.000006 -0.000063 -0.000161  0.000704 -0.000049
  6O   1s        -0.436115  0.000001  0.000002  0.000044  0.090290  0.031596
  6O   2s        -0.638256 -0.000015 -0.000039  0.000284  0.211490  0.074388
  6O   3s        -0.037839  0.000051  0.000499 -0.003963 -0.315488 -0.113959
  6O   4s         0.033051  0.000823 -0.002030  0.014255 -0.408480 -0.151141
  6O   5s        -0.013307 -0.002847 -0.002535  0.001644 -0.103075 -0.046590
  6O   1pz        0.000000 -0.000000 -0.000000  0.000000  0.000000  0.000000
  6O   1px       -0.001810  0.000141  0.000188 -0.000748 -0.120682 -0.021665
  6O   1py        0.000004 -0.000083  0.000117 -0.000019  0.000890 -0.013389
  6O   2pz       -0.000000 -0.000000  0.000000 -0.000000  0.000000  0.000000
  6O   2px        0.006566 -0.000290 -0.001463  0.009785 -0.092386 -0.017154
  6O   2py       -0.000063  0.000260 -0.000789  0.000465  0.001084 -0.011002
  6O   3pz        0.000000  0.000000  0.000000  0.000000  0.000000  0.000000
  6O   3px       -0.000572 -0.000387 -0.000712  0.000583 -0.008456 -0.001094
  6O   3py       -0.000238 -0.000967 -0.000988  0.002063 -0.000226 -0.000939
  6O   1dz2       0.000142 -0.000088 -0.000019 -0.000029  0.003505  0.000738
  6O   1dxz       0.000000 -0.000000 -0.000000  0.000000  0.000000  0.000000
  6O   1dyz      -0.000000 -0.000000 -0.000000  0.000000 -0.000000  0.000000
  6O   1dx2y2    -0.000335 -0.000020  0.000013 -0.000051 -0.005832 -0.001312
  6O   1dxy       0.000014 -0.000006  0.000104 -0.000086  0.000043 -0.000913
  6O   2dz2      -0.000677  0.000359  0.000184 -0.001860  0.008040  0.000606
  6O   2dxz      -0.000000  0.000000  0.000000 -0.000000  0.000000  0.000000
  6O   2dyz       0.000000  0.000000  0.000000 -0.000000 -0.000000  0.000000
  6O   2dx2y2     0.001479  0.000142 -0.000150  0.003713 -0.014144 -0.003073
  6O   2dxy      -0.000095  0.000066 -0.000581  0.000486  0.000482 -0.002793
  6O   1f0        0.000000 -0.000000 -0.000000  0.000000 -0.000000 -0.000000
  6O   1f+1      -0.000106  0.000060  0.000034 -0.000500  0.002269  0.000114
  6O   1f-1       0.000001  0.000002 -0.000027  0.000018 -0.000035  0.000213
  6O   1f+2      -0.000000 -0.000000 -0.000000 -0.000000  0.000000  0.000000
  6O   1f-2       0.000000  0.000000 -0.000000  0.000000 -0.000000  0.000000
  6O   1f+3      -0.000147 -0.000091 -0.000062 -0.000837  0.002695  0.000730
  6O   1f-3       0.000016 -0.000042  0.000005  0.000008 -0.000118  0.000748
  7H   1s        -0.000105  0.000088 -0.000129  0.000356 -0.008784  0.072195
  7H   2s        -0.001592 -0.000316  0.000043  0.000124 -0.003888  0.060391
  7H   3s         0.000354 -0.002603  0.000504 -0.000917  0.000084  0.003238
  7H   1pz        0.000000 -0.000000 -0.000000  0.000000 -0.000000  0.000000
  7H   1px        0.000335  0.000590  0.000050 -0.000287  0.001383 -0.014723
  7H   1py       -0.000091 -0.000057 -0.000032  0.000568 -0.000260  0.001307
  8H   1s        -0.000186  0.000042 -0.000092  0.000362 -0.012641  0.069558
  8H   2s         0.000116  0.000189 -0.001082  0.002094 -0.010088  0.056573
  8H   3s         0.000084 -0.001954 -0.000254 -0.000025 -0.001158  0.003287
  8H   1pz       -0.000000  0.000000  0.000000 -0.000000  0.000000 -0.000000
  8H   1px        0.000049 -0.000263 -0.000045 -0.000155 -0.000571  0.006195
  8H   1py       -0.000107 -0.000490 -0.000297  0.000600 -0.002619  0.012437
                      6         7         8         9        10        11   
                  -0.78715  -0.64485  -0.59152  -0.55370  -0.50548  -0.49509
                   2.00000   2.00000   2.00000   2.00000   2.00000   2.00000
                  --------  --------  --------  --------  --------  --------
  0C   1s        -0.093761 -0.025774  0.016010  0.010368  0.000000 -0.001852
  0C   2s        -0.198343 -0.054996  0.034322  0.022243  0.000000 -0.003668
  0C   3s         0.327410  0.092507 -0.063387 -0.038971 -0.000000  0.006223
  0C   4s         0.350913  0.118402 -0.056939 -0.052003 -0.000000  0.014813
  0C   5s        -0.000545  0.015871 -0.030217 -0.051385 -0.000000 -0.015171
  0C   1pz       -0.000000  0.000000 -0.000000 -0.000000 -0.280609 -0.000000
  0C   1px       -0.012737  0.026574 -0.016760 -0.160425 -0.000000  0.203617
  0C   1py       -0.009540  0.091144 -0.099752 -0.055803 -0.000000  0.122733
  0C   2pz       -0.000000  0.000000 -0.000000  0.000000 -0.207309 -0.000000
  0C   2px       -0.010296  0.015231 -0.014956 -0.110422 -0.000000  0.146080
  0C   2py       -0.010543  0.058218 -0.083025 -0.038480  0.000000  0.089464
  0C   3pz        0.000000 -0.000000 -0.000000  0.000000 -0.062014 -0.000000
  0C   3px        0.001591  0.000568  0.000621 -0.031661 -0.000000  0.050687
  0C   3py        0.001317  0.012452 -0.019009  0.003073  0.000000  0.029348
  0C   1dz2      -0.000749  0.002745 -0.003294 -0.000297  0.000000  0.001033
  0C   1dxz       0.000000 -0.000000  0.000000 -0.000000  0.006668  0.000000
  0C   1dyz       0.000000 -0.000000  0.000000  0.000000 -0.007362 -0.000000
  0C   1dx2y2    -0.000182  0.003431 -0.001949 -0.002057 -0.000000  0.007584
  0C   1dxy       0.001380 -0.002977  0.003406  0.006075  0.000000 -0.006552
  0C   2dz2      -0.004165  0.000212 -0.008474 -0.004362  0.000000  0.001143
  0C   2dxz       0.000000 -0.000000  0.000000 -0.000000  0.004617  0.000000
  0C   2dyz       0.000000  0.000000  0.000000  0.000000  0.003154  0.000000
  0C   2dx2y2    -0.001081  0.005236 -0.005419  0.006450  0.000000  0.002415
  0C   2dxy       0.004219 -0.001079  0.002429  0.005117 -0.000000 -0.003300
  0C   1f0       -0.000000 -0.000000  0.000000  0.000000  0.001358  0.000000
  0C   1f+1      -0.001899 -0.000672  0.000494  0.001166 -0.000000 -0.000476
  0C   1f-1       0.005452  0.001054  0.000027 -0.000783 -0.000000 -0.000141
  0C   1f+2       0.000000  0.000000 -0.000000  0.000000  0.000011  0.000000
  0C   1f-2      -0.000000 -0.000000  0.000000  0.000000 -0.001339  0.000000
  0C   1f+3      -0.005352 -0.001414  0.000293  0.000445  0.000000  0.001036
  0C   1f-3       0.001139  0.001677 -0.001071  0.002685 -0.000000 -0.000182
  1C   1s        -0.028600  0.058485 -0.004545 -0.029970 -0.000000  0.004337
  1C   2s        -0.060375  0.125177 -0.009775 -0.064307 -0.000000  0.009138
  1C   3s         0.098092 -0.214129  0.018757  0.114012  0.000000 -0.006860
  1C   4s         0.095686 -0.220100  0.003406  0.114851  0.000000 -0.053687
  1C   5s         0.022955 -0.013856  0.007714  0.042519  0.000000 -0.017382
  1C   1pz       -0.000000 -0.000000 -0.000000  0.000000 -0.187285 -0.000000
  1C   1px        0.071191 -0.073851  0.080319 -0.141129  0.000000 -0.196015
  1C   1py        0.095283  0.106785  0.079634  0.175374  0.000000 -0.135803
  1C   2pz        0.000000 -0.000000 -0.000000  0.000000 -0.153090 -0.000000
  1C   2px        0.038931 -0.039246  0.049052 -0.060096  0.000000 -0.106093
  1C   2py        0.060065  0.049328  0.050897  0.113492  0.000000 -0.105730
  1C   3pz       -0.000000  0.000000  0.000000 -0.000000 -0.026995 -0.000000
  1C   3px        0.008885 -0.005869  0.006850  0.034408 -0.000000  0.011836
  1C   3py        0.007122  0.002342  0.021689  0.020364  0.000000 -0.007614
  1C   1dz2      -0.002618  0.007302  0.000119 -0.003378 -0.000000 -0.002315
  1C   1dxz       0.000000  0.000000  0.000000 -0.000000  0.003656 -0.000000
  1C   1dyz       0.000000  0.000000  0.000000  0.000000 -0.001532 -0.000000
  1C   1dx2y2    -0.003622  0.003718  0.007386  0.007470 -0.000000  0.018227
  1C   1dxy       0.003795  0.005481 -0.004232  0.002459  0.000000  0.001853
  1C   2dz2      -0.003954  0.006851  0.001574  0.000522 -0.000000  0.001210
  1C   2dxz       0.000000  0.000000 -0.000000  0.000000  0.005006  0.000000
  1C   2dyz       0.000000  0.000000  0.000000  0.000000 -0.007373 -0.000000
  1C   2dx2y2    -0.002453 -0.001093  0.017365 -0.015216 -0.000000  0.015409
  1C   2dxy       0.007769 -0.004420 -0.009630 -0.002253  0.000000 -0.003392
  1C   1f0       -0.000000  0.000000  0.000000 -0.000000  0.008015  0.000000
  1C   1f+1      -0.001653  0.001740 -0.002388  0.003037  0.000000  0.004200
  1C   1f-1      -0.001982 -0.002058 -0.001927 -0.003923 -0.000000  0.003158
  1C   1f+2      -0.000000 -0.000000 -0.000000  0.000000 -0.000909  0.000000
  1C   1f-2      -0.000000 -0.000000 -0.000000 -0.000000 -0.000938  0.000000
  1C   1f+3       0.001375 -0.006613 -0.001038  0.003050  0.000000  0.001601
  1C   1f-3       0.000023 -0.000978  0.003303 -0.001919 -0.000000  0.003595
  2H   1s         0.074075  0.041156 -0.037000 -0.006794 -0.108411  0.007574
  2H   2s         0.074891  0.045334 -0.041148 -0.003851 -0.142861  0.010735
  2H   3s         0.013744  0.006395 -0.005050 -0.002257 -0.030533  0.004519
  2H   1pz       -0.010312 -0.006079  0.005649  0.000302  0.007908 -0.001310
  2H   1px        0.002987  0.002738 -0.001872 -0.005475 -0.004822  0.007331
  2H   1py       -0.007297 -0.001274  0.000271 -0.002234  0.012615  0.003148
  3H   1s         0.074075  0.041156 -0.037000 -0.006794  0.108411  0.007574
  3H   2s         0.074891  0.045334 -0.041148 -0.003851  0.142861  0.010735
  3H   3s         0.013744  0.006395 -0.005050 -0.002257  0.030533  0.004519
  3H   1pz        0.010312  0.006079 -0.005649 -0.000302  0.007908  0.001310
  3H   1px        0.002987  0.002738 -0.001872 -0.005475  0.004822  0.007331
  3H   1py       -0.007297 -0.001274  0.000271 -0.002234 -0.012615  0.003148
  4H   1s         0.071258  0.031296 -0.014626 -0.076530 -0.000000  0.093245
  4H   2s         0.070265  0.033307 -0.014987 -0.098732 -0.000000  0.124448
  4H   3s         0.013291  0.009487  0.001643 -0.007566 -0.000000  0.026768
  4H   1pz       -0.000000 -0.000000  0.000000  0.000000 -0.009296 -0.000000
  4H   1px       -0.012141 -0.003692  0.002104  0.011434  0.000000 -0.011343
  4H   1py        0.001279  0.003129 -0.005220 -0.002915 -0.000000  0.005935
  5N   1s         0.020800 -0.018978  0.000127  0.001082 -0.000000  0.002247
  5N   2s         0.047115 -0.043199  0.000288  0.002601 -0.000000  0.005263
  5N   3s        -0.077484  0.073451 -0.000549 -0.004812  0.000000 -0.009043
  5N   4s        -0.089877  0.086647 -0.000556 -0.004318  0.000000 -0.019185
  5N   5s        -0.027483  0.033470  0.011983 -0.025982 -0.000000 -0.005484
  5N   1pz       -0.000000 -0.000000 -0.000000  0.000000 -0.108758 -0.000000
  5N   1px        0.006113  0.170577  0.308296  0.079130 -0.000000  0.126731
  5N   1py        0.057782 -0.250429  0.176663 -0.145328 -0.000000  0.054989
  5N   2pz       -0.000000 -0.000000 -0.000000  0.000000 -0.094916 -0.000000
  5N   2px        0.003991  0.130453  0.226134  0.064092 -0.000000  0.094682
  5N   2py        0.045239 -0.192589  0.132597 -0.113409 -0.000000  0.033648
  5N   3pz       -0.000000 -0.000000 -0.000000  0.000000 -0.039282 -0.000000
  5N   3px        0.002408  0.038677  0.062279  0.021862 -0.000000  0.023473
  5N   3py        0.010969 -0.053638  0.042366 -0.056195 -0.000000  0.012362
  5N   1dz2       0.001128 -0.000540  0.000104  0.000185 -0.000000  0.000265
  5N   1dxz       0.000000 -0.000000 -0.000000 -0.000000  0.001581  0.000000
  5N   1dyz       0.000000 -0.000000  0.000000 -0.000000 -0.002559 -0.000000
  5N   1dx2y2    -0.001468  0.004510  0.005960  0.001771 -0.000000  0.006768
  5N   1dxy      -0.001037  0.007644 -0.003309  0.003505  0.000000 -0.002990
  5N   2dz2       0.001525  0.001031  0.000016  0.001775  0.000000 -0.001722
  5N   2dxz       0.000000 -0.000000  0.000000 -0.000000  0.004747  0.000000
  5N   2dyz       0.000000 -0.000000 -0.000000 -0.000000 -0.007766 -0.000000
  5N   2dx2y2    -0.006668  0.004308 -0.005324 -0.000608 -0.000000  0.014041
  5N   2dxy       0.000638  0.011438  0.001408  0.005446  0.000000 -0.003034
  5N   1f0        0.000000  0.000000  0.000000 -0.000000  0.002783  0.000000
  5N   1f+1      -0.000197 -0.002680 -0.004109 -0.001040  0.000000 -0.000958
  5N   1f-1      -0.001099  0.003838 -0.002263  0.001953  0.000000 -0.000651
  5N   1f+2       0.000000 -0.000000 -0.000000 -0.000000  0.000482  0.000000
  5N   1f-2      -0.000000  0.000000 -0.000000  0.000000  0.001138 -0.000000
  5N   1f+3       0.001170 -0.000825 -0.000314  0.000177 -0.000000  0.000691
  5N   1f-3       0.001033  0.000301  0.001201  0.000248  0.000000 -0.002434
  6O   1s         0.016152 -0.027673 -0.012992  0.035424 -0.000000  0.016465
  6O   2s         0.038201 -0.065634 -0.030849  0.083963 -0.000000  0.038724
  6O   3s        -0.059720  0.102672  0.048406 -0.130230  0.000000 -0.055013
  6O   4s        -0.080924  0.152466  0.070844 -0.193787  0.000000 -0.109050
  6O   5s        -0.031799  0.089084  0.043147 -0.113025  0.000000 -0.059786
  6O   1pz        0.000000  0.000000  0.000000 -0.000000 -0.195960 -0.000000
  6O   1px        0.009934 -0.100202 -0.066996  0.285855 -0.000000  0.280092
  6O   1py        0.028074  0.040136  0.061940  0.118991  0.000000 -0.134399
  6O   2pz        0.000000  0.000000  0.000000 -0.000000 -0.157649 -0.000000
  6O   2px        0.007251 -0.070393 -0.049605  0.219507 -0.000000  0.211188
  6O   2py        0.023655  0.032054  0.051047  0.096868  0.000000 -0.110643
  6O   3pz       -0.000000  0.000000  0.000000 -0.000000 -0.069327 -0.000000
  6O   3px        0.003688 -0.024566 -0.020948  0.090719 -0.000000  0.097328
  6O   3py        0.007736  0.010358  0.016556  0.035641  0.000000 -0.047851
  6O   1dz2      -0.000033  0.001130  0.000890 -0.003437  0.000000 -0.002925
  6O   1dxz       0.000000  0.000000  0.000000 -0.000000 -0.004765 -0.000000
  6O   1dyz      -0.000000 -0.000000 -0.000000 -0.000000 -0.000118  0.000000
  6O   1dx2y2    -0.000103 -0.001915 -0.001253  0.005618 -0.000000  0.005470
  6O   1dxy       0.001334  0.001571  0.001947  0.003582  0.000000 -0.003154
  6O   2dz2      -0.000335  0.002509  0.002376 -0.006156  0.000000 -0.005041
  6O   2dxz       0.000000  0.000000  0.000000 -0.000000 -0.013386 -0.000000
  6O   2dyz      -0.000000 -0.000000 -0.000000 -0.000000 -0.000577  0.000000
  6O   2dx2y2    -0.000004 -0.003925 -0.001535  0.011563 -0.000000  0.011064
  6O   2dxy       0.005288  0.005156  0.007292  0.010929  0.000000 -0.009722
  6O   1f0       -0.000000 -0.000000 -0.000000  0.000000  0.002024  0.000000
  6O   1f+1      -0.000113  0.000862  0.000532 -0.001597  0.000000 -0.001476
  6O   1f-1      -0.000309 -0.000335 -0.000552 -0.000673 -0.000000  0.000513
  6O   1f+2       0.000000  0.000000  0.000000 -0.000000 -0.002438 -0.000000
  6O   1f-2      -0.000000 -0.000000 -0.000000 -0.000000 -0.000141  0.000000
  6O   1f+3       0.000163  0.000475  0.000438 -0.002242  0.000000 -0.002434
  6O   1f-3      -0.001056 -0.001373 -0.001726 -0.002630 -0.000000  0.002136
  7H   1s        -0.016217  0.087031  0.127529  0.031611 -0.000000  0.061462
  7H   2s        -0.011603  0.092832  0.155166  0.036675 -0.000000  0.083103
  7H   3s        -0.003282  0.012402  0.024470  0.003303 -0.000000  0.027030
  7H   1pz       -0.000000  0.000000  0.000000  0.000000 -0.004633 -0.000000
  7H   1px        0.002483 -0.013617 -0.021360 -0.004768  0.000000 -0.007858
  7H   1py        0.002474 -0.007611  0.006339 -0.005999 -0.000000  0.002404
  8H   1s        -0.036412  0.073035 -0.125915  0.035867  0.000000 -0.056442
  8H   2s        -0.034191  0.077726 -0.152187  0.037681  0.000000 -0.075129
  8H   3s        -0.000680  0.012073 -0.021914  0.004408  0.000000 -0.020781
  8H   1pz        0.000000 -0.000000  0.000000 -0.000000 -0.004559 -0.000000
  8H   1px       -0.003752  0.012505 -0.004635  0.006277 -0.000000 -0.001875
  8H   1py       -0.005477  0.005953 -0.021062  0.001776  0.000000 -0.008752
                     12        13        14        15        16        17   
                  -0.46729  -0.44369  -0.36861  -0.36323  -0.10829  -0.02810
                   2.00000   2.00000   2.00000   2.00000   0.00000   0.00000
                  --------  --------  --------  --------  --------  --------
  0C   1s        -0.002351 -0.000000 -0.013174 -0.000000  0.000000 -0.035332
  0C   2s        -0.005127 -0.000000 -0.028906 -0.000000  0.000000 -0.078725
  0C   3s         0.007893  0.000000  0.055206  0.000000 -0.000000  0.193550
  0C   4s         0.015098  0.000000  0.051434  0.000000 -0.000000  0.078372
  0C   5s        -0.001074  0.000000  0.077537  0.000000 -0.000000  2.275255
  0C   1pz       -0.000000  0.236233  0.000000  0.014935  0.006249 -0.000000
  0C   1px        0.226715  0.000000 -0.113941 -0.000000  0.000000  0.063933
  0C   1py       -0.265107 -0.000000 -0.143835 -0.000000  0.000000  0.028899
  0C   2pz       -0.000000  0.168625  0.000000  0.013711 -0.009052 -0.000000
  0C   2px        0.160984  0.000000 -0.086985 -0.000000  0.000000  0.032271
  0C   2py       -0.199273 -0.000000 -0.110150 -0.000000  0.000000 -0.029514
  0C   3pz       -0.000000  0.064796  0.000000 -0.025810 -0.091241 -0.000000
  0C   3px        0.062636 -0.000000 -0.022196  0.000000  0.000000  0.072730
  0C   3py       -0.068640 -0.000000 -0.057615 -0.000000  0.000000  0.052813
  0C   1dz2      -0.011782 -0.000000 -0.000673 -0.000000 -0.000000 -0.001644
  0C   1dxz       0.000000 -0.003196 -0.000000 -0.000841  0.002261  0.000000
  0C   1dyz      -0.000000  0.012481  0.000000  0.002501  0.020917  0.000000
  0C   1dx2y2     0.009560  0.000000 -0.004336 -0.000000  0.000000 -0.002393
  0C   1dxy       0.005025 -0.000000  0.003740  0.000000 -0.000000  0.004728
  0C   2dz2      -0.003738 -0.000000  0.004937  0.000000 -0.000000 -0.025161
  0C   2dxz       0.000000  0.006540  0.000000 -0.001744  0.020250  0.000000
  0C   2dyz      -0.000000  0.014046 -0.000000  0.008061  0.062457  0.000000
  0C   2dx2y2     0.007624  0.000000 -0.005582  0.000000  0.000000 -0.022789
  0C   2dxy       0.008874  0.000000 -0.001675  0.000000  0.000000  0.043200
  0C   1f0       -0.000000  0.001269  0.000000  0.000586  0.004124  0.000000
  0C   1f+1       0.000572  0.000000 -0.000800 -0.000000 -0.000000  0.006955
  0C   1f-1       0.000096  0.000000  0.000529 -0.000000 -0.000000 -0.003188
  0C   1f+2      -0.000000  0.000574 -0.000000  0.001004  0.000865 -0.000000
  0C   1f-2       0.000000 -0.001409 -0.000000 -0.000162 -0.006493  0.000000
  0C   1f+3      -0.000909  0.000000 -0.001481 -0.000000 -0.000000  0.001871
  0C   1f-3       0.001974  0.000000 -0.001224  0.000000  0.000000 -0.001514
  1C   1s        -0.007995 -0.000000 -0.007598 -0.000000 -0.000000  0.005620
  1C   2s        -0.017095 -0.000000 -0.016134 -0.000000 -0.000000  0.012950
  1C   3s         0.026980  0.000000  0.019879  0.000000  0.000000 -0.003679
  1C   4s         0.042725  0.000000  0.072616  0.000000  0.000000 -0.148822
  1C   5s        -0.010109 -0.000000  0.005705  0.000000  0.000000 -1.029896
  1C   1pz        0.000000 -0.159342  0.000000 -0.037056 -0.427124 -0.000000
  1C   1px        0.016881 -0.000000  0.033924  0.000000 -0.000000 -0.004363
  1C   1py        0.111311  0.000000  0.070717  0.000000  0.000000  0.042794
  1C   2pz        0.000000 -0.121873  0.000000 -0.036062 -0.439524 -0.000000
  1C   2px        0.018123 -0.000000  0.031912  0.000000 -0.000000  0.051746
  1C   2py        0.067352  0.000000  0.043032  0.000000  0.000000  0.018138
  1C   3pz        0.000000 -0.040888 -0.000000  0.012044 -0.350313 -0.000000
  1C   3px       -0.012751 -0.000000 -0.006119  0.000000  0.000000 -0.008949
  1C   3py        0.027648  0.000000 -0.023555  0.000000  0.000000 -0.081432
  1C   1dz2      -0.000124 -0.000000  0.001250  0.000000  0.000000 -0.008207
  1C   1dxz      -0.000000  0.013065  0.000000 -0.018542 -0.007613 -0.000000
  1C   1dyz      -0.000000  0.008430 -0.000000  0.011519 -0.006605 -0.000000
  1C   1dx2y2     0.004849  0.000000 -0.001124 -0.000000 -0.000000  0.002818
  1C   1dxy       0.007600 -0.000000  0.031642  0.000000 -0.000000  0.000045
  1C   2dz2      -0.003225 -0.000000 -0.002076  0.000000  0.000000  0.017522
  1C   2dxz       0.000000  0.019821  0.000000 -0.030623 -0.011030  0.000000
  1C   2dyz      -0.000000  0.018726 -0.000000  0.021614 -0.008000 -0.000000
  1C   2dx2y2     0.011893  0.000000 -0.004211 -0.000000  0.000000 -0.012924
  1C   2dxy       0.008249 -0.000000  0.047611  0.000000 -0.000000 -0.010858
  1C   1f0       -0.000000  0.005205 -0.000000  0.001659  0.000904  0.000000
  1C   1f+1      -0.000809  0.000000 -0.000966 -0.000000 -0.000000 -0.001977
  1C   1f-1      -0.002254 -0.000000 -0.000477 -0.000000 -0.000000  0.000345
  1C   1f+2       0.000000 -0.004747 -0.000000  0.004995  0.000105 -0.000000
  1C   1f-2      -0.000000  0.003350  0.000000  0.004494 -0.001927 -0.000000
  1C   1f+3      -0.000165  0.000000 -0.000712 -0.000000 -0.000000 -0.000599
  1C   1f-3      -0.008238 -0.000000  0.008959  0.000000 -0.000000  0.000098
  2H   1s        -0.097848  0.100723 -0.010265  0.010567  0.058666 -0.019688
  2H   2s        -0.131344  0.140387 -0.013668  0.014256  0.102463 -0.002907
  2H   3s        -0.030418  0.035006 -0.014326  0.028587  0.256419 -0.789613
  2H   1pz        0.015060 -0.007179  0.001761 -0.000028  0.000463 -0.018180
  2H   1px        0.002760  0.005040 -0.004009 -0.000160  0.001590  0.009367
  2H   1py        0.001155 -0.009896 -0.004295 -0.000420  0.005180 -0.009796
  3H   1s        -0.097848 -0.100723 -0.010265 -0.010567 -0.058666 -0.019689
  3H   2s        -0.131343 -0.140387 -0.013669 -0.014256 -0.102463 -0.002907
  3H   3s        -0.030418 -0.035006 -0.014326 -0.028587 -0.256419 -0.789614
  3H   1pz       -0.015060 -0.007179 -0.001761 -0.000028  0.000463  0.018180
  3H   1px        0.002760 -0.005040 -0.004009  0.000160 -0.001590  0.009367
  3H   1py        0.001155  0.009896 -0.004295  0.000420 -0.005180 -0.009796
  4H   1s         0.135387  0.000000 -0.037089 -0.000000  0.000000 -0.019313
  4H   2s         0.184397  0.000000 -0.052713 -0.000000  0.000000  0.000336
  4H   3s         0.042033  0.000000 -0.044596 -0.000000  0.000000 -0.937721
  4H   1pz       -0.000000  0.007781  0.000000 -0.000059 -0.000111 -0.000000
  4H   1px       -0.017997 -0.000000  0.002046 -0.000000  0.000000 -0.028563
  4H   1py       -0.005391 -0.000000 -0.006590 -0.000000  0.000000  0.011272
  5N   1s         0.007941 -0.000000  0.015230  0.000000  0.000000 -0.039356
  5N   2s         0.018234 -0.000000  0.035344  0.000000  0.000000 -0.093545
  5N   3s        -0.030686  0.000000 -0.063785 -0.000000 -0.000000  0.208688
  5N   4s        -0.049381 -0.000000 -0.076773 -0.000000 -0.000000  0.122857
  5N   5s         0.004892  0.000000 -0.089974 -0.000000 -0.000000  1.240019
  5N   1pz        0.000000 -0.145994  0.000000 -0.410603  0.212930  0.000000
  5N   1px       -0.043073 -0.000000  0.081456  0.000000  0.000000  0.076229
  5N   1py       -0.134144 -0.000000 -0.108784 -0.000000 -0.000000 -0.057642
  5N   2pz        0.000000 -0.125190  0.000000 -0.353727  0.179128  0.000000
  5N   2px       -0.031927 -0.000000  0.066022  0.000000  0.000000  0.042186
  5N   2py       -0.104568 -0.000000 -0.086425 -0.000000 -0.000000 -0.022012
  5N   3pz        0.000000 -0.058983  0.000000 -0.215677  0.247500  0.000000
  5N   3px       -0.010435 -0.000000  0.038823 -0.000000  0.000000  0.126952
  5N   3py       -0.026278  0.000000 -0.042121 -0.000000 -0.000000 -0.147128
  5N   1dz2       0.000108 -0.000000 -0.000439 -0.000000 -0.000000  0.003929
  5N   1dxz      -0.000000  0.001844 -0.000000  0.000770  0.005282  0.000000
  5N   1dyz      -0.000000 -0.002131  0.000000 -0.001386 -0.008755 -0.000000
  5N   1dx2y2    -0.003532 -0.000000  0.001105  0.000000  0.000000 -0.002984
  5N   1dxy       0.004416  0.000000  0.001839  0.000000 -0.000000 -0.001916
  5N   2dz2      -0.000640 -0.000000 -0.001766 -0.000000  0.000000  0.010956
  5N   2dxz       0.000000  0.004912 -0.000000 -0.001497  0.015532  0.000000
  5N   2dyz       0.000000 -0.003955  0.000000 -0.000139 -0.035568 -0.000000
  5N   2dx2y2    -0.008777 -0.000000  0.002618  0.000000  0.000000 -0.022118
  5N   2dxy       0.008121  0.000000  0.000228 -0.000000 -0.000000 -0.010839
  5N   1f0       -0.000000  0.003092 -0.000000  0.006443 -0.000266 -0.000000
  5N   1f+1       0.000182  0.000000 -0.000529  0.000000 -0.000000  0.000960
  5N   1f-1       0.001501  0.000000  0.001177  0.000000  0.000000 -0.000766
  5N   1f+2       0.000000 -0.000218 -0.000000  0.000391  0.002255  0.000000
  5N   1f-2       0.000000  0.001276 -0.000000  0.000273  0.003047  0.000000
  5N   1f+3       0.000700  0.000000  0.001063  0.000000  0.000000  0.002312
  5N   1f-3       0.001789  0.000000 -0.000687 -0.000000 -0.000000  0.000362
  6O   1s         0.000091 -0.000000  0.000713 -0.000000  0.000000 -0.010907
  6O   2s         0.000162 -0.000000  0.001774 -0.000000  0.000000 -0.026851
  6O   3s         0.000391  0.000000 -0.004053  0.000000 -0.000000  0.051001
  6O   4s        -0.003071  0.000000  0.000149  0.000000 -0.000000  0.059838
  6O   5s        -0.010163 -0.000000 -0.009187 -0.000000 -0.000000  0.378074
  6O   1pz        0.000000 -0.313808 -0.000000  0.277033  0.247244  0.000000
  6O   1px        0.017467 -0.000000 -0.023013  0.000000  0.000000  0.025827
  6O   1py        0.067034  0.000000 -0.455987 -0.000000 -0.000000 -0.027072
  6O   2pz        0.000000 -0.255922 -0.000000  0.228339  0.203057  0.000000
  6O   2px        0.011696 -0.000000 -0.017330  0.000000  0.000000  0.043108
  6O   2py        0.053728  0.000000 -0.371706 -0.000000 -0.000000 -0.020013
  6O   3pz        0.000000 -0.122298 -0.000000  0.126313  0.248764  0.000000
  6O   3px        0.005248 -0.000000 -0.009023  0.000000  0.000000  0.146458
  6O   3py        0.022072  0.000000 -0.212495 -0.000000 -0.000000 -0.037861
  6O   1dz2      -0.000132  0.000000  0.000230 -0.000000  0.000000  0.000113
  6O   1dxz       0.000000 -0.005653 -0.000000  0.002550 -0.005858 -0.000000
  6O   1dyz      -0.000000  0.000193  0.000000  0.000296 -0.000159 -0.000000
  6O   1dx2y2     0.000377 -0.000000 -0.000405  0.000000 -0.000000 -0.000260
  6O   1dxy       0.001709  0.000000 -0.004275 -0.000000  0.000000  0.000747
  6O   2dz2      -0.000022  0.000000  0.000442 -0.000000  0.000000 -0.007325
  6O   2dxz       0.000000 -0.016276 -0.000000  0.006722 -0.016653 -0.000000
  6O   2dyz      -0.000000  0.001163  0.000000  0.001793 -0.001622 -0.000000
  6O   2dx2y2     0.001326 -0.000000 -0.000425  0.000000 -0.000000  0.013916
  6O   2dxy       0.003351  0.000000 -0.009704 -0.000000 -0.000000  0.001886
  6O   1f0        0.000000  0.002492  0.000000 -0.001303  0.001053  0.000000
  6O   1f+1      -0.000093  0.000000  0.000179 -0.000000  0.000000 -0.001009
  6O   1f-1      -0.000093 -0.000000  0.000781  0.000000  0.000000 -0.000180
  6O   1f+2       0.000000 -0.003241 -0.000000  0.001738 -0.001630 -0.000000
  6O   1f-2      -0.000000  0.000375  0.000000  0.000583 -0.000394 -0.000000
  6O   1f+3      -0.000246  0.000000  0.000130 -0.000000  0.000000 -0.000907
  6O   1f-3      -0.000762 -0.000000  0.002739  0.000000  0.000000 -0.000254
  7H   1s        -0.027301 -0.000000  0.023912  0.000000  0.000000 -0.054580
  7H   2s        -0.030143 -0.000000  0.035518  0.000000  0.000000 -0.106766
  7H   3s        -0.010248 -0.000000  0.015410  0.000000  0.000000 -0.926637
  7H   1pz        0.000000 -0.005803  0.000000 -0.018688  0.012904  0.000000
  7H   1px        0.003638  0.000000 -0.001922 -0.000000  0.000000 -0.039181
  7H   1py       -0.001767 -0.000000 -0.003914 -0.000000  0.000000 -0.004354
  8H   1s         0.058738  0.000000  0.016161  0.000000  0.000000 -0.039970
  8H   2s         0.077717  0.000000  0.030909  0.000000 -0.000000 -0.102369
  8H   3s         0.029872  0.000000  0.029185  0.000000  0.000000 -0.662857
  8H   1pz        0.000000 -0.006577  0.000000 -0.018285  0.013158  0.000000
  8H   1px        0.004592 -0.000000  0.002767  0.000000  0.000000  0.014919
  8H   1py        0.005593  0.000000 -0.000703 -0.000000 -0.000000  0.019514
                     18        19        20        21        22        23   
                   0.01107   0.01390   0.04858   0.05049   0.07121   0.08957
                   0.00000   0.00000   0.00000   0.00000   0.00000   0.00000
                  --------  --------  --------  --------  --------  --------
  0C   1s         0.026707  0.030126 -0.000000 -0.025464 -0.009912  0.003620
  0C   2s         0.059554  0.067391 -0.000000 -0.056591 -0.022528  0.008442
  0C   3s        -0.160562 -0.168674  0.000000  0.129369  0.061048 -0.042383
  0C   4s        -0.002644 -0.023704  0.000000  0.076806 -0.136660  0.114891
  0C   5s        -2.622581 -2.453725  0.000003  1.889406  2.721773 -2.232346
  0C   1pz        0.000000  0.000000 -0.317715  0.000001  0.000000  0.000000
  0C   1px       -0.072986  0.185605  0.000000  0.148815 -0.104611 -0.066817
  0C   1py       -0.128202 -0.073741 -0.000000 -0.153280 -0.146048 -0.102099
  0C   2pz        0.000000  0.000000 -0.225018  0.000000  0.000000  0.000000
  0C   2px       -0.054244  0.167750  0.000000  0.083094 -0.119815  0.008423
  0C   2py       -0.063505  0.002608 -0.000000 -0.182483 -0.148822 -0.146948
  0C   3pz        0.000000  0.000000 -1.398527  0.000002  0.000000  0.000000
  0C   3px       -0.084962  0.942735  0.000001  0.384881 -1.284867  0.047996
  0C   3py       -0.204156 -0.026586 -0.000002 -1.201434 -1.682091  0.574287
  0C   1dz2       0.002698  0.008814  0.000000  0.025298  0.011428  0.002499
  0C   1dxz       0.000000 -0.000000 -0.014816  0.000000  0.000000  0.000000
  0C   1dyz      -0.000000  0.000000  0.017907 -0.000000 -0.000000  0.000000
  0C   1dx2y2     0.009006 -0.016278 -0.000000 -0.008113  0.018704 -0.013375
  0C   1dxy      -0.003692  0.004920 -0.000000 -0.014179 -0.027518 -0.001567
  0C   2dz2       0.027636  0.073884  0.000000  0.048035  0.009316 -0.013769
  0C   2dxz       0.000000 -0.000000 -0.078124  0.000000  0.000000  0.000000
  0C   2dyz      -0.000000  0.000000  0.084247 -0.000000 -0.000000 -0.000000
  0C   2dx2y2     0.057829 -0.041384 -0.000000 -0.066612  0.014735 -0.006921
  0C   2dxy      -0.035867 -0.015977 -0.000000  0.013602 -0.045684 -0.078647
  0C   1f0       -0.000000 -0.000000  0.000742  0.000000 -0.000000 -0.000000
  0C   1f+1      -0.007648 -0.003942  0.000000  0.007036  0.001327 -0.004938
  0C   1f-1       0.004195  0.008518  0.000000  0.002496  0.002817  0.004204
  0C   1f+2       0.000000 -0.000000 -0.008602  0.000000  0.000000  0.000000
  0C   1f-2      -0.000000 -0.000000 -0.007578  0.000000  0.000000  0.000000
  0C   1f+3      -0.003547  0.002283  0.000000  0.004167  0.002510 -0.000420
  0C   1f-3       0.005454 -0.002190 -0.000000 -0.001581 -0.002098 -0.000864
  1C   1s         0.008445 -0.011238  0.000000  0.017996  0.059891  0.014901
  1C   2s         0.018173 -0.024866  0.000000  0.039120  0.131530  0.034138
  1C   3s        -0.023170  0.022994 -0.000000 -0.055656 -0.203435  0.026170
  1C   4s        -0.149468  0.211570 -0.000001 -0.249766 -0.754840 -0.725685
  1C   5s         0.642149  1.621304 -0.000003 -1.097816 -3.618788 -1.620425
  1C   1pz       -0.000000  0.000000  0.094384 -0.000000 -0.000000 -0.000000
  1C   1px       -0.056623  0.072449 -0.000000 -0.038941 -0.111103  0.080698
  1C   1py        0.012513  0.038191 -0.000000 -0.171391 -0.060248  0.000504
  1C   2pz        0.000000  0.000000  0.073717 -0.000000 -0.000000 -0.000000
  1C   2px       -0.069488  0.082525 -0.000000 -0.060042 -0.261269  0.558014
  1C   2py        0.094884  0.025165 -0.000000 -0.266951  0.041671  0.072809
  1C   3pz       -0.000000  0.000000  0.480074 -0.000001 -0.000000 -0.000000
  1C   3px        0.111480  0.152441 -0.000000 -0.327766 -1.326449  1.948909
  1C   3py        0.255155  0.304863 -0.000001 -0.513433 -1.202345  1.070155
  1C   1dz2       0.003857  0.009783 -0.000000 -0.000718 -0.015568 -0.021976
  1C   1dxz       0.000000 -0.000000 -0.005899  0.000000 -0.000000 -0.000000
  1C   1dyz       0.000000  0.000000 -0.005056  0.000000  0.000000 -0.000000
  1C   1dx2y2    -0.012046  0.020202  0.000000  0.001552  0.009139  0.011588
  1C   1dxy       0.004439 -0.000806  0.000000  0.010244 -0.004287  0.002559
  1C   2dz2      -0.006203 -0.012695  0.000000  0.012160 -0.027366  0.057369
  1C   2dxz       0.000000 -0.000000 -0.003469  0.000000 -0.000000  0.000000
  1C   2dyz       0.000000 -0.000000 -0.019313  0.000000 -0.000000  0.000000
  1C   2dx2y2     0.012351  0.030083  0.000000  0.035387  0.017672 -0.127847
  1C   2dxy       0.030135  0.006586  0.000000  0.007421  0.059962 -0.007011
  1C   1f0       -0.000000 -0.000000  0.004863 -0.000000 -0.000000  0.000000
  1C   1f+1       0.001570 -0.001094  0.000000  0.002039  0.004753 -0.010791
  1C   1f-1      -0.000267  0.001188  0.000000  0.002545 -0.001253  0.000838
  1C   1f+2       0.000000  0.000000 -0.002148  0.000000  0.000000 -0.000000
  1C   1f-2       0.000000  0.000000 -0.004701  0.000000  0.000000  0.000000
  1C   1f+3      -0.001158  0.003234 -0.000000 -0.000019 -0.005306 -0.009964
  1C   1f-3      -0.002543  0.000160 -0.000000 -0.007810  0.004932 -0.003538
  2H   1s         0.014253  0.034725  0.063025  0.041275  0.023131  0.027618
  2H   2s        -0.019333 -0.004580  0.011594  0.108213  0.025678  0.073659
  2H   3s         0.994263  1.314385  1.897225  0.417430  0.107941  0.429927
  2H   1pz        0.023691  0.032567  0.032770  0.010432  0.004453  0.005121
  2H   1px       -0.011906  0.001535 -0.018280  0.002834 -0.018456  0.005337
  2H   1py        0.007638  0.019949  0.030224 -0.011464 -0.013404  0.006586
  3H   1s         0.014253  0.034725 -0.063025  0.041275  0.023131  0.027618
  3H   2s        -0.019333 -0.004580 -0.011593  0.108213  0.025678  0.073659
  3H   3s         0.994263  1.314385 -1.897223  0.417436  0.107942  0.429928
  3H   1pz       -0.023691 -0.032567  0.032770 -0.010432 -0.004453 -0.005121
  3H   1px       -0.011906  0.001535  0.018280  0.002834 -0.018456  0.005337
  3H   1py        0.007638  0.019949 -0.030224 -0.011463 -0.013404  0.006586
  4H   1s         0.041692 -0.045458 -0.000000 -0.075208  0.045667 -0.037839
  4H   2s         0.019234 -0.065409 -0.000000 -0.044593  0.166242 -0.198655
  4H   3s         1.119402 -0.598160 -0.000003 -1.901892  0.556468  0.536547
  4H   1pz        0.000000 -0.000000 -0.019876  0.000000  0.000000  0.000000
  4H   1px        0.028360 -0.013695 -0.000000 -0.048839 -0.007631  0.023644
  4H   1py       -0.007241  0.006540 -0.000000 -0.015730 -0.025159 -0.009193
  5N   1s        -0.028512  0.000823  0.000000  0.012365 -0.018996 -0.001966
  5N   2s        -0.067977  0.001510  0.000000  0.029205 -0.044864 -0.004540
  5N   3s         0.154042  0.008558 -0.000000 -0.062679  0.089423  0.006189
  5N   4s         0.090070 -0.054285 -0.000000 -0.052760  0.110001 -0.004120
  5N   5s         0.970420 -0.008411 -0.000000 -0.279131  0.841931  0.230677
  5N   1pz        0.000000 -0.000000 -0.020846  0.000000  0.000000  0.000000
  5N   1px       -0.077803  0.170266 -0.000000 -0.110360  0.053264 -0.068459
  5N   1py       -0.147648 -0.003808 -0.000000 -0.073240  0.162306  0.060898
  5N   2pz       -0.000000 -0.000000 -0.011089  0.000000 -0.000000  0.000000
  5N   2px       -0.071345  0.135645 -0.000000 -0.070274 -0.035579 -0.014410
  5N   2py       -0.059488 -0.031976 -0.000000 -0.058306  0.203824  0.068201
  5N   3pz        0.000000 -0.000000 -0.122353  0.000000  0.000000  0.000000
  5N   3px       -0.297774  0.550151 -0.000001 -0.309826  0.394280 -0.684636
  5N   3py       -0.349070  0.015344 -0.000000 -0.303029  0.933481  0.116837
  5N   1dz2       0.004656  0.001116 -0.000000 -0.001956  0.002248 -0.001752
  5N   1dxz       0.000000  0.000000 -0.002694  0.000000  0.000000  0.000000
  5N   1dyz       0.000000 -0.000000  0.002085 -0.000000 -0.000000 -0.000000
  5N   1dx2y2     0.004638 -0.010312  0.000000  0.005866  0.004472 -0.007721
  5N   1dxy      -0.002316  0.001589 -0.000000 -0.005315  0.013449  0.006178
  5N   2dz2       0.013275  0.010195 -0.000000 -0.005418 -0.001710 -0.035434
  5N   2dxz       0.000000  0.000000 -0.012699  0.000000  0.000000 -0.000000
  5N   2dyz       0.000000 -0.000000 -0.002434 -0.000000 -0.000000 -0.000000
  5N   2dx2y2     0.020200 -0.037822  0.000000  0.038192 -0.018913 -0.039030
  5N   2dxy      -0.041694  0.015223 -0.000000 -0.010145  0.001713  0.030824
  5N   1f0        0.000000  0.000000  0.000188 -0.000000  0.000000 -0.000000
  5N   1f+1       0.000449 -0.001476  0.000000 -0.000388  0.001574  0.003479
  5N   1f-1      -0.000960  0.001322 -0.000000  0.000855 -0.004400 -0.001883
  5N   1f+2       0.000000 -0.000000  0.000612 -0.000000  0.000000  0.000000
  5N   1f-2      -0.000000  0.000000 -0.001465  0.000000  0.000000  0.000000
  5N   1f+3       0.002500  0.000531  0.000000 -0.000337  0.001921 -0.000919
  5N   1f-3      -0.000909  0.001614 -0.000000 -0.000577 -0.001235  0.001730
  6O   1s         0.003045 -0.000641 -0.000000 -0.004580 -0.005003 -0.038203
  6O   2s         0.007325 -0.001363 -0.000000 -0.010993 -0.011968 -0.095711
  6O   3s        -0.011280  0.000375  0.000000  0.018154  0.018118  0.200287
  6O   4s        -0.038632  0.019181  0.000000  0.035083  0.062498  0.110624
  6O   5s        -0.056014 -0.221838  0.000000 -0.007282 -0.228470  2.599577
  6O   1pz        0.000000 -0.000000 -0.091623  0.000000  0.000000  0.000000
  6O   1px       -0.026893  0.036236  0.000000  0.026454  0.112186  0.064929
  6O   1py       -0.059000 -0.007764  0.000000  0.082009  0.001043 -0.010129
  6O   2pz        0.000000 -0.000000 -0.070444  0.000000  0.000000 -0.000000
  6O   2px       -0.028460  0.018111  0.000000  0.013642  0.075954  0.209420
  6O   2py       -0.052957 -0.008484  0.000000  0.058020  0.001067  0.000980
  6O   3pz        0.000000 -0.000000 -0.113472  0.000000  0.000000 -0.000000
  6O   3px       -0.041156 -0.027774  0.000000  0.038959  0.053466  0.838825
  6O   3py       -0.031660  0.005104  0.000000  0.157173  0.128813 -0.146034
  6O   1dz2       0.000128  0.001088  0.000000  0.000250 -0.000868  0.002442
  6O   1dxz      -0.000000  0.000000  0.001393 -0.000000 -0.000000  0.000000
  6O   1dyz       0.000000  0.000000 -0.000210  0.000000  0.000000 -0.000000
  6O   1dx2y2     0.000276  0.000417 -0.000000 -0.000162 -0.001267 -0.005074
  6O   1dxy      -0.000357  0.000087 -0.000000 -0.004104 -0.001479  0.000874
  6O   2dz2       0.000191  0.009506 -0.000000  0.002410  0.001731 -0.042002
  6O   2dxz      -0.000000  0.000000  0.011164 -0.000000 -0.000000 -0.000000
  6O   2dyz      -0.000000  0.000000  0.005311 -0.000000 -0.000000 -0.000000
  6O   2dx2y2     0.000057 -0.002472  0.000000  0.001055 -0.021625  0.055895
  6O   2dxy      -0.000709  0.005040 -0.000000 -0.014399  0.007807 -0.008066
  6O   1f0        0.000000 -0.000000 -0.000801  0.000000  0.000000  0.000000
  6O   1f+1      -0.000192  0.001092 -0.000000 -0.000181 -0.000024 -0.003634
  6O   1f-1       0.000219 -0.000013  0.000000  0.000687  0.000027  0.000278
  6O   1f+2      -0.000000  0.000000  0.000659 -0.000000 -0.000000 -0.000000
  6O   1f-2       0.000000 -0.000000 -0.000038  0.000000 -0.000000  0.000000
  6O   1f+3      -0.000134 -0.000339 -0.000000 -0.000264  0.000904 -0.003300
  6O   1f-3       0.001125 -0.000742  0.000000  0.002052 -0.000314  0.000857
  7H   1s        -0.015869 -0.050456  0.000000  0.045137 -0.019027 -0.025920
  7H   2s         0.004853 -0.177540  0.000000  0.087999 -0.049734  0.048551
  7H   3s        -0.074788 -0.999822  0.000002  0.915091 -0.922724  0.431262
  7H   1pz        0.000000  0.000000 -0.006320  0.000000  0.000000  0.000000
  7H   1px       -0.006242 -0.027032  0.000000  0.028234 -0.030390  0.006860
  7H   1py        0.002937 -0.003346 -0.000000 -0.007815  0.023918  0.008382
  8H   1s        -0.063926  0.028310 -0.000000 -0.023042  0.019739  0.056842
  8H   2s        -0.138199  0.087958 -0.000000 -0.105123  0.229393  0.092609
[...]
                   F(y)            G[Q(x)]           CPSCF         Total
Table01         1.1  0.00         2.6  0.01       128.6  0.53       244.3 
Table01a        1.1  0.00,        2.6, 0.01,      128.6  0.53       244.3 
Table01b        1.1   0.5,        2.6,  1.0,      128.6  52.6       244.3 

Writing the Hessian file to the disk             ... done


Maximum memory used throughout the entire calculation: 187.1 MB

-----------------------
VIBRATIONAL FREQUENCIES
-----------------------

Scaling factor for frequencies =  1.000000000  (already applied!)

   0:         0.00 cm**-1
   1:         0.00 cm**-1
   2:         0.00 cm**-1
   3:         0.00 cm**-1
   4:         0.00 cm**-1
   5:         0.00 cm**-1
   6:       -25.61 cm**-1 ***imaginary mode***
   7:       223.81 cm**-1
   8:       426.61 cm**-1
   9:       506.33 cm**-1
  10:       530.23 cm**-1
  11:       650.18 cm**-1
  12:       831.88 cm**-1
  13:       967.02 cm**-1
  14:      1013.90 cm**-1
  15:      1079.52 cm**-1
  16:      1315.66 cm**-1
  17:      1337.89 cm**-1
  18:      1410.11 cm**-1
  19:      1426.24 cm**-1
  20:      1556.33 cm**-1
  21:      1619.25 cm**-1
  22:      2978.30 cm**-1
  23:      3046.25 cm**-1
  24:      3062.96 cm**-1
  25:      3481.42 cm**-1
  26:      3610.47 cm**-1


------------
NORMAL MODES
------------

These modes are the Cartesian displacements weighted by the diagonal matrix
M(i,i)=1/sqrt(m[i]) where m[i] is the mass of the displaced atom
Thus, these vectors are normalized but *not* orthogonal

                  0          1          2          3          4          5    
      0       0.000000   0.000000   0.000000   0.000000   0.000000   0.000000
      1       0.000000   0.000000   0.000000   0.000000   0.000000   0.000000
      2       0.000000   0.000000   0.000000   0.000000   0.000000   0.000000
      3       0.000000   0.000000   0.000000   0.000000   0.000000   0.000000
      4       0.000000   0.000000   0.000000   0.000000   0.000000   0.000000
      5       0.000000   0.000000   0.000000   0.000000   0.000000   0.000000
      6       0.000000   0.000000   0.000000   0.000000   0.000000   0.000000
      7       0.000000   0.000000   0.000000   0.000000   0.000000   0.000000
      8       0.000000   0.000000   0.000000   0.000000   0.000000   0.000000
      9       0.000000   0.000000   0.000000   0.000000   0.000000   0.000000
     10       0.000000   0.000000   0.000000   0.000000   0.000000   0.000000
     11       0.000000   0.000000   0.000000   0.000000   0.000000   0.000000
     12       0.000000   0.000000   0.000000   0.000000   0.000000   0.000000
     13       0.000000   0.000000   0.000000   0.000000   0.000000   0.000000
     14       0.000000   0.000000   0.000000   0.000000   0.000000   0.000000
     15       0.000000   0.000000   0.000000   0.000000   0.000000   0.000000
     16       0.000000   0.000000   0.000000   0.000000   0.000000   0.000000
     17       0.000000   0.000000   0.000000   0.000000   0.000000   0.000000
     18       0.000000   0.000000   0.000000   0.000000   0.000000   0.000000
     19       0.000000   0.000000   0.000000   0.000000   0.000000   0.000000
     20       0.000000   0.000000   0.000000   0.000000   0.000000   0.000000
     21       0.000000   0.000000   0.000000   0.000000   0.000000   0.000000
     22       0.000000   0.000000   0.000000   0.000000   0.000000   0.000000
     23       0.000000   0.000000   0.000000   0.000000   0.000000   0.000000
     24       0.000000   0.000000   0.000000   0.000000   0.000000   0.000000
     25       0.000000   0.000000   0.000000   0.000000   0.000000   0.000000
     26       0.000000   0.000000   0.000000   0.000000   0.000000   0.000000
                  6          7          8          9         10         11    
      0       0.000111   0.000063   0.141187  -0.003319  -0.127577  -0.000298
      1      -0.000159  -0.000024  -0.117648  -0.002678  -0.180142  -0.001219
      2       0.002654  -0.001655   0.000228   0.014385  -0.000635  -0.026888
      3      -0.000112   0.000053  -0.132128   0.000064  -0.036101  -0.000297
      4       0.000020   0.000080   0.036671  -0.002812  -0.128775  -0.000212
      5       0.017503  -0.022885  -0.001208  -0.156066   0.009139  -0.208436
      6      -0.408897   0.026092   0.388868  -0.194430  -0.228031  -0.152594
      7       0.278558  -0.027348  -0.014346  -0.241657  -0.209281  -0.250839
      8      -0.314188   0.025032   0.009314   0.116412  -0.013473   0.093259
      9       0.409251  -0.025480   0.390210   0.180004  -0.249198   0.151850
     10      -0.278082   0.027356  -0.009317   0.232760  -0.236180   0.247914
     11      -0.314373   0.024989  -0.005940   0.116719   0.000665   0.093244
     12      -0.000038  -0.000032   0.080776  -0.002455  -0.100373  -0.000281
     13      -0.001142  -0.000609  -0.520896   0.003370   0.010362  -0.001249
     14       0.529476  -0.031110   0.001218   0.248182  -0.013599   0.129389
     15       0.000078  -0.000108   0.061853   0.002635   0.165291   0.001100
     16       0.000196   0.000272   0.169421  -0.001900  -0.028864   0.000632
     17      -0.040102   0.135151   0.000072   0.021199  -0.001224   0.065903
     18      -0.000110  -0.000043  -0.139109   0.000226  -0.032713  -0.000433
     19      -0.000057  -0.000198  -0.083270   0.006053   0.274727   0.000727
     20       0.041169  -0.014530   0.000048   0.037353  -0.002480   0.098051
     21       0.000188   0.001146   0.057700   0.003257   0.163020   0.000267
     22       0.000485  -0.000480   0.445060   0.007216   0.409376   0.000344
     23      -0.099481  -0.813713  -0.005102  -0.410655   0.016060   0.615051
     24       0.000175  -0.000924   0.322949   0.012191   0.587270  -0.000570
     25       0.000014  -0.000219   0.031814  -0.005935  -0.252708   0.000552
     26      -0.137803  -0.560196   0.010432   0.730115  -0.034627  -0.598934
                 12         13         14         15         16         17    
      0      -0.146807  -0.134447  -0.000210   0.088788  -0.057899   0.029541
      1      -0.266863   0.059402  -0.000343  -0.032751  -0.025029   0.143653
      2      -0.000086  -0.000024   0.169861   0.000147  -0.000060   0.000155
      3       0.098117  -0.010490   0.000091  -0.026585   0.010190   0.010840
      4       0.116525   0.025697   0.000074   0.003275  -0.256730  -0.126986
      5       0.000510   0.000021  -0.188427   0.000121   0.000097  -0.000154
      6      -0.160544   0.357154   0.210179  -0.199598   0.405763  -0.049858
      7      -0.281892   0.183872   0.565533  -0.063109   0.286252  -0.509832
      8       0.000817   0.066663  -0.160448  -0.063499  -0.053703   0.386057
      9      -0.160532   0.356567  -0.209501  -0.198932   0.407473  -0.052072
     10      -0.281195   0.184387  -0.563791  -0.063618   0.287399  -0.511234
     11      -0.000474  -0.066250  -0.159944   0.063326   0.053978  -0.386877
     12      -0.168963  -0.232215  -0.000201   0.135946   0.037142  -0.031594
     13      -0.351169  -0.633928   0.000300   0.318635   0.432554  -0.304268
     14       0.000165   0.000353  -0.381819  -0.000205  -0.000203   0.000605
     15      -0.036987   0.101158  -0.000048   0.155040  -0.015141  -0.005756
     16       0.198295  -0.069553   0.000049   0.015758   0.108394   0.054368
     17      -0.000294  -0.000081   0.022221  -0.000162  -0.000043  -0.000032
     18       0.132069  -0.009124   0.000117  -0.150370   0.019694  -0.006763
     19      -0.016578   0.034862   0.000013   0.018286   0.027725   0.013195
     20      -0.000245  -0.000021   0.031515  -0.000108  -0.000026   0.000010
     21      -0.039299   0.108032  -0.000089   0.167010  -0.026450  -0.011334
     22      -0.221900  -0.380970   0.000033  -0.658478   0.110735   0.031708
     23      -0.002119  -0.000473   0.008558  -0.002219  -0.000608  -0.000093
     24      -0.472731  -0.123367  -0.000171  -0.413360  -0.357638  -0.148993
     25       0.435188   0.045802   0.000259   0.308597   0.294121   0.130114
     26       0.004540   0.001197   0.105911   0.003378   0.001103   0.000578
                 18         19         20         21         22         23    
      0       0.000612  -0.066282   0.003944  -0.049778  -0.019102   0.000069
      1       0.000152  -0.038341   0.006170  -0.002854  -0.045382  -0.000123
      2      -0.049529  -0.000524  -0.000094   0.000025  -0.000107   0.091475
      3       0.000068   0.015685  -0.057278   0.612287   0.000914   0.000011
      4      -0.000922   0.101536  -0.052002  -0.049729   0.001392  -0.000003
      5      -0.027624  -0.000270  -0.000122   0.000055   0.000001   0.001170
      6       0.479691   0.402239   0.017316   0.011015  -0.156134   0.184849
      7       0.108517  -0.272990   0.007404   0.137840   0.308742  -0.382637
      8       0.047279   0.294056   0.004585  -0.083600   0.485394  -0.560211
      9      -0.487025   0.391997   0.016179   0.012773  -0.156023  -0.185509
     10      -0.102100  -0.275341   0.007105   0.138336   0.308528   0.384091
     11       0.053908  -0.293686  -0.004574   0.083668  -0.484143  -0.561200
     12      -0.000255   0.042506   0.008766  -0.084432   0.529076  -0.000299
     13      -0.004565   0.567372   0.040487  -0.270483  -0.091624   0.000039
     14       0.708499   0.008102   0.001038  -0.001230  -0.000073   0.018127
     15      -0.000022   0.005372  -0.049805  -0.116855   0.000025   0.000002
     16       0.000239  -0.032605   0.103674   0.074109  -0.000059  -0.000002
     17       0.001568   0.000009   0.000055   0.000006   0.000000   0.000171
     18       0.000093  -0.026329   0.046110  -0.341855   0.000089   0.000001
     19       0.000106  -0.011719   0.002812  -0.002049  -0.000109   0.000002
     20       0.004716   0.000065   0.000031  -0.000036   0.000006  -0.000209
     21      -0.000045   0.010773  -0.038165  -0.104222  -0.004177  -0.000033
     22       0.001175  -0.048123  -0.752537  -0.126309   0.000126  -0.000002
     23       0.010798   0.000013   0.000472   0.001280  -0.000020  -0.000033
     24      -0.001637   0.098644   0.591634   0.511909   0.002213   0.000013
     25       0.001131  -0.084840  -0.241608  -0.250117   0.000948   0.000011
     26       0.002209  -0.000189  -0.000201  -0.000594   0.000004   0.000327
                  24         25         26    
      0      -0.083373   0.000729  -0.000237
      1       0.042164   0.000340   0.000444
      2       0.000113  -0.000003   0.000007
      3      -0.001328  -0.000598  -0.001088
      4       0.002350   0.001521  -0.001273
      5      -0.000008   0.000008  -0.000005
      6       0.082097   0.000184   0.000380
      7      -0.194331  -0.000562  -0.001031
      8      -0.312599   0.000357  -0.000290
      9       0.081826   0.000203   0.000367
     10      -0.193954  -0.000573  -0.001013
     11       0.311332  -0.000311   0.000276
     12       0.831341  -0.006456   0.006166
     13      -0.128840   0.003047  -0.001037
     14       0.000008   0.000053  -0.000056
     15       0.000992   0.019680  -0.077110
     16      -0.000461  -0.050405  -0.038929
     17      -0.000004   0.000121  -0.000021
     18       0.000387  -0.001107   0.000777
     19      -0.000279   0.000179  -0.000000
     20       0.000005  -0.000005   0.000004
     21      -0.007777  -0.621615   0.783259
     22      -0.002563  -0.014499   0.008183
     23      -0.000041  -0.000826   0.001113
     24       0.001866   0.370220   0.284788
     25       0.000101   0.687995   0.545734
     26       0.000021  -0.000929  -0.000831


-----------
IR SPECTRUM
-----------

 Mode    freq (cm**-1)   T**2         TX         TY         TZ
-------------------------------------------------------------------
   7:       223.81  288.822787  (  0.015924  -0.029348 -16.994754)
   8:       426.61   10.095443  (  2.698130   1.677340   0.045451)
   9:       506.33    5.751041  (  0.014341  -0.151665   2.393289)
  10:       530.23   21.237079  (  0.691247  -4.555190  -0.097476)
  11:       650.18    7.345836  (  0.011155  -0.033064  -2.710096)
  12:       831.88    4.106944  (  0.968994   1.779835   0.013414)
  13:       967.02    7.575141  ( -2.524400   1.096307   0.025646)
  14:      1013.90    5.829541  ( -0.002571   0.017764  -2.414377)
  15:      1079.52    2.475533  (  1.090021  -1.134631  -0.000684)
  16:      1315.66  117.601028  (  3.904607 -10.117059   0.013622)
  17:      1337.89  145.264249  (  2.093466 -11.869352   0.011963)
  18:      1410.11   14.035002  (  0.004428  -0.009206   3.746318)
  19:      1426.24   30.398055  (  3.941059   3.855229   0.057567)
  20:      1556.33  129.384339  (  1.001982 -11.330498   0.013244)
  21:      1619.25  717.550303  ( 25.803578  -7.192054  -0.001259)
  22:      2978.30    5.159231  ( -1.295386  -1.865794  -0.004308)
  23:      3046.25    8.334331  (  0.006791  -0.021089   2.886839)
  24:      3062.96   26.255746  ( -5.051684   0.858039   0.002806)
  25:      3481.42   62.584263  ( -4.121804   6.752398  -0.010531)
  26:      3610.47   68.129981  (  7.459060   3.534459   0.002386)

The first frequency considered to be a vibration is 7
The total number of vibrations considered is 20


--------------------------
THERMOCHEMISTRY AT 298.15K
--------------------------

Temperature         ... 298.15 K
Pressure            ... 1.00 atm
Total Mass          ... 59.07 AMU

Throughout the following assumptions are being made:
  (1) The electronic state is orbitally nondegenerate
  (2) There are no thermally accessible electronically excited states
  (3) Hindered rotations indicated by low frequency modes are not
      treated as such but are treated as vibrations and this may
      cause some error
  (4) All equations used are the standard statistical mechanics
      equations for an ideal gas
  (5) All vibrations are strictly harmonic

freq.     223.81  E(vib)   ...       0.33 
freq.     426.61  E(vib)   ...       0.18 
freq.     506.33  E(vib)   ...       0.14 
freq.     530.23  E(vib)   ...       0.13 
freq.     650.18  E(vib)   ...       0.08 
freq.     831.88  E(vib)   ...       0.04 
freq.     967.02  E(vib)   ...       0.03 
freq.    1013.90  E(vib)   ...       0.02 
freq.    1079.52  E(vib)   ...       0.02 
freq.    1315.66  E(vib)   ...       0.01 
freq.    1337.89  E(vib)   ...       0.01 
freq.    1410.11  E(vib)   ...       0.00 
freq.    1426.24  E(vib)   ...       0.00 
freq.    1556.33  E(vib)   ...       0.00 
freq.    1619.25  E(vib)   ...       0.00 
freq.    2978.30  E(vib)   ...       0.00 
freq.    3046.25  E(vib)   ...       0.00 
freq.    3062.96  E(vib)   ...       0.00 
freq.    3481.42  E(vib)   ...       0.00 
freq.    3610.47  E(vib)   ...       0.00 

------------
INNER ENERGY
------------

The inner energy is: U= E(el) + E(ZPE) + E(vib) + E(rot) + E(trans)
    E(el)   - is the total energy from the electronic structure calculation
              = E(kin-el) + E(nuc-el) + E(el-el) + E(nuc-nuc)
    E(ZPE)  - the the zero temperature vibrational energy from the frequency calculation
    E(vib)  - the the finite temperature correction to E(ZPE) due to population
              of excited vibrational states
    E(rot)  - is the rotational thermal energy
    E(trans)- is the translational thermal energy

Summary of contributions to the inner energy U:
Electronic energy                ...   -209.27246712 Eh
Zero point energy                ...      0.07079264 Eh      44.42 kcal/mol
Thermal vibrational correction   ...      0.00157957 Eh       0.99 kcal/mol
Thermal rotational correction    ...      0.00141627 Eh       0.89 kcal/mol
Thermal translational correction ...      0.00141627 Eh       0.89 kcal/mol
-----------------------------------------------------------------------
Total thermal energy                   -209.19726237 Eh


Summary of corrections to the electronic energy:
(perhaps to be used in another calculation)
Total thermal correction                  0.00441212 Eh       2.77 kcal/mol
Non-thermal (ZPE) correction              0.07079264 Eh      44.42 kcal/mol
-----------------------------------------------------------------------
Total correction                          0.07520475 Eh      47.19 kcal/mol


--------
ENTHALPY
--------

The enthalpy is H = U + kB*T
                kB is Boltzmann's constant
Total free energy                 ...   -209.19726237 Eh 
Thermal Enthalpy correction       ...      0.00094421 Eh       0.59 kcal/mol
-----------------------------------------------------------------------
Total Enthalpy                    ...   -209.19631816 Eh


Note: Only C1 symmetry has been detected, increase convergence thresholds 
      if your molecule has a higher symmetry. Symmetry factor of 1.0 is   
      used for the rotational entropy correction. 
 

Note: Rotational entropy computed according to Herzberg 
Infrared and Raman Spectra, Chapter V,1, Van Nostrand Reinhold, 1945 
Point Group:  C1, Symmetry Number:   1  
Rotational constants in cm-1:     0.355124     0.307514     0.170092 

Vibrational entropy computed according to the QRRHO of S. Grimme
Chem.Eur.J. 2012 18 9955


-------
ENTROPY
-------

The entropy contributions are T*S = T*(S(el)+S(vib)+S(rot)+S(trans))
     S(el)   - electronic entropy
     S(vib)  - vibrational entropy
     S(rot)  - rotational entropy
     S(trans)- translational entropy
The entropies will be listed as mutliplied by the temperature to get
units of energy

Electronic entropy                ...      0.00000000 Eh      0.00 kcal/mol
Vibrational entropy               ...      0.00235259 Eh      1.48 kcal/mol
Rotational entropy                ...      0.01139253 Eh      7.15 kcal/mol
Translational entropy             ...      0.01812560 Eh     11.37 kcal/mol
-----------------------------------------------------------------------
Final entropy term                ...      0.03187073 Eh     20.00 kcal/mol

In case the symmetry of your molecule has not been determined correctly
or in case you have a reason to use a different symmetry number we print 
out the resulting rotational entropy values for sn=1,12 :
 --------------------------------------------------------
|  sn= 1 | S(rot)=       0.01139253 Eh      7.15 kcal/mol|
|  sn= 2 | S(rot)=       0.01073808 Eh      6.74 kcal/mol|
|  sn= 3 | S(rot)=       0.01035524 Eh      6.50 kcal/mol|
|  sn= 4 | S(rot)=       0.01008362 Eh      6.33 kcal/mol|
|  sn= 5 | S(rot)=       0.00987293 Eh      6.20 kcal/mol|
|  sn= 6 | S(rot)=       0.00970079 Eh      6.09 kcal/mol|
|  sn= 7 | S(rot)=       0.00955524 Eh      6.00 kcal/mol|
|  sn= 8 | S(rot)=       0.00942916 Eh      5.92 kcal/mol|
|  sn= 9 | S(rot)=       0.00931796 Eh      5.85 kcal/mol|
|  sn=10 | S(rot)=       0.00921848 Eh      5.78 kcal/mol|
|  sn=11 | S(rot)=       0.00912849 Eh      5.73 kcal/mol|
|  sn=12 | S(rot)=       0.00904633 Eh      5.68 kcal/mol|
 --------------------------------------------------------


-------------------
GIBBS FREE ENERGY
-------------------

The Gibbs free energy is G = H - T*S

Total enthalpy                    ...   -209.19631816 Eh 
Total entropy correction          ...     -0.03187073 Eh    -20.00 kcal/mol
-----------------------------------------------------------------------
Final Gibbs free energy         ...   -209.22818889 Eh

For completeness - the Gibbs free energy minus the electronic energy
G-E(el)                           ...      0.04427823 Eh     27.78 kcal/mol


Timings for individual modules:

Sum of individual times         ...      355.326 sec (=   5.922 min)
GTO integral calculation        ...        0.928 sec (=   0.015 min)   0.3 %
SCF iterations                  ...       69.622 sec (=   1.160 min)  19.6 %
SCF Gradient evaluation         ...       40.190 sec (=   0.670 min)  11.3 %
Geometry relaxation             ...        0.226 sec (=   0.004 min)   0.1 %
Analytical frequency calculation...      244.359 sec (=   4.073 min)  68.8 %
                             ****ORCA TERMINATED NORMALLY****
TOTAL RUN TIME: 0 days 0 hours 5 minutes 56 seconds 75 msec
