 Entering Gaussian System
 *********************************************
 Gaussian 98:
 frequency output generated by the xtb code
 *********************************************
                         Standard orientation:
 --------------------------------------------------------------------
  Center     Atomic     Atomic              Coordinates (Angstroms)
  Number     Number      Type              X           Y           Z
 --------------------------------------------------------------------
    1          8             0        0.255291   -0.303198   -1.237763
    2          6             0       -0.245520    0.097736   -0.096674
    3          1             0        0.380466   -0.173346    0.816397
    4          1             0       -1.276897   -0.324508    0.141985
    5          1             0       -0.383469    1.225762   -0.010492
 --------------------------------------------------------------------
     1 basis functions        1 primitive gaussians
     1 alpha electrons        1 beta electrons
 
 Harmonic frequencies (cm**-1), IR intensities (km*mol⁻¹),
 Raman scattering activities (A**4/amu), Raman depolarization ratios,
 reduced masses (AMU), force constants (mDyne/A) and normal coordinates:
                      1                      2                      3
                        a                      a                      a 
 Frequencies --  1133.5741              1177.6779              1178.2487
 Red. masses --    13.6655                 4.5730                 4.5724
 Frc consts  --     0.0000                 0.0000                 0.0000
 IR Inten    --   602.4068                76.5008                76.6057
 Raman Activ --     0.0000                 0.0000                 0.0000
 Depolar     --     0.0000                 0.0000                 0.0000
 Atom AN      X      Y      Z        X      Y      Z        X      Y      Z
   1   8     0.25  -0.20  -0.57     0.03  -0.22   0.09     0.22   0.06   0.08
   2   6    -0.29   0.23   0.66    -0.05   0.45  -0.19    -0.45  -0.12  -0.16
   3   1    -0.02   0.01  -0.02     0.13  -0.36  -0.24     0.39  -0.04  -0.33
   4   1     0.03   0.01  -0.00     0.13  -0.32  -0.06    -0.01   0.19   0.55
   5   1     0.00  -0.03   0.01    -0.18  -0.01   0.58     0.30   0.03   0.01
                      4                      5                      6
                        a                      a                      a 
 Frequencies --  1479.4468              1503.5215              1504.1473
 Red. masses --     2.1673                 1.5786                 1.5782
 Frc consts  --     0.0000                 0.0000                 0.0000
 IR Inten    --   165.7162               113.7658               113.9713
 Raman Activ --     0.0000                 0.0000                 0.0000
 Depolar     --     0.0000                 0.0000                 0.0000
 Atom AN      X      Y      Z        X      Y      Z        X      Y      Z
   1   8     0.08  -0.07  -0.19    -0.04  -0.02  -0.01    -0.01   0.04  -0.02
   2   6     0.08  -0.06  -0.17    -0.20  -0.09  -0.05    -0.06   0.19  -0.10
   3   1    -0.33   0.24   0.36     0.13   0.53   0.19    -0.37  -0.25   0.32
   4   1    -0.05   0.26   0.48     0.18  -0.24  -0.33     0.25  -0.48   0.37
   5   1    -0.21  -0.01   0.52     0.52   0.09   0.37     0.37  -0.07  -0.27
                      7                      8                      9
                        a                      a                      a 
 Frequencies --  2234.3811              2235.2881              2491.3033
 Red. masses --     1.5254                 1.5253                 1.1978
 Frc consts  --     0.0000                 0.0000                 0.0000
 IR Inten    --   705.1536               704.6723               443.0735
 Raman Activ --     0.0000                 0.0000                 0.0000
 Depolar     --     0.0000                 0.0000                 0.0000
 Atom AN      X      Y      Z        X      Y      Z        X      Y      Z
   1   8     0.01   0.00   0.00    -0.00   0.01  -0.00    -0.04   0.03   0.10
   2   6     0.20   0.04   0.07    -0.01   0.20  -0.08    -0.01   0.01   0.02
   3   1    -0.31   0.26  -0.48     0.35   0.01   0.34    -0.36   0.17  -0.42
   4   1    -0.61  -0.34   0.15    -0.35   0.02  -0.03     0.51   0.24  -0.06
   5   1     0.18  -0.07   0.07     0.06  -0.77  -0.03     0.04  -0.57   0.02
