SLURM_JOB_ID=107

                                 *****************
                                 * O   R   C   A *
                                 *****************

           --- An Ab Initio, DFT and Semiempirical electronic structure package ---

                  #######################################################
                  #                        -***-                        #
                  #          Department of theory and spectroscopy      #
                  #               Directorship: Frank Neese             #
                  #        Max Planck Institute fuer Kohlenforschung    #
                  #                Kaiser Wilhelm Platz 1               #
                  #                 D-45470 Muelheim/Ruhr               #
                  #                      Germany                        #
                  #                                                     #
                  #                  All rights reserved                #
                  #                        -***-                        #
                  #######################################################


                         Program Version 4.2.1 -  RELEASE  -


 With contributions from (in alphabetic order):
   Daniel Aravena         : Magnetic Suceptibility
   Michael Atanasov       : Ab Initio Ligand Field Theory (pilot matlab implementation)
   Alexander A. Auer      : GIAO ZORA, VPT2
   Ute Becker             : Parallelization
   Giovanni Bistoni       : ED, misc. LED, open-shell LED, HFLD
   Martin Brehm           : Molecular dynamics
   Dmytro Bykov           : SCF Hessian
   Vijay G. Chilkuri      : MRCI spin determinant printing, contributions to CSF-ICE
   Dipayan Datta          : RHF DLPNO-CCSD density
   Achintya Kumar Dutta   : EOM-CC, STEOM-CC
   Dmitry Ganyushin       : Spin-Orbit,Spin-Spin,Magnetic field MRCI
   Miquel Garcia          : C-PCM Hessian, Gaussian charge scheme
   Yang Guo               : DLPNO-NEVPT2, CIM, IAO-localization
   Andreas Hansen         : Spin unrestricted coupled pair/coupled cluster methods
   Benjamin Helmich-Paris : CASSCF linear response (MC-RPA)
   Lee Huntington         : MR-EOM, pCC
   Robert Izsak           : Overlap fitted RIJCOSX, COSX-SCS-MP3, EOM
   Christian Kollmar      : KDIIS, OOCD, Brueckner-CCSD(T), CCSD density
   Simone Kossmann        : Meta GGA functionals, TD-DFT gradient, OOMP2, MP2 Hessian
   Martin Krupicka        : AUTO-CI
   Lucas Lang             : DCDCAS
   Dagmar Lenk            : GEPOL surface, SMD
   Dimitrios Liakos       : Extrapolation schemes; Compound Job, initial MDCI parallelization
   Dimitrios Manganas     : Further ROCIS development; embedding schemes
   Dimitrios Pantazis     : SARC Basis sets
   Taras Petrenko         : DFT Hessian,TD-DFT gradient, ASA, ECA, R-Raman, ABS, FL, XAS/XES, NRVS
   Peter Pinski           : DLPNO-MP2, DLPNO-MP2 Gradient
   Christoph Reimann      : Effective Core Potentials
   Marius Retegan         : Local ZFS, SOC
   Christoph Riplinger    : Optimizer, TS searches, QM/MM, DLPNO-CCSD(T), (RO)-DLPNO pert. Triples
   Tobias Risthaus        : Range-separated hybrids, TD-DFT gradient, RPA, STAB
   Michael Roemelt        : Original ROCIS implementation
   Masaaki Saitow         : Open-shell DLPNO-CCSD energy and density
   Barbara Sandhoefer     : DKH picture change effects
   Avijit Sen             : IP-ROCIS
   Kantharuban Sivalingam : CASSCF convergence, NEVPT2, FIC-MRCI
   Bernardo de Souza      : ESD, SOC TD-DFT
   Georgi Stoychev        : AutoAux, RI-MP2 NMR
   Willem Van den Heuvel  : Paramagnetic NMR
   Boris Wezisla          : Elementary symmetry handling
   Frank Wennmohs         : Technical directorship


 We gratefully acknowledge several colleagues who have allowed us to
 interface, adapt or use parts of their codes:
   Stefan Grimme, W. Hujo, H. Kruse,             : VdW corrections, initial TS optimization,
                  C. Bannwarth                     DFT functionals, gCP, sTDA/sTD-DF
   Ed Valeev, F. Pavosevic, A. Kumar             : LibInt (2-el integral package), F12 methods
   Garnet Chan, S. Sharma, J. Yang, R. Olivares  : DMRG
   Ulf Ekstrom                                   : XCFun DFT Library
   Mihaly Kallay                                 : mrcc  (arbitrary order and MRCC methods)
   Andreas Klamt, Michael Diedenhofen            : otool_cosmo (COSMO solvation model)
   Jiri Pittner, Ondrej Demel                    : Mk-CCSD
   Frank Weinhold                                : gennbo (NPA and NBO analysis)
   Christopher J. Cramer and Donald G. Truhlar   : smd solvation model
   Lars Goerigk                                  : TD-DFT with DH, B97 family of functionals
   V. Asgeirsson, H. Jonsson                     : NEB implementation
   FAccTs GmbH                                   : IRC, NEB, NEB-TS, Multilevel, MM, QM/MM, CI optimization
   S Lehtola, MJT Oliveira, MAL Marques          : LibXC Library


 Your calculation uses the libint2 library for the computation of 2-el integrals
 For citations please refer to: http://libint.valeyev.net

 Your ORCA version has been built with support for libXC version: 4.2.3
 For citations please refer to: https://tddft.org/programs/libxc/

 This ORCA versions uses:
   CBLAS   interface :  Fast vector & matrix operations
   LAPACKE interface :  Fast linear algebra routines
   SCALAPACK package :  Parallel linear algebra routines




***************************************
The coordinates will be read from file: init.xyz
***************************************


Your calculation utilizes the SMD solvation module
Please cite in your paper:
A.V. Marenich, C.J. Cramer, D.G. Truhlar J. Phys. Chem. B, 113, (2009), 6378 

Your calculation utilizes the semiempirical GFN2-xTB method
Please cite in your paper:
C. Bannwarth, Ehlert S., S. Grimme,  J. Chem. Theory Comput., 15, (2019), 1652.
   

----- Orbital basis set information -----
Your calculation utilizes the basis: def2-SVP
   F. Weigend and R. Ahlrichs, Phys. Chem. Chem. Phys. 7, 3297 (2005).

================================================================================
                                        WARNINGS
                       Please study these warnings very carefully!
================================================================================

WARNING: Gradients needed for Numerical Frequencies
  ===> : Setting RunTyp to EnGrad

WARNING: The environment variable RSH_COMMAND is not set!
  ===> : All Displacements for the Numerical Hessian calculation
         will be started on localhost

WARNING: Found dipole moment calculation with XTB calculation
  ===> : Switching off dipole moment calculation


INFO   : the flag for use of LIBINT has been found!

================================================================================
                                       INPUT FILE
================================================================================
NAME = /tmp/slurm-scratch/freq.107/freq.inp
|  1> ! XTB2 NumFreq
|  2> %maxcore 2000
|  3> 
|  4> * xyzfile 0 1 init.xyz
|  5> 
|  6> %cpcm
|  7>  smd true
|  8>  smdsolvent "ch2cl2"
|  9> end
| 10> %pal nprocs 11 end
| 11> 
| 12>                          ****END OF INPUT****
================================================================================

                     *******************************
                     * Energy+Gradient Calculation *
                     *******************************

      -----------------------------------------------------------      
     |                   =====================                   |     
     |                           x T B                           |     
     |                   =====================                   |     
     |                         S. Grimme                         |     
     |          Mulliken Center for Theoretical Chemistry        |     
     |                    University of Bonn                     |     
      -----------------------------------------------------------      

   * xtb version 6.3.1 (461a024) compiled by 'schneider@apollo14' on 2020-06-26

   xtb is free software: you can redistribute it and/or modify it under
   the terms of the GNU Lesser General Public License as published by
   the Free Software Foundation, either version 3 of the License, or
   (at your option) any later version.
   
   xtb is distributed in the hope that it will be useful,
   but WITHOUT ANY WARRANTY; without even the implied warranty of
   MERCHANTABILITY or FITNESS FOR A PARTICULAR PURPOSE.  See the
   GNU Lesser General Public License for more details.
   
   Cite this work as:
   * S. Grimme, C. Bannwarth, P. Shushkov, J. Chem. Theory Comput., 2017,
     13, 1989-2009. DOI: 10.1021/acs.jctc.7b00118
   * C. Bannwarth, S. Ehlert and S. Grimme., J. Chem. Theory Comput., 2019,
     15, 1652-1671. DOI: 10.1021/acs.jctc.8b01176
   * P. Pracht, E. Caldeweyher, S. Ehlert, S. Grimme, ChemRxiv, 2019, preprint.
     DOI: 10.26434/chemrxiv.8326202.v1
   
   for GFN-FF:
   * S. Spicher and S. Grimme, Angew. Chem. Int. Ed., 2020,
     DOI: 10.1002/anie.202004239
   
   for DFT-D4:
   * E. Caldeweyher, C. Bannwarth and S. Grimme, J. Chem. Phys., 2017,
     147, 034112. DOI: 10.1063/1.4993215
   * E. Caldeweyher, S. Ehlert, A. Hansen, H. Neugebauer, S. Spicher,
     C. Bannwarth and S. Grimme, J. Chem. Phys., 2019, 150, 154122.
     DOI: 10.1063/1.5090222
   
   for sTDA-xTB:
   * S. Grimme and C. Bannwarth, J. Chem. Phys., 2016, 145, 054103.
     DOI: 10.1063/1.4959605
   
   in the mass-spec context:
   * V. Asgeirsson, C. Bauer and S. Grimme, Chem. Sci., 2017, 8, 4879.
     DOI: 10.1039/c7sc00601b
   * J. Koopman and S. Grimme, ACS Omega 2019, 4, 12, 15120-15133.
     DOI: 10.1021/acsomega.9b02011
   
   for metadynamics refer to:
   * S. Grimme, J. Chem. Theory Comput., 2019, 155, 2847-2862
     DOI: 10.1021/acs.jctc.9b00143
   
   with help from (in alphabetical order)
   C. Bannwarth, F. Bohle, G. Brandenburg, E. Caldeweyher, M. Checinski,
   S. Dohm, S. Ehlert, S. Ehrlich, F. März, H. Neugebauer, J. Pisarek,
   P. Pracht, P. Shushkov, and S. Spicher.
   
 * started run on 2020/08/05 at 12:36:09.426     

           -------------------------------------------------
          |                Calculation Setup                |
           -------------------------------------------------

          program call               : /opt/orca/otool_xtb /tmp/slurm-scratch/freq.107/freq_XTB.xyz --grad -c 0 -u 0 -P 11 --namespace /tmp/slurm-scratch/freq.107/freq --gbsa CH2Cl2
          hostname                   : apollo14
          calculation namespace      : /tmp/slurm-scratch/freq.107/freq
          coordinate file            : /tmp/slurm-scratch/freq.107/freq_XTB.xyz
          omp threads                :                    11
          number of atoms            :                    30
          number of electrons        :                    72
          charge                     :                     0
          spin                       :                   0.0
          first test random number   :      0.85747915876132

   ID    Z sym.   atoms
    1    6 C      1-6, 10, 15, 16, 22, 27
    2    1 H      7-9, 11, 14, 17-21, 23-26, 28-30
    3    8 O      12
    4    7 N      13

molecular fragmentation (1/2 indicates fragments):
111111111111222222222222112222
# atoms in fragment 1/2:    14    16
 fragment masses (1/2) :      106.12       73.14
CMA distance (Bohr)    :   6.786
constraining FC (au)   :  0.0500
########################################################################
[WARNING] Please study the warnings concerning your input carefully
-1- prog_main_parseArguments: Process number higher than OMP_NUM_THREADS, I hope you know what you are doing.
########################################################################

           -------------------------------------------------
          |                 G F N 2 - x T B                 |
           -------------------------------------------------

        Reference                      10.1021/acs.jctc.8b01176
      * Hamiltonian:
        H0-scaling (s, p, d)           1.850000    2.230000    2.230000
        zeta-weighting                 0.500000
      * Dispersion:
        s8                             2.700000
        a1                             0.520000
        a2                             5.000000
        s9                             5.000000
      * Repulsion:
        kExp                           1.500000    1.000000
        rExp                           1.000000
      * Coulomb:
        alpha                          2.000000
        third order                    shell-resolved
        anisotropic                    true
        a3                             3.000000
        a5                             4.000000
        cn-shift                       1.200000
        cn-exp                         4.000000
        max-rad                        5.000000

      * Solvation model:               GBSA
        Solvent                        CH2Cl2
        Parameter file                 internal GFN2-xTB/GBSA
        Dielectric constant                8.9300E+00
        Reference state                gsolv [1 M gas/solution]
        Free energy shift                  4.4408E-03 Eh       2.7867E+00 kcal/mol
        Temperature                        2.9815E+02 K
        Density                            1.3300E+00 kg/L
        Solvent mass                       8.4930E+01 g/mol
        Interaction kernel             Still
        Born radius scaling (c1)           1.4917E+00
        Born radii integrator          GBOBC
        Born offset                        0.0000E+00 a0       0.0000E+00 AA
        H-bond correction              false
        Ion screening                  false
        Surface tension                    1.0000E-05 Eh       1.5569E+01 dyn/cm
        Grid points                               230 per atom

          ...................................................
          :                      SETUP                      :
          :.................................................:
          :  # basis functions                  69          :
          :  # atomic orbitals                  69          :
          :  # shells                           43          :
          :  # electrons                        72          :
          :  max. iterations                   250          :
          :  Hamiltonian                  GFN2-xTB          :
          :  restarted?                      false          :
          :  GBSA solvation                   true          :
          :  PC potential                    false          :
          :  electronic temp.          300.0000000     K    :
          :  accuracy                    1.0000000          :
          :  -> integral cutoff          0.2500000E+02      :
          :  -> integral neglect         0.1000000E-07      :
          :  -> SCF convergence          0.1000000E-05 Eh   :
          :  -> wf. convergence          0.1000000E-03 e    :
          :  Broyden damping             0.4000000          :
          ...................................................

 iter      E             dE          RMSdq      gap      omega  full diag
   1    -39.7042563 -0.397043E+02  0.422E+00    2.42       0.0  T
   2    -39.7692403 -0.649841E-01  0.226E+00    2.29       1.0  T
   3    -39.7694452 -0.204868E-03  0.109E+00    2.49       1.0  T
   4    -39.7742073 -0.476210E-02  0.206E-01    2.34       1.0  T
   5    -39.7748416 -0.634270E-03  0.708E-02    2.35       1.0  T
   6    -39.7748777 -0.361120E-04  0.363E-02    2.36       1.0  T
   7    -39.7748890 -0.113457E-04  0.116E-02    2.36       1.6  T
   8    -39.7748896 -0.574658E-06  0.399E-03    2.36       4.6  T
   9    -39.7748897 -0.927330E-07  0.169E-03    2.36      10.8  T
  10    -39.7748897 -0.220984E-07  0.819E-04    2.36      22.3  T
  11    -39.7748897 -0.299838E-08  0.369E-04    2.36      49.4  T

   *** convergence criteria satisfied after 11 iterations ***

         #    Occupation            Energy/Eh            Energy/eV
      -------------------------------------------------------------
         1        2.0000           -0.7129222             -19.3996
       ...           ...                  ...                  ...
        30        2.0000           -0.4356006             -11.8533
        31        2.0000           -0.4317475             -11.7484
        32        2.0000           -0.4240665             -11.5394
        33        2.0000           -0.4180482             -11.3757
        34        2.0000           -0.4155405             -11.3074
        35        2.0000           -0.4009803             -10.9112
        36        2.0000           -0.3776429             -10.2762 (HOMO)
        37                         -0.2909615              -7.9175 (LUMO)
        38                         -0.2353652              -6.4046
        39                         -0.2015649              -5.4849
        40                         -0.0955508              -2.6001
        41                          0.0235652               0.6412
       ...                                ...                  ...
        69                          0.6516088              17.7312
      -------------------------------------------------------------
                  HL-Gap            0.0866814 Eh            2.3587 eV
             Fermi-level           -0.3343022 Eh           -9.0968 eV

 SCC (total)                   0 d,  0 h,  0 min,  0.111 sec
 SCC setup                      ...        0 min,  0.006 sec (  5.593%)
 Dispersion                     ...        0 min,  0.005 sec (  4.876%)
 classical contributions        ...        0 min,  0.005 sec (  4.782%)
 integral evaluation            ...        0 min,  0.017 sec ( 15.572%)
 iterations                     ...        0 min,  0.030 sec ( 27.556%)
 molecular gradient             ...        0 min,  0.041 sec ( 37.070%)
 printout                       ...        0 min,  0.005 sec (  4.526%)

         :::::::::::::::::::::::::::::::::::::::::::::::::::::
         ::                     SUMMARY                     ::
         :::::::::::::::::::::::::::::::::::::::::::::::::::::
         :: total energy             -39.180621268019 Eh    ::
         :: total w/o Gsasa/hb       -39.165898254119 Eh    ::
         :: gradient norm              0.022526538578 Eh/a0 ::
         :: HOMO-LUMO gap              2.358720221266 eV    ::
         ::.................................................::
         :: SCC energy               -39.774889727887 Eh    ::
         :: -> isotropic ES            0.044818232605 Eh    ::
         :: -> anisotropic ES          0.004834636796 Eh    ::
         :: -> anisotropic XC          0.025616251375 Eh    ::
         :: -> dispersion             -0.026134684726 Eh    ::
         :: -> Gsolv                  -0.021187163908 Eh    ::
         ::    -> Gborn               -0.006464150008 Eh    ::
         ::    -> Gsasa               -0.019163843074 Eh    ::
         ::    -> Ghb                  0.000000000000 Eh    ::
         ::    -> Gshift               0.004440829173 Eh    ::
         :: repulsion energy           0.593687009694 Eh    ::
         :: add. restraining           0.000000000000 Eh    ::
         :::::::::::::::::::::::::::::::::::::::::::::::::::::

           -------------------------------------------------
          |                Property Printout                |
           -------------------------------------------------

    * Orbital Energies and Occupations

         #    Occupation            Energy/Eh            Energy/eV
      -------------------------------------------------------------
         1        2.0000           -0.7129222             -19.3996
       ...           ...                  ...                  ...
        24        2.0000           -0.4855405             -13.2122
        25        2.0000           -0.4802547             -13.0684
        26        2.0000           -0.4654137             -12.6646
        27        2.0000           -0.4474781             -12.1765
        28        2.0000           -0.4456092             -12.1256
        29        2.0000           -0.4383071             -11.9269
        30        2.0000           -0.4356006             -11.8533
        31        2.0000           -0.4317475             -11.7484
        32        2.0000           -0.4240665             -11.5394
        33        2.0000           -0.4180482             -11.3757
        34        2.0000           -0.4155405             -11.3074
        35        2.0000           -0.4009803             -10.9112
        36        2.0000           -0.3776429             -10.2762 (HOMO)
        37                         -0.2909615              -7.9175 (LUMO)
        38                         -0.2353652              -6.4046
        39                         -0.2015649              -5.4849
        40                         -0.0955508              -2.6001
        41                          0.0235652               0.6412
        42                          0.0894524               2.4341
        43                          0.0920074               2.5036
        44                          0.1072291               2.9179
        45                          0.1153552               3.1390
        46                          0.1289158               3.5080
        47                          0.1343512               3.6559
       ...                                ...                  ...
        69                          0.6516088              17.7312
      -------------------------------------------------------------
                  HL-Gap            0.0866814 Eh            2.3587 eV
             Fermi-level           -0.3343022 Eh           -9.0968 eV

     #   Z        covCN         q      C6AA      α(0)
     1   6 C      2.921    -0.021    28.536     8.760
     2   6 C      2.968    -0.006    28.165     8.705
     3   6 C      2.919    -0.010    28.278     8.720
     4   6 C      2.914    -0.023    28.590     8.768
     5   6 C      2.917    -0.017    28.433     8.744
     6   6 C      2.913    -0.024    28.611     8.771
     7   1 H      0.925     0.050     2.316     2.380
     8   1 H      0.926     0.050     2.317     2.380
     9   1 H      0.925     0.052     2.292     2.367
    10   6 C      2.767     0.214    23.483     7.936
    11   1 H      0.923     0.025     2.663     2.552
    12   8 O      0.856    -0.395    21.583     6.229
    13   7 N      2.629    -0.366    29.454     8.060
    14   1 H      0.860     0.140     1.474     1.902
    15   6 C      3.803    -0.065    21.750     6.640
    16   6 C      3.731     0.024    20.256     6.424
    17   1 H      0.924     0.029     2.601     2.522
    18   1 H      0.923     0.006     2.961     2.691
    19   1 H      0.924     0.041     2.430     2.438
    20   1 H      0.924     0.034     2.527     2.486
    21   1 H      0.860     0.146     1.428     1.872
    22   6 C      3.800    -0.053    21.530     6.606
    23   1 H      0.924     0.031     2.577     2.510
    24   1 H      0.924     0.030     2.583     2.514
    25   1 H      0.925     0.050     2.316     2.380
    26   1 H      0.925     0.052     2.300     2.372
    27   6 C      3.750    -0.102    22.521     6.768
    28   1 H      0.924     0.038     2.477     2.461
    29   1 H      0.924     0.035     2.512     2.479
    30   1 H      0.924     0.037     2.485     2.465

 Mol. C6AA /au·bohr⁶  :       8347.699254
 Mol. C8AA /au·bohr⁸  :     188454.264786
 Mol. α(0) /au        :        141.903535


Wiberg/Mayer (AO) data.
largest (>0.10) Wiberg bond orders for each atom
          total WBO             WBO to atom ...
     1  C   3.989        C    6 1.456    C    2 1.371    H    7 0.967    C    4 0.105
     2  C   3.989        C    1 1.371    C    3 1.365    C   10 1.067
     3  C   3.990        C    4 1.462    C    2 1.365    H    8 0.967    C    6 0.105
     4  C   3.991        C    3 1.462    C    5 1.425    H   25 0.969    C    1 0.105
     5  C   3.989        C    6 1.431    C    4 1.425    H    9 0.970
     6  C   3.991        C    1 1.456    C    5 1.431    H   26 0.969    C    3 0.105
     7  H   0.997        C    1 0.967
     8  H   0.997        C    3 0.967
     9  H   0.997        C    5 0.970
    10  C   3.910        O   12 1.827    C    2 1.067    H   11 0.935
    11  H   0.999        C   10 0.935
    12  O   2.038        C   10 1.827
    13  N   3.000        C   16 1.015    H   14 0.967    H   21 0.965
    14  H   0.980        N   13 0.967
    15  C   3.996        C   22 1.007    C   16 1.006    H   20 0.976    H   19 0.974
    16  C   3.983        N   13 1.015    C   15 1.006    H   17 0.974    H   18 0.971
    17  H   0.999        C   16 0.974
    18  H   1.000        C   16 0.971
    19  H   0.998        C   15 0.974
    20  H   0.999        C   15 0.976
    21  H   0.979        N   13 0.965
    22  C   3.997        C   27 1.020    C   15 1.007    H   24 0.978    H   23 0.978
    23  H   0.999        C   22 0.978
    24  H   0.999        C   22 0.978
    25  H   0.997        C    4 0.969
    26  H   0.997        C    6 0.969
    27  C   3.996        C   22 1.020    H   29 0.988    H   30 0.987    H   28 0.987
    28  H   0.998        C   27 0.987
    29  H   0.999        C   27 0.988
    30  H   0.999        C   27 0.987
Topologies differ in total number of bonds
Writing topology from bond orders to xtbtopo.mol

molecular dipole:
                 x           y           z       tot (Debye)
 q only:       -1.707       0.244      -0.300
   full:       -1.509      -0.018      -0.530       4.066
molecular quadrupole (traceless):
                xx          xy          yy          xz          yz          zz
 q only:       -5.358      -0.020       4.216      -2.494      -0.748       1.142
  q+dip:       -6.285      -1.309       6.498      -5.404       0.516      -0.213
   full:       -7.690      -1.499       5.387      -4.861       1.875       2.303


           -------------------------------------------------
          | TOTAL ENERGY              -39.180621268019 Eh   |
          | GRADIENT NORM               0.022526538578 Eh/α |
          | HOMO-LUMO GAP               2.358720221266 eV   |
           -------------------------------------------------

------------------------------------------------------------------------
 * finished run on 2020/08/05 at 12:36:09.605     
------------------------------------------------------------------------
 total:
 * wall-time:     0 d,  0 h,  0 min,  0.179 sec
 *  cpu-time:     0 d,  0 h,  0 min,  2.066 sec
 * ratio c/w:    11.550 speedup
 SCF:
 * wall-time:     0 d,  0 h,  0 min,  0.115 sec
 *  cpu-time:     0 d,  0 h,  0 min,  1.339 sec
 * ratio c/w:    11.666 speedup


-------------------------   --------------------
FINAL SINGLE POINT ENERGY       -39.180621268020
-------------------------   --------------------


----------------------------------------------------------------------------
                           ORCA NUMERICAL FREQUENCIES
                              (11-process run)
----------------------------------------------------------------------------

Number of atoms                ... 30
Central differences            ... used
Number of displacements        ... 180
Numerical increment            ... 5.000e-03 bohr
IR-spectrum generation         ... on
Raman-spectrum generation      ... off
Surface Crossing Hessian       ... off
List of participating nodes    ...  /tmp/slurm-scratch/freq.107/freq.hostnames

The output will be reduced. Please look at the following files:
SCF program output             ... >/tmp/slurm-scratch/freq.107/freq.lastscf
Integral program output        ... >/tmp/slurm-scratch/freq.107/freq.lastint
Gradient program output        ... >/tmp/slurm-scratch/freq.107/freq.lastgrad
Dipole moment program output   ... >/tmp/slurm-scratch/freq.107/freq.lastmom
AutoCI program output          ... >/tmp/slurm-scratch/freq.107/freq.lastautoci


         <<< Energy and Gradient at the input geometry >>>

        <<< Energy and Gradient at displaced geometries >>>
             <<<Displacing   1/coordinate 2 (+)>>>
             <<<Displacing   1/coordinate 1 (+)>>>
             <<<Displacing   1/coordinate 2 (-)>>>
             <<<Displacing   1/coordinate 3 (+)>>>
             <<<Displacing   3/coordinate 3 (+)>>>
             <<<Displacing   4/coordinate 2 (+)>>>
             <<<Displacing   1/coordinate 1 (-)>>>
             <<<Displacing   2/coordinate 3 (+)>>>
             <<<Displacing   1/coordinate 3 (-)>>>
             <<<Displacing   4/coordinate 1 (+)>>>
             <<<Displacing   3/coordinate 3 (-)>>>
             <<<Displacing   2/coordinate 2 (+)>>>
             <<<Displacing   3/coordinate 2 (+)>>>
             <<<Displacing   2/coordinate 1 (+)>>>
             <<<Displacing   4/coordinate 1 (-)>>>
             <<<Displacing   2/coordinate 3 (-)>>>
             <<<Displacing   4/coordinate 2 (-)>>>
             <<<Displacing   3/coordinate 1 (+)>>>
             <<<Displacing   3/coordinate 2 (-)>>>
             <<<Displacing   2/coordinate 2 (-)>>>
             <<<Displacing   2/coordinate 1 (-)>>>
             <<<Displacing   3/coordinate 1 (-)>>>
             <<<Displacing   6/coordinate 1 (+)>>>
             <<<Displacing   6/coordinate 3 (+)>>>
             <<<Displacing   5/coordinate 2 (+)>>>
             <<<Displacing   5/coordinate 3 (+)>>>
             <<<Displacing   5/coordinate 2 (-)>>>
             <<<Displacing   6/coordinate 3 (-)>>>
             <<<Displacing   4/coordinate 3 (+)>>>
             <<<Displacing   6/coordinate 1 (-)>>>
             <<<Displacing   5/coordinate 3 (-)>>>
             <<<Displacing   4/coordinate 3 (-)>>>
             <<<Displacing   6/coordinate 2 (+)>>>
             <<<Displacing   5/coordinate 1 (+)>>>
             <<<Displacing   7/coordinate 1 (+)>>>
             <<<Displacing   5/coordinate 1 (-)>>>
             <<<Displacing   6/coordinate 2 (-)>>>
             <<<Displacing   7/coordinate 1 (-)>>>
             <<<Displacing   8/coordinate 1 (+)>>>
             <<<Displacing   7/coordinate 2 (+)>>>
             <<<Displacing   7/coordinate 3 (+)>>>
             <<<Displacing   8/coordinate 1 (-)>>>
             <<<Displacing   7/coordinate 2 (-)>>>
             <<<Displacing   7/coordinate 3 (-)>>>
             <<<Displacing   8/coordinate 3 (+)>>>
             <<<Displacing   8/coordinate 3 (-)>>>
             <<<Displacing   9/coordinate 2 (+)>>>
             <<<Displacing   8/coordinate 2 (+)>>>
             <<<Displacing   9/coordinate 2 (-)>>>
             <<<Displacing   8/coordinate 2 (-)>>>
             <<<Displacing   9/coordinate 1 (+)>>>
             <<<Displacing  10/coordinate 1 (+)>>>
             <<<Displacing   9/coordinate 1 (-)>>>
             <<<Displacing   9/coordinate 3 (+)>>>
             <<<Displacing  10/coordinate 1 (-)>>>
             <<<Displacing  10/coordinate 3 (+)>>>
             <<<Displacing  11/coordinate 2 (+)>>>
             <<<Displacing   9/coordinate 3 (-)>>>
             <<<Displacing  11/coordinate 3 (+)>>>
             <<<Displacing  10/coordinate 2 (+)>>>
             <<<Displacing  10/coordinate 3 (-)>>>
             <<<Displacing  11/coordinate 1 (+)>>>
             <<<Displacing  11/coordinate 2 (-)>>>
             <<<Displacing  11/coordinate 3 (-)>>>
             <<<Displacing  10/coordinate 2 (-)>>>
             <<<Displacing  11/coordinate 1 (-)>>>
             <<<Displacing  12/coordinate 1 (+)>>>
             <<<Displacing  12/coordinate 3 (+)>>>
             <<<Displacing  12/coordinate 1 (-)>>>
             <<<Displacing  13/coordinate 2 (+)>>>
             <<<Displacing  12/coordinate 3 (-)>>>
             <<<Displacing  13/coordinate 2 (-)>>>
             <<<Displacing  12/coordinate 2 (+)>>>
             <<<Displacing  13/coordinate 3 (+)>>>
             <<<Displacing  14/coordinate 2 (+)>>>
             <<<Displacing  12/coordinate 2 (-)>>>
             <<<Displacing  13/coordinate 3 (-)>>>
             <<<Displacing  14/coordinate 2 (-)>>>
             <<<Displacing  13/coordinate 1 (+)>>>
             <<<Displacing  14/coordinate 1 (+)>>>
             <<<Displacing  15/coordinate 1 (+)>>>
             <<<Displacing  13/coordinate 1 (-)>>>
             <<<Displacing  14/coordinate 1 (-)>>>
             <<<Displacing  14/coordinate 3 (+)>>>
             <<<Displacing  15/coordinate 1 (-)>>>
             <<<Displacing  14/coordinate 3 (-)>>>
             <<<Displacing  15/coordinate 2 (+)>>>
             <<<Displacing  15/coordinate 2 (-)>>>
             <<<Displacing  15/coordinate 3 (+)>>>
             <<<Displacing  15/coordinate 3 (-)>>>
             <<<Displacing  16/coordinate 1 (+)>>>
             <<<Displacing  16/coordinate 2 (+)>>>
             <<<Displacing  16/coordinate 1 (-)>>>
             <<<Displacing  18/coordinate 2 (+)>>>
             <<<Displacing  16/coordinate 2 (-)>>>
             <<<Displacing  18/coordinate 2 (-)>>>
             <<<Displacing  16/coordinate 3 (+)>>>
             <<<Displacing  17/coordinate 1 (+)>>>
             <<<Displacing  16/coordinate 3 (-)>>>
             <<<Displacing  17/coordinate 2 (+)>>>
             <<<Displacing  17/coordinate 1 (-)>>>
             <<<Displacing  17/coordinate 3 (+)>>>
             <<<Displacing  17/coordinate 2 (-)>>>
             <<<Displacing  18/coordinate 1 (+)>>>
             <<<Displacing  17/coordinate 3 (-)>>>
             <<<Displacing  18/coordinate 1 (-)>>>
             <<<Displacing  18/coordinate 3 (+)>>>
             <<<Displacing  18/coordinate 3 (-)>>>
             <<<Displacing  19/coordinate 1 (+)>>>
             <<<Displacing  19/coordinate 1 (-)>>>
             <<<Displacing  19/coordinate 3 (+)>>>
             <<<Displacing  19/coordinate 2 (+)>>>
             <<<Displacing  19/coordinate 3 (-)>>>
             <<<Displacing  20/coordinate 1 (+)>>>
             <<<Displacing  19/coordinate 2 (-)>>>
             <<<Displacing  20/coordinate 2 (+)>>>
             <<<Displacing  20/coordinate 3 (+)>>>
             <<<Displacing  20/coordinate 1 (-)>>>
             <<<Displacing  20/coordinate 2 (-)>>>
             <<<Displacing  20/coordinate 3 (-)>>>
             <<<Displacing  21/coordinate 1 (+)>>>
             <<<Displacing  21/coordinate 3 (+)>>>
             <<<Displacing  21/coordinate 1 (-)>>>
             <<<Displacing  21/coordinate 3 (-)>>>
             <<<Displacing  21/coordinate 2 (+)>>>
             <<<Displacing  22/coordinate 1 (+)>>>
             <<<Displacing  21/coordinate 2 (-)>>>
             <<<Displacing  22/coordinate 2 (+)>>>
             <<<Displacing  22/coordinate 1 (-)>>>
             <<<Displacing  22/coordinate 2 (-)>>>
             <<<Displacing  22/coordinate 3 (+)>>>
             <<<Displacing  22/coordinate 3 (-)>>>
             <<<Displacing  23/coordinate 1 (+)>>>
             <<<Displacing  23/coordinate 2 (+)>>>
             <<<Displacing  23/coordinate 3 (+)>>>
             <<<Displacing  23/coordinate 2 (-)>>>
             <<<Displacing  23/coordinate 1 (-)>>>
             <<<Displacing  23/coordinate 3 (-)>>>
             <<<Displacing  24/coordinate 2 (+)>>>
             <<<Displacing  24/coordinate 1 (+)>>>
             <<<Displacing  24/coordinate 1 (-)>>>
             <<<Displacing  24/coordinate 2 (-)>>>
             <<<Displacing  24/coordinate 3 (+)>>>
             <<<Displacing  25/coordinate 1 (+)>>>
             <<<Displacing  25/coordinate 1 (-)>>>
             <<<Displacing  24/coordinate 3 (-)>>>
             <<<Displacing  25/coordinate 2 (+)>>>
             <<<Displacing  26/coordinate 1 (+)>>>
             <<<Displacing  25/coordinate 2 (-)>>>
             <<<Displacing  26/coordinate 1 (-)>>>
             <<<Displacing  25/coordinate 3 (+)>>>
             <<<Displacing  25/coordinate 3 (-)>>>
             <<<Displacing  26/coordinate 2 (+)>>>
             <<<Displacing  26/coordinate 2 (-)>>>
             <<<Displacing  27/coordinate 1 (+)>>>
             <<<Displacing  26/coordinate 3 (+)>>>
             <<<Displacing  27/coordinate 2 (+)>>>
             <<<Displacing  27/coordinate 1 (-)>>>
             <<<Displacing  26/coordinate 3 (-)>>>
             <<<Displacing  27/coordinate 2 (-)>>>
             <<<Displacing  28/coordinate 1 (+)>>>
             <<<Displacing  27/coordinate 3 (+)>>>
             <<<Displacing  28/coordinate 3 (+)>>>
             <<<Displacing  28/coordinate 1 (-)>>>
             <<<Displacing  27/coordinate 3 (-)>>>
             <<<Displacing  28/coordinate 2 (+)>>>
             <<<Displacing  29/coordinate 1 (+)>>>
             <<<Displacing  28/coordinate 3 (-)>>>
             <<<Displacing  28/coordinate 2 (-)>>>
             <<<Displacing  29/coordinate 1 (-)>>>
             <<<Displacing  29/coordinate 2 (+)>>>
             <<<Displacing  29/coordinate 3 (+)>>>
             <<<Displacing  29/coordinate 2 (-)>>>
             <<<Displacing  29/coordinate 3 (-)>>>
             <<<Displacing  30/coordinate 1 (+)>>>
             <<<Displacing  30/coordinate 1 (-)>>>
             <<<Displacing  30/coordinate 3 (+)>>>
             <<<Displacing  30/coordinate 2 (+)>>>
             <<<Displacing  30/coordinate 3 (-)>>>
             <<<Displacing  30/coordinate 2 (-)>>>

-----------------------
VIBRATIONAL FREQUENCIES
-----------------------

Scaling factor for frequencies =  1.000000000 (already applied!)

   0:         0.00 cm**-1
   1:         0.00 cm**-1
   2:         0.00 cm**-1
   3:         0.00 cm**-1
   4:         0.00 cm**-1
   5:         0.00 cm**-1
   6:        27.75 cm**-1
   7:        35.30 cm**-1
   8:        39.26 cm**-1
   9:        47.33 cm**-1
  10:        74.52 cm**-1
  11:        75.82 cm**-1
  12:       119.46 cm**-1
  13:       126.19 cm**-1
  14:       150.95 cm**-1
  15:       191.97 cm**-1
  16:       213.54 cm**-1
  17:       233.27 cm**-1
  18:       257.98 cm**-1
  19:       266.78 cm**-1
  20:       379.18 cm**-1
  21:       393.98 cm**-1
  22:       413.17 cm**-1
  23:       433.20 cm**-1
  24:       437.50 cm**-1
  25:       587.02 cm**-1
  26:       626.85 cm**-1
  27:       660.09 cm**-1
  28:       745.44 cm**-1
  29:       767.69 cm**-1
  30:       821.90 cm**-1
  31:       824.51 cm**-1
  32:       880.37 cm**-1
  33:       899.46 cm**-1
  34:       917.03 cm**-1
  35:       924.80 cm**-1
  36:       932.08 cm**-1
  37:       934.89 cm**-1
  38:       941.03 cm**-1
  39:       973.12 cm**-1
  40:       984.72 cm**-1
  41:      1001.06 cm**-1
  42:      1064.02 cm**-1
  43:      1065.61 cm**-1
  44:      1097.80 cm**-1
  45:      1112.22 cm**-1
  46:      1123.02 cm**-1
  47:      1149.61 cm**-1
  48:      1175.82 cm**-1
  49:      1179.51 cm**-1
  50:      1199.91 cm**-1
  51:      1209.05 cm**-1
  52:      1234.45 cm**-1
  53:      1269.55 cm**-1
  54:      1276.12 cm**-1
  55:      1280.55 cm**-1
  56:      1291.98 cm**-1
  57:      1303.59 cm**-1
  58:      1354.58 cm**-1
  59:      1362.94 cm**-1
  60:      1380.40 cm**-1
  61:      1426.75 cm**-1
  62:      1427.75 cm**-1
  63:      1448.89 cm**-1
  64:      1499.15 cm**-1
  65:      1502.57 cm**-1
  66:      1505.08 cm**-1
  67:      1506.82 cm**-1
  68:      1512.39 cm**-1
  69:      1561.17 cm**-1
  70:      1563.99 cm**-1
  71:      1570.55 cm**-1
  72:      1677.79 cm**-1
  73:      2803.80 cm**-1
  74:      2863.79 cm**-1
  75:      2931.23 cm**-1
  76:      2945.29 cm**-1
  77:      2967.91 cm**-1
  78:      2979.96 cm**-1
  79:      2981.44 cm**-1
  80:      2984.93 cm**-1
  81:      2996.28 cm**-1
  82:      2997.59 cm**-1
  83:      3053.82 cm**-1
  84:      3060.81 cm**-1
  85:      3066.86 cm**-1
  86:      3073.63 cm**-1
  87:      3079.49 cm**-1
  88:      3393.19 cm**-1
  89:      3419.72 cm**-1


------------
NORMAL MODES
------------

These modes are the cartesian displacements weighted by the diagonal matrix
M(i,i)=1/sqrt(m[i]) where m[i] is the mass of the displaced atom
Thus, these vectors are normalized but *not* orthogonal

                  0          1          2          3          4          5    
      0       0.000000   0.000000   0.000000   0.000000   0.000000   0.000000
      1       0.000000   0.000000   0.000000   0.000000   0.000000   0.000000
      2       0.000000   0.000000   0.000000   0.000000   0.000000   0.000000
      3       0.000000   0.000000   0.000000   0.000000   0.000000   0.000000
      4       0.000000   0.000000   0.000000   0.000000   0.000000   0.000000
      5       0.000000   0.000000   0.000000   0.000000   0.000000   0.000000
      6       0.000000   0.000000   0.000000   0.000000   0.000000   0.000000
      7       0.000000   0.000000   0.000000   0.000000   0.000000   0.000000
      8       0.000000   0.000000   0.000000   0.000000   0.000000   0.000000
      9       0.000000   0.000000   0.000000   0.000000   0.000000   0.000000
     10       0.000000   0.000000   0.000000   0.000000   0.000000   0.000000
     11       0.000000   0.000000   0.000000   0.000000   0.000000   0.000000
     12       0.000000   0.000000   0.000000   0.000000   0.000000   0.000000
     13       0.000000   0.000000   0.000000   0.000000   0.000000   0.000000
     14       0.000000   0.000000   0.000000   0.000000   0.000000   0.000000
     15       0.000000   0.000000   0.000000   0.000000   0.000000   0.000000
     16       0.000000   0.000000   0.000000   0.000000   0.000000   0.000000
     17       0.000000   0.000000   0.000000   0.000000   0.000000   0.000000
     18       0.000000   0.000000   0.000000   0.000000   0.000000   0.000000
     19       0.000000   0.000000   0.000000   0.000000   0.000000   0.000000
     20       0.000000   0.000000   0.000000   0.000000   0.000000   0.000000
     21       0.000000   0.000000   0.000000   0.000000   0.000000   0.000000
     22       0.000000   0.000000   0.000000   0.000000   0.000000   0.000000
     23       0.000000   0.000000   0.000000   0.000000   0.000000   0.000000
     24       0.000000   0.000000   0.000000   0.000000   0.000000   0.000000
     25       0.000000   0.000000   0.000000   0.000000   0.000000   0.000000
     26       0.000000   0.000000   0.000000   0.000000   0.000000   0.000000
     27       0.000000   0.000000   0.000000   0.000000   0.000000   0.000000
     28       0.000000   0.000000   0.000000   0.000000   0.000000   0.000000
     29       0.000000   0.000000   0.000000   0.000000   0.000000   0.000000
     30       0.000000   0.000000   0.000000   0.000000   0.000000   0.000000
     31       0.000000   0.000000   0.000000   0.000000   0.000000   0.000000
     32       0.000000   0.000000   0.000000   0.000000   0.000000   0.000000
     33       0.000000   0.000000   0.000000   0.000000   0.000000   0.000000
     34       0.000000   0.000000   0.000000   0.000000   0.000000   0.000000
     35       0.000000   0.000000   0.000000   0.000000   0.000000   0.000000
     36       0.000000   0.000000   0.000000   0.000000   0.000000   0.000000
     37       0.000000   0.000000   0.000000   0.000000   0.000000   0.000000
     38       0.000000   0.000000   0.000000   0.000000   0.000000   0.000000
     39       0.000000   0.000000   0.000000   0.000000   0.000000   0.000000
     40       0.000000   0.000000   0.000000   0.000000   0.000000   0.000000
     41       0.000000   0.000000   0.000000   0.000000   0.000000   0.000000
     42       0.000000   0.000000   0.000000   0.000000   0.000000   0.000000
     43       0.000000   0.000000   0.000000   0.000000   0.000000   0.000000
     44       0.000000   0.000000   0.000000   0.000000   0.000000   0.000000
     45       0.000000   0.000000   0.000000   0.000000   0.000000   0.000000
     46       0.000000   0.000000   0.000000   0.000000   0.000000   0.000000
     47       0.000000   0.000000   0.000000   0.000000   0.000000   0.000000
     48       0.000000   0.000000   0.000000   0.000000   0.000000   0.000000
     49       0.000000   0.000000   0.000000   0.000000   0.000000   0.000000
     50       0.000000   0.000000   0.000000   0.000000   0.000000   0.000000
     51       0.000000   0.000000   0.000000   0.000000   0.000000   0.000000
     52       0.000000   0.000000   0.000000   0.000000   0.000000   0.000000
     53       0.000000   0.000000   0.000000   0.000000   0.000000   0.000000
     54       0.000000   0.000000   0.000000   0.000000   0.000000   0.000000
     55       0.000000   0.000000   0.000000   0.000000   0.000000   0.000000
     56       0.000000   0.000000   0.000000   0.000000   0.000000   0.000000
     57       0.000000   0.000000   0.000000   0.000000   0.000000   0.000000
     58       0.000000   0.000000   0.000000   0.000000   0.000000   0.000000
     59       0.000000   0.000000   0.000000   0.000000   0.000000   0.000000
     60       0.000000   0.000000   0.000000   0.000000   0.000000   0.000000
     61       0.000000   0.000000   0.000000   0.000000   0.000000   0.000000
     62       0.000000   0.000000   0.000000   0.000000   0.000000   0.000000
     63       0.000000   0.000000   0.000000   0.000000   0.000000   0.000000
     64       0.000000   0.000000   0.000000   0.000000   0.000000   0.000000
     65       0.000000   0.000000   0.000000   0.000000   0.000000   0.000000
     66       0.000000   0.000000   0.000000   0.000000   0.000000   0.000000
     67       0.000000   0.000000   0.000000   0.000000   0.000000   0.000000
     68       0.000000   0.000000   0.000000   0.000000   0.000000   0.000000
     69       0.000000   0.000000   0.000000   0.000000   0.000000   0.000000
     70       0.000000   0.000000   0.000000   0.000000   0.000000   0.000000
     71       0.000000   0.000000   0.000000   0.000000   0.000000   0.000000
     72       0.000000   0.000000   0.000000   0.000000   0.000000   0.000000
     73       0.000000   0.000000   0.000000   0.000000   0.000000   0.000000
     74       0.000000   0.000000   0.000000   0.000000   0.000000   0.000000
     75       0.000000   0.000000   0.000000   0.000000   0.000000   0.000000
     76       0.000000   0.000000   0.000000   0.000000   0.000000   0.000000
     77       0.000000   0.000000   0.000000   0.000000   0.000000   0.000000
     78       0.000000   0.000000   0.000000   0.000000   0.000000   0.000000
     79       0.000000   0.000000   0.000000   0.000000   0.000000   0.000000
     80       0.000000   0.000000   0.000000   0.000000   0.000000   0.000000
     81       0.000000   0.000000   0.000000   0.000000   0.000000   0.000000
     82       0.000000   0.000000   0.000000   0.000000   0.000000   0.000000
     83       0.000000   0.000000   0.000000   0.000000   0.000000   0.000000
     84       0.000000   0.000000   0.000000   0.000000   0.000000   0.000000
     85       0.000000   0.000000   0.000000   0.000000   0.000000   0.000000
     86       0.000000   0.000000   0.000000   0.000000   0.000000   0.000000
     87       0.000000   0.000000   0.000000   0.000000   0.000000   0.000000
     88       0.000000   0.000000   0.000000   0.000000   0.000000   0.000000
     89       0.000000   0.000000   0.000000   0.000000   0.000000   0.000000
                  6          7          8          9         10         11    
      0       0.014294   0.015985   0.014618   0.094046  -0.002224  -0.028432
      1      -0.039594   0.012427   0.009468  -0.058893  -0.039583   0.025592
      2       0.024022   0.071325   0.115022  -0.015489  -0.170555   0.090429
      3       0.011360   0.025034  -0.019104   0.075658   0.003071  -0.023575
      4      -0.052154   0.008810   0.043505   0.004928   0.015754  -0.015297
      5      -0.014819   0.107455   0.023931   0.032394  -0.027417   0.023733
      6       0.008026   0.044724  -0.090587   0.027545   0.009834  -0.011442
      7      -0.049373   0.009609   0.041837  -0.011895   0.082291  -0.048207
      8      -0.006598   0.111589   0.007477  -0.019288   0.146889  -0.059168
      9       0.007152   0.054480  -0.127598  -0.000907   0.011391  -0.003991
     10      -0.037161   0.016162   0.008202  -0.087399   0.098223  -0.041459
     11       0.031201   0.087282   0.083807  -0.107579   0.185222  -0.076017
     12       0.009553   0.045453  -0.093848   0.017962   0.006337  -0.008464
     13      -0.027817   0.022930  -0.025792  -0.147307   0.045753   0.000872
     14       0.062197   0.059800   0.172213  -0.147040   0.047428  -0.004636
     15       0.013360   0.026040  -0.022252   0.065108  -0.001086  -0.020515
     16      -0.028867   0.020576  -0.025611  -0.133557  -0.025032   0.034847
     17       0.060310   0.049815   0.185737  -0.103122  -0.133468   0.079843
     18       0.016090   0.001938   0.068469   0.131206  -0.005597  -0.039188
     19      -0.039760   0.010497   0.010424  -0.048148  -0.089207   0.049909
     20       0.023778   0.063860   0.125793   0.018153  -0.303659   0.154059
     21       0.005824   0.051755  -0.116321   0.013377   0.014350  -0.008860
     22      -0.056650   0.005769   0.065762   0.035099   0.117897  -0.081187
     23      -0.031631   0.136562  -0.066820   0.011478   0.244897  -0.113296
     24       0.008470   0.053472  -0.123657  -0.004143   0.008114  -0.002740
     25      -0.020477   0.029782  -0.053761  -0.204646   0.059551   0.006507
     26       0.088007   0.043210   0.227819  -0.211519   0.079081  -0.014938
     27       0.013224   0.012381   0.020150   0.107060   0.005502  -0.031191
     28      -0.064124   0.002959   0.082644   0.081933   0.011043  -0.019546
     29      -0.056534   0.140341  -0.048587   0.123536  -0.050112   0.054494
     30       0.016852  -0.005573   0.076100   0.143231   0.004388  -0.046429
     31      -0.061565   0.000064   0.081538   0.083856  -0.034729  -0.032157
     32      -0.049369   0.125896  -0.022694   0.148923  -0.177661   0.013309
     33       0.011254   0.020606  -0.003311   0.095025   0.006258  -0.024803
     34      -0.062656  -0.011804   0.111630   0.133142   0.055064  -0.008691
     35      -0.069057   0.161631  -0.137842   0.161224   0.058689   0.129889
     36      -0.044414  -0.033036  -0.084323  -0.212292   0.012736   0.094855
     37       0.206298  -0.014163  -0.159811  -0.041730  -0.030564   0.032174
     38       0.226937  -0.155241  -0.072398   0.035774  -0.005050  -0.085419
     39      -0.031583  -0.048690  -0.101414  -0.220155   0.028540   0.114891
     40       0.118021   0.109006  -0.229815  -0.145570  -0.110220  -0.025611
     41       0.093297   0.021487  -0.059855  -0.020539  -0.143430  -0.223788
     42      -0.024684  -0.040553   0.037934  -0.105302  -0.014812   0.024690
     43       0.096561  -0.022919  -0.004131   0.066933   0.001836   0.063173
     44       0.046382  -0.152170  -0.033477   0.028361   0.067324   0.045960
     45      -0.029041  -0.044809   0.011077  -0.128736  -0.002842   0.050456
     46       0.073962   0.071905  -0.134054  -0.056113  -0.075166  -0.019373
     47       0.039136  -0.032993  -0.045865   0.006340  -0.066326  -0.152925
     48       0.043959  -0.186293   0.085687  -0.039567   0.115255   0.198248
     49       0.138407   0.054368  -0.182934  -0.081034  -0.071567  -0.016098
     50      -0.116209   0.107251  -0.032617  -0.027775  -0.165265  -0.276201
     51      -0.079494   0.070530  -0.005004  -0.162739  -0.116070  -0.106346
     52      -0.112831   0.229908  -0.163207  -0.133864  -0.172459  -0.127040
     53       0.029687   0.018919  -0.052600  -0.005788  -0.124082  -0.235886
     54       0.012965  -0.123644   0.057234  -0.077751   0.096433   0.184041
     55       0.271702  -0.077060   0.072067   0.145225   0.150173   0.235837
     56       0.050166  -0.194265  -0.029334   0.035780   0.116743   0.121460
     57      -0.087237   0.063294  -0.045878  -0.191364  -0.140424  -0.135973
     58       0.033087  -0.044336   0.021866   0.089568  -0.026351   0.025592
     59       0.191937  -0.202390  -0.005415   0.063039   0.210503   0.231696
     60      -0.238277   0.198124  -0.126938  -0.331575  -0.143389  -0.047938
     61       0.166506  -0.008913  -0.123172  -0.015343  -0.028146   0.023014
     62       0.423137  -0.322466  -0.101282   0.075855   0.098388   0.027624
     63       0.011016  -0.058915   0.149512  -0.004755  -0.008924  -0.002539
     64      -0.024010  -0.019363  -0.013955   0.054035  -0.080931  -0.037575
     65      -0.151048  -0.143877  -0.069271  -0.010629  -0.064387  -0.108401
     66       0.043778  -0.141709   0.199884   0.060994   0.082363   0.145834
     67       0.044880  -0.000723  -0.032835   0.034616  -0.044640   0.003126
     68      -0.282283  -0.101474  -0.083326  -0.037175  -0.195304  -0.294777
     69      -0.000991   0.011340   0.159425  -0.014952  -0.092273  -0.157006
     70      -0.186542   0.023496  -0.079351  -0.017309  -0.216648  -0.208610
     71      -0.140908  -0.107539  -0.056681  -0.009124  -0.098718  -0.180361
     72       0.004804   0.068883  -0.182038  -0.037070   0.017008   0.005109
     73      -0.035310   0.016862   0.007073  -0.099713   0.150562  -0.068661
     74       0.035388   0.091407   0.072257  -0.144295   0.317937  -0.142721
     75       0.015249   0.019094   0.003480   0.079371  -0.005017  -0.023660
     76      -0.020804   0.025063  -0.051838  -0.180990  -0.066669   0.067385
     77       0.087390   0.025656   0.252707  -0.137751  -0.243089   0.135211
     78       0.019743  -0.057109   0.179996   0.021061  -0.014158  -0.022481
     79      -0.019954  -0.094062   0.083721   0.157773  -0.034127   0.031393
     80      -0.190290  -0.241275  -0.107501  -0.018567   0.016260   0.071235
     81       0.042575  -0.065003   0.254917   0.087984  -0.012416  -0.044769
     82      -0.074457  -0.096565   0.080202   0.154203  -0.073335  -0.015410
     83      -0.280951  -0.244320  -0.123701  -0.033725  -0.046836  -0.000750
     84       0.003096   0.019483   0.139301  -0.034844  -0.090663  -0.152517
     85      -0.064907  -0.117041   0.107053   0.183018  -0.054258   0.011280
     86      -0.113926  -0.273727  -0.105697  -0.006641   0.108527   0.208475
     87       0.018990  -0.125625   0.167302   0.029076   0.057370   0.116153
     88       0.084341  -0.121978   0.135401   0.211469   0.060072   0.147781
     89      -0.205581  -0.278947  -0.122616  -0.021447   0.046197   0.138688
                 12         13         14         15         16         17    
      0      -0.000641   0.006735  -0.010000   0.002167   0.148075  -0.008429
      1       0.001337  -0.020123   0.025927   0.000977   0.093671  -0.044410
      2       0.018672  -0.050666   0.080175  -0.000818  -0.037772  -0.102173
      3      -0.000393   0.001128  -0.004019   0.001387   0.100405  -0.005760
      4       0.018952  -0.030476   0.038173   0.001828   0.197755  -0.030374
      5       0.058086  -0.096517   0.134619  -0.002261  -0.068802  -0.062049
      6      -0.001871  -0.006456   0.005046  -0.000409  -0.069087  -0.002028
      7       0.019642  -0.022690   0.033582   0.001910   0.215418  -0.048921
      8       0.058595  -0.075393   0.126450  -0.002510  -0.067240  -0.109692
      9      -0.003854  -0.008272   0.007607  -0.001719  -0.188001   0.004837
     10      -0.000023   0.007448   0.004275   0.001244   0.071564   0.003210
     11       0.012263   0.021341   0.027740   0.000801  -0.012553   0.016106
     12      -0.004741  -0.001631  -0.000164  -0.000899  -0.125336   0.006443
     13      -0.023289   0.032752  -0.028736   0.000565  -0.055991   0.043241
     14      -0.041414   0.106058  -0.082068   0.003268   0.017992   0.112217
     15      -0.003318   0.005968  -0.008980   0.001170   0.044805  -0.003090
     16      -0.021560   0.014801  -0.013723  -0.000097  -0.066075  -0.012523
     17      -0.036737   0.061323  -0.045348   0.002011   0.014118  -0.030615
     18       0.001371   0.012043  -0.016594   0.003500   0.267388  -0.011170
     19       0.001467  -0.029327   0.035018   0.001027   0.084365  -0.061560
     20       0.018953  -0.074193   0.104050  -0.000620  -0.041868  -0.148991
     21      -0.000970  -0.011340   0.011970  -0.001599  -0.144886  -0.002096
     22       0.035421  -0.033125   0.042404   0.003094   0.363384  -0.069633
     23       0.095160  -0.121447   0.179779  -0.005177  -0.123568  -0.152761
     24      -0.006883  -0.002718   0.001254  -0.001584  -0.191646   0.012707
     25      -0.041099   0.064081  -0.062895   0.000586  -0.152434   0.105290
     26      -0.083573   0.201076  -0.187433   0.006106   0.045421   0.263029
     27      -0.000752   0.005801  -0.004916   0.000232  -0.021783   0.002971
     28       0.019112  -0.013712   0.025423   0.000695   0.005387   0.059895
     29       0.050823  -0.061064   0.097640   0.000761  -0.002608   0.172761
     30       0.005704   0.001531   0.003561  -0.003315  -0.339462   0.025727
     31       0.060520  -0.065797   0.078938   0.001489   0.055574   0.217161
     32       0.168848  -0.207302   0.250941   0.001629  -0.012623   0.621285
     33      -0.004610   0.011938  -0.012685   0.001573   0.118327  -0.003884
     34      -0.031978   0.067669  -0.047381  -0.002666  -0.362067  -0.011080
     35      -0.096420   0.162757  -0.115158   0.003634   0.118267  -0.038463
     36      -0.016473  -0.027340   0.013931  -0.180668  -0.006963  -0.026089
     37       0.007788   0.082590   0.083374  -0.020836   0.003104   0.002511
     38       0.016498   0.119167   0.061932  -0.004358   0.006766   0.007175
     39      -0.038259  -0.026396   0.026282  -0.231128  -0.019510  -0.061570
     40       0.146637   0.074649   0.013115  -0.312559   0.074845   0.209940
     41       0.232973   0.109871  -0.054820  -0.042070   0.123123   0.341789
     42       0.009156   0.010965   0.018178   0.153386   0.000755   0.010634
     43      -0.043190  -0.139769  -0.042761   0.108632   0.006212   0.034837
     44      -0.078676  -0.226771  -0.100742  -0.064020   0.007059   0.017460
     45      -0.002868  -0.004069   0.025729   0.106794   0.002689   0.012400
     46       0.045167  -0.049266  -0.093742   0.022669  -0.013977  -0.031243
     47       0.067292  -0.068873  -0.187739   0.024114  -0.017835  -0.046282
     48      -0.136036  -0.083399   0.147437   0.146647   0.025553   0.075944
     49       0.052401   0.047022  -0.017053  -0.049664  -0.008776  -0.029120
     50       0.162879  -0.147115  -0.397276   0.098256  -0.044289  -0.103150
     51       0.121222   0.082399  -0.077892   0.188450  -0.016342  -0.032766
     52       0.138526  -0.163538  -0.338746  -0.024517  -0.043857  -0.105025
     53       0.132073  -0.002857  -0.222046   0.079858  -0.025722  -0.064476
     54      -0.066247  -0.109606   0.069150   0.129055   0.021806   0.068745
     55      -0.020077  -0.322964  -0.122408   0.092979   0.017396   0.071462
     56      -0.124455  -0.276225  -0.060799  -0.074230   0.018162   0.046959
     57       0.088390   0.148317  -0.022732   0.167500  -0.022075  -0.056302
     58      -0.090960  -0.092220   0.017980   0.099984   0.009622   0.042604
     59      -0.068446  -0.408011  -0.159964  -0.067348   0.021102   0.060823
     60       0.229956  -0.082627  -0.174382  -0.432519   0.107002   0.311028
     61      -0.017111   0.015698   0.012568   0.098828  -0.030231  -0.085325
     62      -0.113418   0.262913   0.303701  -0.021210  -0.018270  -0.084215
     63       0.014918   0.006829  -0.007462   0.033129   0.000776   0.001228
     64      -0.085923  -0.016695   0.043674   0.085594   0.004932   0.026474
     65      -0.148004  -0.033015   0.040536  -0.066146   0.005159   0.006183
     66       0.221337   0.041356  -0.084132  -0.023701  -0.004680  -0.016692
     67      -0.102791  -0.110323   0.003233   0.146753   0.007737   0.040927
     68      -0.295149   0.079123   0.165418  -0.113015   0.005606  -0.000837
     69      -0.177320  -0.028298   0.049649  -0.039778   0.004762   0.004325
     70      -0.219565   0.118075   0.186289   0.133369   0.005613   0.027589
     71      -0.245266  -0.067069   0.058845  -0.111996   0.007399   0.007836
     72      -0.004593  -0.014423   0.014823  -0.003437  -0.316346   0.008033
     73      -0.000170   0.016309   0.000212   0.001658   0.081672   0.020572
     74       0.012082   0.042228   0.018389   0.001654  -0.009530   0.060524
     75      -0.004059   0.010465  -0.014708   0.001938   0.111280  -0.005026
     76      -0.038172   0.030776  -0.034360  -0.000995  -0.196622  -0.010443
     77      -0.076897   0.118731  -0.117277   0.003897   0.048875  -0.036007
     78       0.000642   0.003497  -0.011604  -0.057493   0.000503  -0.007872
     79       0.080641   0.066898  -0.005954  -0.155928  -0.001807  -0.013523
     80       0.117373   0.081208   0.001813   0.091387  -0.001586   0.000883
     81       0.005250   0.006465  -0.034642  -0.291854  -0.001812  -0.034519
     82       0.041143   0.132324   0.065795  -0.184988   0.000906  -0.015692
     83       0.053271   0.185905   0.120313   0.078231   0.003059   0.001001
     84      -0.214884  -0.054844   0.068361   0.010567   0.008852   0.017980
     85       0.093751   0.146822   0.041411  -0.254691  -0.001566  -0.027976
     86       0.280611   0.019354  -0.131312   0.170934  -0.008845  -0.000756
     87       0.203321   0.057292  -0.071842   0.033951  -0.005780  -0.015206
     88       0.229940  -0.014603  -0.162855  -0.231835  -0.010568  -0.030898
     89       0.218807   0.125385  -0.012381   0.157795  -0.004184  -0.001002
                 18         19         20         21         22         23    
      0      -0.001446   0.000402   0.007191   0.000247  -0.002981  -0.130801
      1       0.004197  -0.000087   0.078047  -0.002405   0.004823   0.078131
      2       0.030429  -0.006031   0.204426  -0.005964  -0.000362  -0.026742
      3      -0.002245   0.000608  -0.000121  -0.000041   0.001886   0.051169
      4      -0.002410   0.000798  -0.011560   0.001016  -0.006526  -0.167020
      5       0.012189  -0.003319  -0.025174   0.000220  -0.004185   0.072183
      6       0.006384  -0.000556  -0.006581   0.000487  -0.005534  -0.177078
      7       0.006699  -0.000298  -0.071365   0.003528  -0.002392  -0.150147
      8       0.037411  -0.006924  -0.179933   0.006745   0.004567   0.066502
      9       0.009022  -0.000807   0.006961  -0.000293  -0.004542  -0.128049
     10      -0.005662   0.001279   0.079439  -0.002626   0.000649  -0.038269
     11      -0.004811  -0.001714   0.201167  -0.006676   0.002083   0.014290
     12       0.006948  -0.000586  -0.000200   0.000499  -0.008099  -0.229179
     13      -0.016090   0.004022  -0.007992  -0.001215   0.005016   0.187138
     14      -0.036366   0.005322  -0.026326  -0.000683  -0.006967  -0.059854
     15       0.002103   0.000053  -0.004620   0.000673  -0.003408  -0.121185
     16       0.004140   0.001370  -0.065990   0.001646   0.008372   0.178314
     17       0.015098  -0.001079  -0.174028   0.006113   0.002081  -0.065978
     18      -0.003511   0.000461   0.012347   0.001008  -0.010266  -0.381094
     19       0.008656  -0.001207   0.176364  -0.005567   0.006415   0.089214
     20       0.041173  -0.008991   0.467683  -0.014148   0.003195  -0.019914
     21       0.009931  -0.001059  -0.015875   0.000387  -0.006935  -0.218840
     22       0.005242  -0.000233  -0.157832   0.005972   0.003496  -0.056417
     23       0.051892  -0.009188  -0.407588   0.012134   0.008991   0.026849
     24       0.007471  -0.000080  -0.000758  -0.000017  -0.007367  -0.193169
     25      -0.033449   0.006993  -0.021348  -0.002018   0.004190   0.230090
     26      -0.088748   0.011856  -0.062032  -0.000426  -0.012677  -0.073277
     27      -0.004302   0.000945   0.000849  -0.000978   0.010200   0.318422
     28      -0.025196   0.004164  -0.012169  -0.000685  -0.004300  -0.043882
     29      -0.084592   0.010424  -0.027833  -0.002572   0.003346   0.002195
     30      -0.000690   0.000664   0.003679  -0.000907   0.012740   0.378297
     31      -0.102108   0.014251  -0.016762  -0.002257   0.002467  -0.069467
     32      -0.294654   0.037942  -0.039680  -0.007678   0.020596  -0.024001
     33      -0.003956   0.000809   0.000672  -0.001135   0.009344   0.342564
     34       0.026788  -0.001992   0.008662   0.001106  -0.003285  -0.049019
     35       0.021758  -0.002769   0.017291  -0.000512  -0.000246   0.006697
     36      -0.058414   0.006348   0.000735   0.059549   0.179096  -0.017895
     37      -0.007775  -0.003949  -0.006317  -0.128197  -0.133628   0.005785
     38       0.015529  -0.003781   0.000933   0.089094   0.097204  -0.006624
     39      -0.117530   0.013776  -0.000491   0.043892   0.295708  -0.029890
     40       0.332611  -0.051268  -0.000398  -0.188763   0.065484   0.015405
     41       0.571304  -0.077551   0.011830   0.103747  -0.229448   0.055278
     42       0.012013  -0.003011   0.002755   0.142514  -0.072795   0.006684
     43       0.041927   0.007998   0.000944   0.016298   0.123939  -0.006836
     44       0.015651   0.022219   0.000389  -0.002826  -0.092566   0.005871
     45       0.008530  -0.002336   0.002972   0.170424  -0.141912   0.010924
     46      -0.042474   0.015580  -0.000046  -0.086219  -0.114215   0.005581
     47      -0.042227   0.024609   0.007418   0.068189   0.081165  -0.006182
     48       0.070368  -0.010598   0.001837   0.217311  -0.136552   0.008772
     49      -0.038542   0.006797  -0.004120  -0.134603  -0.111903   0.006563
     50      -0.099964   0.044376   0.012514   0.099440   0.080846  -0.006459
     51      -0.025881   0.002168   0.007856   0.212921  -0.133238   0.012685
     52      -0.124839   0.040989   0.005164  -0.146174  -0.084067   0.001648
     53      -0.052039   0.024133   0.009742   0.104837   0.080716  -0.004273
     54       0.079164   0.012632  -0.001012   0.170695  -0.203112   0.019496
     55       0.098406   0.080587  -0.001293  -0.042055   0.211456  -0.011117
     56       0.048981   0.023981  -0.001611   0.023039  -0.176665   0.013850
     57      -0.070460  -0.023556   0.007804   0.179981  -0.147602   0.008839
     58       0.048231  -0.024113  -0.001624  -0.029151   0.215815  -0.013084
     59       0.075433   0.087446   0.000100   0.029675  -0.173106   0.014021
     60       0.511083  -0.065198   0.013831   0.022747   0.186107   0.026973
     61      -0.140652   0.022776  -0.005602  -0.101054  -0.208526   0.003047
     62      -0.163793   0.002803  -0.009040   0.070511   0.207785  -0.032732
     63       0.007349   0.002085  -0.005472  -0.184933   0.057740  -0.004971
     64       0.026713  -0.037464   0.000004   0.028139   0.175066  -0.010486
     65      -0.006613  -0.050503  -0.002931  -0.032133  -0.109634   0.006708
     66      -0.002928   0.055987  -0.006513  -0.208494   0.021251  -0.004159
     67       0.043488  -0.031852   0.003196   0.071378   0.193247  -0.010871
     68      -0.023137  -0.102896  -0.006476  -0.071930  -0.113866   0.007094
     69      -0.001064  -0.045401  -0.007982  -0.219819   0.021077  -0.002907
     70       0.021171  -0.090951  -0.000901   0.072516   0.195945  -0.010392
     71      -0.010594  -0.071589  -0.004314  -0.060289  -0.128458   0.007523
     72       0.011176  -0.001590   0.015799  -0.000811   0.001585   0.091482
     73      -0.011948   0.000737   0.170279  -0.005327   0.002019  -0.053485
     74      -0.019840  -0.002669   0.431176  -0.013478   0.006173   0.005605
     75       0.000056   0.000433  -0.011088   0.001035  -0.002255  -0.099066
     76       0.011607   0.000762  -0.146222   0.004374   0.008612   0.127926
     77       0.020550  -0.000083  -0.380126   0.013629   0.009481  -0.049728
     78      -0.007264  -0.000023  -0.005843  -0.190512  -0.028036   0.000161
     79      -0.019787   0.007018   0.004767   0.171893  -0.041958   0.003043
     80       0.008518   0.011062  -0.002518  -0.117716   0.023967  -0.002161
     81      -0.053957  -0.022349  -0.000382   0.038891  -0.297083   0.017883
     82       0.025903   0.309784   0.008471   0.192175  -0.064894   0.003970
     83       0.088387   0.500490   0.002677  -0.118518   0.026859  -0.003341
     84       0.039790   0.100315  -0.008615  -0.264812   0.058316  -0.006051
     85       0.003717   0.279957   0.010229   0.264576  -0.147306   0.009352
     86      -0.063403  -0.451691  -0.007669  -0.181869   0.096786  -0.005615
     87      -0.020515  -0.079232  -0.006184  -0.265736   0.063745  -0.005020
     88      -0.131688  -0.529712   0.003230   0.268292  -0.152609   0.011446
     89       0.016402   0.039687  -0.002607  -0.178308   0.095886  -0.006544
                 24         25         26         27         28         29    
      0       0.000651  -0.054550   0.240137  -0.004676   0.000511  -0.001962
      1       0.009509   0.318003   0.137544  -0.066628   0.020908  -0.001099
      2       0.019509  -0.118081  -0.058778  -0.179663   0.056475   0.000436
      3      -0.009564   0.100215   0.234117   0.011207  -0.003083  -0.000766
      4      -0.110818   0.087785  -0.075984   0.082185  -0.021159   0.000090
      5      -0.287224  -0.038350   0.023698   0.221047  -0.056066   0.000027
      6       0.000117   0.316752  -0.054097  -0.006460   0.001816   0.000975
      7       0.023214   0.038192  -0.031696  -0.071118   0.022056   0.002882
      8       0.060559  -0.027455   0.021651  -0.177164   0.056009  -0.002144
      9       0.001362   0.061164  -0.119986   0.005550   0.001439  -0.000160
     10       0.043727  -0.333156  -0.056615   0.075718   0.010890   0.004463
     11       0.112115   0.127330   0.020171   0.200348   0.024523  -0.001960
     12      -0.008997  -0.108579  -0.196949  -0.007233   0.003384   0.001397
     13      -0.070817  -0.097056   0.115199  -0.065250   0.022200  -0.001713
     14      -0.186147   0.041648  -0.032464  -0.170052   0.058230   0.000514
     15       0.004620  -0.330392   0.228015   0.008732  -0.000801  -0.003334
     16       0.056555  -0.040641   0.107767   0.079441   0.011276  -0.001918
     17       0.139631   0.025372  -0.053451   0.199513   0.030123   0.000944
     18       0.001965   0.089132   0.103865  -0.013968  -0.011190   0.000330
     19       0.066722   0.297039   0.142572  -0.164419  -0.133234  -0.001619
     20       0.172448  -0.113574  -0.064440  -0.442065  -0.356111  -0.001412
     21       0.007749   0.219687  -0.172356  -0.019053  -0.012635   0.001437
     22       0.112641   0.200768   0.206401  -0.171389  -0.125967   0.002610
     23       0.285760  -0.087390  -0.069568  -0.449286  -0.326172  -0.002709
     24      -0.014207   0.110490  -0.259847  -0.015775  -0.011102   0.001079
     25      -0.137131   0.204482   0.009518  -0.177094  -0.175270  -0.002037
     26      -0.353195  -0.083665   0.007502  -0.453579  -0.447280   0.000089
     27       0.005559   0.014990  -0.024510  -0.000741   0.000027   0.002737
     28       0.002433  -0.032142  -0.347807   0.010515  -0.014972  -0.004694
     29       0.021761   0.010501   0.127035   0.030032  -0.039612   0.000813
     30       0.027449   0.032950   0.160780  -0.009127   0.012506   0.004031
     31       0.162838  -0.031705  -0.350615  -0.061593   0.082094  -0.003304
     32       0.476123   0.008164   0.131963  -0.173321   0.234570   0.003259
     33       0.003587  -0.007835  -0.243595  -0.002809   0.001623   0.000397
     34       0.004268   0.034597   0.126340  -0.002617   0.004858   0.000883
     35       0.012125  -0.011892  -0.035998  -0.010429   0.013187  -0.000114
     36      -0.004511  -0.001216  -0.004969   0.000697  -0.000151   0.000942
     37       0.000671  -0.000435   0.000839   0.001671  -0.000765   0.004822
     38      -0.006757  -0.000580  -0.000272   0.001310  -0.000987   0.004463
     39      -0.008296  -0.001881  -0.002770   0.001628  -0.000991   0.002708
     40      -0.003903   0.002484   0.014530   0.000136  -0.001650   0.004143
     41       0.005172   0.005170   0.006572  -0.004365   0.001907  -0.004714
     42       0.000854   0.000120   0.001473   0.000128  -0.000439   0.005445
     43      -0.001594  -0.000055  -0.000521  -0.000265  -0.000071  -0.028456
     44       0.004015  -0.000106  -0.000308  -0.000075  -0.000056  -0.045572
     45       0.003223  -0.000213   0.001463  -0.000143   0.000052   0.001571
     46       0.003312   0.000122   0.000658   0.000149   0.000976  -0.012176
     47      -0.003450   0.000516  -0.004565   0.001304   0.000702  -0.017259
     48       0.004523  -0.000732  -0.000070   0.002161   0.001670  -0.222935
     49       0.002209  -0.000017  -0.000345  -0.001665  -0.000389   0.019818
     50      -0.002921   0.000970  -0.001354   0.000753  -0.000290   0.126257
     51       0.000910   0.001242   0.004070  -0.001166  -0.001497   0.207827
     52       0.003927   0.001725  -0.004980   0.000058   0.001162   0.121487
     53      -0.004905   0.001182  -0.001400   0.000545  -0.000157   0.097112
     54       0.004530   0.000406   0.009292  -0.002140  -0.003158   0.263397
     55      -0.000930  -0.000264   0.004783  -0.002435   0.000583   0.378837
     56       0.005462   0.000321   0.003796  -0.000580  -0.000957   0.075101
     57       0.000008   0.000634  -0.005143   0.003314   0.003027  -0.294607
     58      -0.004530  -0.000473  -0.001514  -0.000207  -0.000388  -0.115100
     59       0.008909   0.000212   0.006348  -0.002657  -0.002006   0.345933
     60      -0.003011   0.004402   0.017382  -0.003100   0.001037  -0.023482
     61       0.002976  -0.001228  -0.002617   0.002597  -0.000186  -0.016958
     62      -0.011111  -0.002894  -0.011124   0.002195  -0.002608   0.056532
     63      -0.001764   0.000124  -0.000440   0.000011  -0.000458   0.002561
     64      -0.004241  -0.000075  -0.001425  -0.000304  -0.000130  -0.025846
     65       0.002494  -0.000176   0.000737  -0.000276   0.000152  -0.042702
     66      -0.000291  -0.001954  -0.002859  -0.001764  -0.000255  -0.249961
     67      -0.003638   0.000793  -0.002956   0.000549  -0.001783  -0.114082
     68       0.001335   0.000214   0.004881  -0.000366   0.001577   0.319597
     69      -0.001403   0.000421   0.001331   0.000600  -0.000339   0.226954
     70      -0.006373   0.000375   0.002168  -0.000677   0.000582   0.349054
     71       0.002775  -0.000072   0.001304   0.000240   0.000342   0.057810
     72       0.010384  -0.084558   0.035397   0.004507  -0.013902  -0.003632
     73       0.128011  -0.309986  -0.065965   0.031152  -0.164637   0.005319
     74       0.325711   0.128234   0.010053   0.087863  -0.419531  -0.000888
     75       0.013469  -0.230252   0.354686   0.006525  -0.016217  -0.004599
     76       0.150828  -0.208819  -0.150987   0.035633  -0.168525   0.000716
     77       0.387545   0.084981   0.029822   0.094548  -0.435361  -0.001771
     78       0.000443   0.000329   0.000427   0.000378  -0.000039  -0.001365
     79       0.001584   0.000220   0.000134  -0.000109   0.000293  -0.000829
     80      -0.000304   0.000065  -0.000082  -0.000302   0.000084  -0.003198
     81       0.006969   0.000923   0.002659   0.000334  -0.000511  -0.002901
     82       0.002185   0.000774   0.000333  -0.000365  -0.000787   0.027929
     83      -0.000329   0.000933  -0.000130  -0.000553  -0.001452   0.043253
     84      -0.002791  -0.000759  -0.002127  -0.000952  -0.000120  -0.157713
     85       0.004184   0.000880   0.001079  -0.000246  -0.000575   0.057194
     86      -0.001292   0.000034   0.000642   0.001129   0.001527   0.052462
     87      -0.000558   0.001582   0.001409   0.002395   0.001303   0.148071
     88       0.004568   0.000762   0.001742   0.000041  -0.000287   0.030690
     89      -0.001404   0.000630   0.000231   0.000786   0.000668   0.085794
                 30         31         32         33         34         35    
      0       0.070929   0.016076  -0.002809  -0.000302  -0.000889  -0.002902
      1      -0.015278  -0.003915  -0.028608  -0.005793  -0.003182  -0.028493
      2       0.004827   0.001312  -0.076113  -0.015967  -0.008684  -0.080972
      3      -0.011489  -0.002647  -0.000049  -0.004184   0.001126   0.003821
      4       0.001718   0.000262  -0.007204  -0.031895  -0.000309   0.022306
      5      -0.006933  -0.001454  -0.020019  -0.084765   0.000969   0.060385
      6       0.012447   0.003139   0.002729  -0.000533   0.000068  -0.003428
      7      -0.127396  -0.029691   0.028536  -0.014497   0.000542  -0.029148
      8       0.050554   0.009157   0.074603  -0.037755  -0.002349  -0.072954
      9       0.006076   0.001037   0.001744  -0.000605  -0.000600   0.000401
     10      -0.211749  -0.049057   0.022956  -0.000936  -0.000008   0.008117
     11       0.080266   0.020292   0.061059  -0.001337  -0.004841   0.017748
     12      -0.114334  -0.026698   0.001162   0.001446   0.000892   0.003044
     13       0.084662   0.019646   0.004285   0.024041   0.002489   0.027141
     14      -0.027899  -0.006483   0.011382   0.061927   0.007702   0.071806
     15       0.161217   0.037734  -0.001247   0.002996  -0.000412   0.000245
     16       0.076567   0.018059  -0.022540   0.015513   0.001466   0.004112
     17      -0.035617  -0.008278  -0.056627   0.039821   0.005873   0.013257
     18      -0.000905  -0.000543   0.012482   0.000933  -0.002987   0.011121
     19      -0.005912  -0.002112   0.186238   0.054158   0.019046   0.197709
     20      -0.000434  -0.000802   0.498879   0.143687   0.051370   0.524461
     21       0.000449   0.000866  -0.019807   0.011802  -0.000313   0.019913
     22      -0.124076  -0.025333  -0.182227   0.106089   0.011076   0.188647
     23       0.037013   0.014397  -0.478663   0.276360   0.018948   0.499165
     24      -0.081938  -0.018548  -0.000910  -0.012145  -0.002435  -0.010037
     25       0.104649   0.023801  -0.028781  -0.149292  -0.018874  -0.143839
     26      -0.044112  -0.012700  -0.074814  -0.376988  -0.039674  -0.363327
     27      -0.119901  -0.027943   0.000692   0.005621   0.000417  -0.003592
     28       0.258174   0.059314   0.012415   0.063148  -0.002229  -0.032118
     29      -0.089683  -0.023193   0.035059   0.177622   0.001156  -0.093646
     30      -0.308886  -0.072281  -0.006319  -0.031308   0.002964   0.013280
     31       0.273519   0.065904  -0.041599  -0.249139  -0.005201   0.124741
     32      -0.077846  -0.011903  -0.117639  -0.702262  -0.003486   0.347431
     33      -0.008344  -0.001643  -0.000777  -0.001506   0.000308   0.000423
     34      -0.048303  -0.010816  -0.003214  -0.015877   0.001095   0.007407
     35       0.017514   0.004393  -0.009170  -0.044119  -0.000437   0.021765
     36       0.002953   0.003200   0.000332  -0.001643   0.022906   0.001320
     37      -0.009752   0.015999   0.001568   0.001961   0.033826  -0.005508
     38       0.001618  -0.005761  -0.000933   0.005895  -0.068731   0.003051
     39       0.003103  -0.009084  -0.000110   0.009587  -0.089566  -0.005832
     40      -0.038848   0.037517   0.003104   0.007871   0.029248  -0.032425
     41      -0.020885   0.050689   0.001179  -0.033105   0.332245   0.012621
     42      -0.006671   0.006893   0.000539   0.002666  -0.012874  -0.008898
     43       0.009688  -0.018037   0.000312  -0.000449   0.015052  -0.011161
     44       0.016268  -0.027787  -0.000449  -0.003210   0.067411  -0.000756
     45       0.000288   0.000911  -0.000709  -0.001277   0.012835   0.007774
     46       0.025461  -0.042454  -0.000749   0.000122  -0.056241   0.007214
     47       0.035945  -0.053577   0.001124   0.001141  -0.023159   0.002854
     48       0.212119  -0.346235   0.001227   0.002455  -0.069037   0.013685
     49       0.016007  -0.024990  -0.004922   0.004124  -0.166092   0.024943
     50      -0.134608   0.223538   0.004615  -0.007138   0.226894  -0.030154
     51      -0.193018   0.316759   0.000447  -0.000496   0.052170  -0.010116
     52      -0.130750   0.232193   0.004137  -0.016452   0.266243  -0.022311
     53      -0.069335   0.115281   0.000737   0.003539  -0.040119  -0.004121
     54      -0.155709   0.249151  -0.000180   0.008753  -0.095963  -0.004863
[...]
     31       0.002423  -0.000172  -0.002765   0.003379   0.001034   0.001412
     32      -0.000828   0.000047   0.000948  -0.001272  -0.000397  -0.000389
     33      -0.000075   0.000217  -0.000011  -0.000550   0.000042  -0.000129
     34       0.000003   0.000027  -0.000067  -0.000154   0.000024   0.000008
     35       0.000003  -0.000009   0.000018   0.000055  -0.000018   0.000072
     36       0.000033  -0.000008  -0.000085  -0.000014   0.005572   0.069949
     37       0.000021  -0.000006  -0.000077  -0.000075  -0.052703   0.013544
     38       0.000006   0.000013  -0.000034   0.000017  -0.020180   0.030968
     39      -0.000145  -0.000098   0.000562  -0.000302  -0.433640  -0.850097
     40       0.000006  -0.000006  -0.000026  -0.000018   0.052905   0.168916
     41      -0.000057  -0.000061   0.000257  -0.000235  -0.134917  -0.212055
     42       0.000062  -0.000157  -0.000222  -0.000063  -0.000173   0.000003
     43      -0.000005   0.000009   0.000109   0.000066  -0.000025  -0.000102
     44      -0.000118   0.000265   0.000461   0.000217  -0.000052   0.000072
     45      -0.000004   0.000053  -0.000163  -0.000119   0.000428   0.001991
     46      -0.000006   0.000047  -0.000123  -0.000241  -0.002237   0.000829
     47       0.000000   0.000007   0.000007  -0.000145  -0.001888   0.000393
     48       0.000099  -0.000203   0.000406   0.001150   0.004688  -0.002682
     49       0.000016  -0.000925   0.002565   0.004072   0.007764  -0.002627
     50      -0.000244  -0.001099   0.002258   0.002863   0.008765  -0.004877
     51      -0.000036  -0.000352   0.000721   0.000064  -0.001499  -0.001221
     52       0.000071   0.000342  -0.000608  -0.000497   0.003997   0.001168
     53       0.000148   0.000867  -0.001812  -0.000897  -0.000516   0.000332
     54      -0.000835   0.002080   0.003926   0.001194  -0.000949  -0.002330
     55      -0.000170   0.000193  -0.000175  -0.000308  -0.000178   0.001178
     56       0.001572  -0.003543  -0.005171  -0.002966   0.000376   0.003503
     57       0.000045  -0.000034  -0.000544  -0.000440   0.001238  -0.003379
     58      -0.000013  -0.000073  -0.001116  -0.000626   0.000506  -0.003111
     59       0.000037  -0.000052  -0.000769  -0.000359   0.001107  -0.003684
     60      -0.000174   0.000071   0.000419   0.000401   0.349734  -0.136952
     61      -0.000245   0.000017   0.000637   0.000553   0.693596  -0.361730
     62      -0.000062  -0.000027   0.000195   0.000348   0.429135  -0.219298
     63      -0.000053  -0.000077  -0.000098  -0.000142   0.000012   0.000105
     64      -0.000059  -0.000042  -0.000071  -0.000139   0.000008   0.000040
     65      -0.000035   0.000087   0.000010  -0.000008  -0.000016   0.000003
     66       0.000396  -0.000167   0.000881   0.001020  -0.000039  -0.000140
     67       0.001039   0.000816   0.000894   0.002159   0.000673  -0.000818
     68       0.000969   0.000797   0.001214   0.002285   0.000095  -0.000226
     69       0.000127   0.000683   0.000295   0.000620   0.000101  -0.000068
     70      -0.000133  -0.000344  -0.000179  -0.000554   0.000043  -0.000033
     71      -0.000483  -0.001448  -0.000683  -0.001639  -0.000310   0.000285
     72      -0.031804  -0.039476   0.007593  -0.031279  -0.000007  -0.000073
     73      -0.481610  -0.621163   0.104790  -0.474454   0.000347   0.000252
     74       0.191408   0.246760  -0.041582   0.188599  -0.000121  -0.000096
     75       0.298348  -0.508305  -0.539495   0.227498  -0.000089  -0.000525
     76       0.135124  -0.227584  -0.242832   0.103023  -0.000008  -0.000169
     77      -0.062096   0.104733   0.111631  -0.047336   0.000011   0.000088
     78      -0.000191   0.000060  -0.000266   0.000101   0.000012   0.000006
     79       0.000071   0.000176   0.000086   0.000081  -0.000002  -0.000003
     80       0.000234   0.000042   0.000318  -0.000079   0.000009   0.000002
     81      -0.000055   0.000079  -0.000092   0.000101  -0.000044   0.000177
     82      -0.000855  -0.000977  -0.000916  -0.000425   0.000209  -0.000487
     83       0.000757   0.000840   0.000892   0.000280  -0.000133   0.000298
     84       0.000108  -0.000896   0.000044  -0.000649   0.000022  -0.000309
     85       0.000428  -0.001785   0.000397  -0.001284   0.000060  -0.000275
     86       0.000451  -0.001527   0.000474  -0.001165   0.000037  -0.000342
     87       0.002263   0.000479   0.003073  -0.000660  -0.000090  -0.000185
     88      -0.000479   0.000683  -0.000632   0.000561   0.000003   0.000124
     89      -0.004191   0.000201  -0.005541   0.001716   0.000063   0.000210


-----------
IR SPECTRUM  
-----------

 Mode    freq (cm**-1)   T**2         TX         TY         TZ
-------------------------------------------------------------------
   6:        27.75    0.000000  (  0.000000   0.000000   0.000000)
   7:        35.30    0.000000  (  0.000000   0.000000   0.000000)
   8:        39.26    0.000000  (  0.000000   0.000000   0.000000)
   9:        47.33    0.000000  (  0.000000   0.000000   0.000000)
  10:        74.52    0.000000  (  0.000000   0.000000   0.000000)
  11:        75.82    0.000000  (  0.000000   0.000000   0.000000)
  12:       119.46    0.000000  (  0.000000   0.000000   0.000000)
  13:       126.19    0.000000  (  0.000000   0.000000   0.000000)
  14:       150.95    0.000000  (  0.000000   0.000000   0.000000)
  15:       191.97    0.000000  (  0.000000   0.000000   0.000000)
  16:       213.54    0.000000  (  0.000000   0.000000   0.000000)
  17:       233.27    0.000000  (  0.000000   0.000000   0.000000)
  18:       257.98    0.000000  (  0.000000   0.000000   0.000000)
  19:       266.78    0.000000  (  0.000000   0.000000   0.000000)
  20:       379.18    0.000000  (  0.000000   0.000000   0.000000)
  21:       393.98    0.000000  (  0.000000   0.000000   0.000000)
  22:       413.17    0.000000  (  0.000000   0.000000   0.000000)
  23:       433.20    0.000000  (  0.000000   0.000000   0.000000)
  24:       437.50    0.000000  (  0.000000   0.000000   0.000000)
  25:       587.02    0.000000  (  0.000000   0.000000   0.000000)
  26:       626.85    0.000000  (  0.000000   0.000000   0.000000)
  27:       660.09    0.000000  (  0.000000   0.000000   0.000000)
  28:       745.44    0.000000  (  0.000000   0.000000   0.000000)
  29:       767.69    0.000000  (  0.000000   0.000000   0.000000)
  30:       821.90    0.000000  (  0.000000   0.000000   0.000000)
  31:       824.51    0.000000  (  0.000000   0.000000   0.000000)
  32:       880.37    0.000000  (  0.000000   0.000000   0.000000)
  33:       899.46    0.000000  (  0.000000   0.000000   0.000000)
  34:       917.03    0.000000  (  0.000000   0.000000   0.000000)
  35:       924.80    0.000000  (  0.000000   0.000000   0.000000)
  36:       932.08    0.000000  (  0.000000   0.000000   0.000000)
  37:       934.89    0.000000  (  0.000000   0.000000   0.000000)
  38:       941.03    0.000000  (  0.000000   0.000000   0.000000)
  39:       973.12    0.000000  (  0.000000   0.000000   0.000000)
  40:       984.72    0.000000  (  0.000000   0.000000   0.000000)
  41:      1001.06    0.000000  (  0.000000   0.000000   0.000000)
  42:      1064.02    0.000000  (  0.000000   0.000000   0.000000)
  43:      1065.61    0.000000  (  0.000000   0.000000   0.000000)
  44:      1097.80    0.000000  (  0.000000   0.000000   0.000000)
  45:      1112.22    0.000000  (  0.000000   0.000000   0.000000)
  46:      1123.02    0.000000  (  0.000000   0.000000   0.000000)
  47:      1149.61    0.000000  (  0.000000   0.000000   0.000000)
  48:      1175.82    0.000000  (  0.000000   0.000000   0.000000)
  49:      1179.51    0.000000  (  0.000000   0.000000   0.000000)
  50:      1199.91    0.000000  (  0.000000   0.000000   0.000000)
  51:      1209.05    0.000000  (  0.000000   0.000000   0.000000)
  52:      1234.45    0.000000  (  0.000000   0.000000   0.000000)
  53:      1269.55    0.000000  (  0.000000   0.000000   0.000000)
  54:      1276.12    0.000000  (  0.000000   0.000000   0.000000)
  55:      1280.55    0.000000  (  0.000000   0.000000   0.000000)
  56:      1291.98    0.000000  (  0.000000   0.000000   0.000000)
  57:      1303.59    0.000000  (  0.000000   0.000000   0.000000)
  58:      1354.58    0.000000  (  0.000000   0.000000   0.000000)
  59:      1362.94    0.000000  (  0.000000   0.000000   0.000000)
  60:      1380.40    0.000000  (  0.000000   0.000000   0.000000)
  61:      1426.75    0.000000  (  0.000000   0.000000   0.000000)
  62:      1427.75    0.000000  (  0.000000   0.000000   0.000000)
  63:      1448.89    0.000000  (  0.000000   0.000000   0.000000)
  64:      1499.15    0.000000  (  0.000000   0.000000   0.000000)
  65:      1502.57    0.000000  (  0.000000   0.000000   0.000000)
  66:      1505.08    0.000000  (  0.000000   0.000000   0.000000)
  67:      1506.82    0.000000  (  0.000000   0.000000   0.000000)
  68:      1512.39    0.000000  (  0.000000   0.000000   0.000000)
  69:      1561.17    0.000000  (  0.000000   0.000000   0.000000)
  70:      1563.99    0.000000  (  0.000000   0.000000   0.000000)
  71:      1570.55    0.000000  (  0.000000   0.000000   0.000000)
  72:      1677.79    0.000000  (  0.000000   0.000000   0.000000)
  73:      2803.80    0.000000  (  0.000000   0.000000   0.000000)
  74:      2863.79    0.000000  (  0.000000   0.000000   0.000000)
  75:      2931.23    0.000000  (  0.000000   0.000000   0.000000)
  76:      2945.29    0.000000  (  0.000000   0.000000   0.000000)
  77:      2967.91    0.000000  (  0.000000   0.000000   0.000000)
  78:      2979.96    0.000000  (  0.000000   0.000000   0.000000)
  79:      2981.44    0.000000  (  0.000000   0.000000   0.000000)
  80:      2984.93    0.000000  (  0.000000   0.000000   0.000000)
  81:      2996.28    0.000000  (  0.000000   0.000000   0.000000)
  82:      2997.59    0.000000  (  0.000000   0.000000   0.000000)
  83:      3053.82    0.000000  (  0.000000   0.000000   0.000000)
  84:      3060.81    0.000000  (  0.000000   0.000000   0.000000)
  85:      3066.86    0.000000  (  0.000000   0.000000   0.000000)
  86:      3073.63    0.000000  (  0.000000   0.000000   0.000000)
  87:      3079.49    0.000000  (  0.000000   0.000000   0.000000)
  88:      3393.19    0.000000  (  0.000000   0.000000   0.000000)
  89:      3419.72    0.000000  (  0.000000   0.000000   0.000000)

The first frequency considered to be a vibration is 6
The total number of vibrations considered is 84


--------------------------
THERMOCHEMISTRY AT 298.15K
--------------------------

Temperature         ... 298.15 K
Pressure            ... 1.00 atm
Total Mass          ... 179.26 AMU

Throughout the following assumptions are being made:
  (1) The electronic state is orbitally nondegenerate
  (2) There are no thermally accessible electronically excited states
  (3) Hindered rotations indicated by low frequency modes are not
      treated as such but are treated as vibrations and this may
      cause some error
  (4) All equations used are the standard statistical mechanics
      equations for an ideal gas
  (5) All vibrations are strictly harmonic

freq.      27.75  E(vib)   ...       0.55 
freq.      35.30  E(vib)   ...       0.54 
freq.      39.26  E(vib)   ...       0.54 
freq.      47.33  E(vib)   ...       0.53 
freq.      74.52  E(vib)   ...       0.49 
freq.      75.82  E(vib)   ...       0.49 
freq.     119.46  E(vib)   ...       0.44 
freq.     126.19  E(vib)   ...       0.43 
freq.     150.95  E(vib)   ...       0.40 
freq.     191.97  E(vib)   ...       0.36 
freq.     213.54  E(vib)   ...       0.34 
freq.     233.27  E(vib)   ...       0.32 
freq.     257.98  E(vib)   ...       0.30 
freq.     266.78  E(vib)   ...       0.29 
freq.     379.18  E(vib)   ...       0.21 
freq.     393.98  E(vib)   ...       0.20 
freq.     413.17  E(vib)   ...       0.19 
freq.     433.20  E(vib)   ...       0.17 
freq.     437.50  E(vib)   ...       0.17 
freq.     587.02  E(vib)   ...       0.10 
freq.     626.85  E(vib)   ...       0.09 
freq.     660.09  E(vib)   ...       0.08 
freq.     745.44  E(vib)   ...       0.06 
freq.     767.69  E(vib)   ...       0.06 
freq.     821.90  E(vib)   ...       0.05 
freq.     824.51  E(vib)   ...       0.04 
freq.     880.37  E(vib)   ...       0.04 
freq.     899.46  E(vib)   ...       0.03 
freq.     917.03  E(vib)   ...       0.03 
freq.     924.80  E(vib)   ...       0.03 
freq.     932.08  E(vib)   ...       0.03 
freq.     934.89  E(vib)   ...       0.03 
freq.     941.03  E(vib)   ...       0.03 
freq.     973.12  E(vib)   ...       0.03 
freq.     984.72  E(vib)   ...       0.02 
freq.    1001.06  E(vib)   ...       0.02 
freq.    1064.02  E(vib)   ...       0.02 
freq.    1065.61  E(vib)   ...       0.02 
freq.    1097.80  E(vib)   ...       0.02 
freq.    1112.22  E(vib)   ...       0.01 
freq.    1123.02  E(vib)   ...       0.01 
freq.    1149.61  E(vib)   ...       0.01 
freq.    1175.82  E(vib)   ...       0.01 
freq.    1179.51  E(vib)   ...       0.01 
freq.    1199.91  E(vib)   ...       0.01 
freq.    1209.05  E(vib)   ...       0.01 
freq.    1234.45  E(vib)   ...       0.01 
freq.    1269.55  E(vib)   ...       0.01 
freq.    1276.12  E(vib)   ...       0.01 
freq.    1280.55  E(vib)   ...       0.01 
freq.    1291.98  E(vib)   ...       0.01 
freq.    1303.59  E(vib)   ...       0.01 
freq.    1354.58  E(vib)   ...       0.01 
freq.    1362.94  E(vib)   ...       0.01 
freq.    1380.40  E(vib)   ...       0.01 
freq.    1426.75  E(vib)   ...       0.00 
freq.    1427.75  E(vib)   ...       0.00 
freq.    1448.89  E(vib)   ...       0.00 
freq.    1499.15  E(vib)   ...       0.00 
freq.    1502.57  E(vib)   ...       0.00 
freq.    1505.08  E(vib)   ...       0.00 
freq.    1506.82  E(vib)   ...       0.00 
freq.    1512.39  E(vib)   ...       0.00 
freq.    1561.17  E(vib)   ...       0.00 
freq.    1563.99  E(vib)   ...       0.00 
freq.    1570.55  E(vib)   ...       0.00 
freq.    1677.79  E(vib)   ...       0.00 
freq.    2803.80  E(vib)   ...       0.00 
freq.    2863.79  E(vib)   ...       0.00 
freq.    2931.23  E(vib)   ...       0.00 
freq.    2945.29  E(vib)   ...       0.00 
freq.    2967.91  E(vib)   ...       0.00 
freq.    2979.96  E(vib)   ...       0.00 
freq.    2981.44  E(vib)   ...       0.00 
freq.    2984.93  E(vib)   ...       0.00 
freq.    2996.28  E(vib)   ...       0.00 
freq.    2997.59  E(vib)   ...       0.00 
freq.    3053.82  E(vib)   ...       0.00 
freq.    3060.81  E(vib)   ...       0.00 
freq.    3066.86  E(vib)   ...       0.00 
freq.    3073.63  E(vib)   ...       0.00 
freq.    3079.49  E(vib)   ...       0.00 
freq.    3393.19  E(vib)   ...       0.00 
freq.    3419.72  E(vib)   ...       0.00 

------------
INNER ENERGY
------------

The inner energy is: U= E(el) + E(ZPE) + E(vib) + E(rot) + E(trans)
    E(el)   - is the total energy from the electronic structure calculation
              = E(kin-el) + E(nuc-el) + E(el-el) + E(nuc-nuc)
    E(ZPE)  - the the zero temperature vibrational energy from the frequency calculation
    E(vib)  - the the finite temperature correction to E(ZPE) due to population
              of excited vibrational states
    E(rot)  - is the rotational thermal energy
    E(trans)- is the translational thermal energy

Summary of contributions to the inner energy U:
Electronic energy                ...    -39.18062127 Eh
Zero point energy                ...      0.25349747 Eh     159.07 kcal/mol
Thermal vibrational correction   ...      0.01271335 Eh       7.98 kcal/mol
Thermal rotational correction    ...      0.00141627 Eh       0.89 kcal/mol
Thermal translational correction ...      0.00141627 Eh       0.89 kcal/mol
-----------------------------------------------------------------------
Total thermal energy                    -38.91157790 Eh


Summary of corrections to the electronic energy:
(perhaps to be used in another calculation)
Total thermal correction                  0.01554590 Eh       9.76 kcal/mol
Non-thermal (ZPE) correction              0.25349747 Eh     159.07 kcal/mol
-----------------------------------------------------------------------
Total correction                          0.26904337 Eh     168.83 kcal/mol


--------
ENTHALPY
--------

The enthalpy is H = U + kB*T
                kB is Boltzmann's constant
Total free energy                 ...    -38.91157790 Eh 
Thermal Enthalpy correction       ...      0.00094421 Eh       0.59 kcal/mol
-----------------------------------------------------------------------
Total Enthalpy                    ...    -38.91063369 Eh


Note: Only C1 symmetry has been detected, increase convergence thresholds 
      if your molecule has a higher symmetry. Symmetry factor of 1.0 is   
      used for the rotational entropy correction. 
 

Note: Rotational entropy computed according to Herzberg 
Infrared and Raman Spectra, Chapter V,1, Van Nostrand Reinhold, 1945 
Point Group:  C1, Symmetry Number:   1  
Rotational constants in cm-1:     0.026743     0.022284     0.015017 

Vibrational entropy computed according to the QRRHO of S. Grimme
Chem.Eur.J. 2012 18 9955


-------
ENTROPY
-------

The entropy contributions are T*S = T*(S(el)+S(vib)+S(rot)+S(trans))
     S(el)   - electronic entropy
     S(vib)  - vibrational entropy
     S(rot)  - rotational entropy
     S(trans)- translational entropy
The entropies will be listed as mutliplied by the temperature to get
units of energy

Electronic entropy                ...      0.00000000 Eh      0.00 kcal/mol
Vibrational entropy               ...      0.02327740 Eh     14.61 kcal/mol
Rotational entropy                ...      0.01499837 Eh      9.41 kcal/mol
Translational entropy             ...      0.01969790 Eh     12.36 kcal/mol
-----------------------------------------------------------------------
Final entropy term                ...      0.05797367 Eh     36.38 kcal/mol

In case the symmetry of your molecule has not been determined correctly
or in case you have a reason to use a different symmetry number we print 
out the resulting rotational entropy values for sn=1,12 :
 --------------------------------------------------------
|  sn= 1 | S(rot)=       0.01499837 Eh      9.41 kcal/mol|
|  sn= 2 | S(rot)=       0.01434392 Eh      9.00 kcal/mol|
|  sn= 3 | S(rot)=       0.01396108 Eh      8.76 kcal/mol|
|  sn= 4 | S(rot)=       0.01368946 Eh      8.59 kcal/mol|
|  sn= 5 | S(rot)=       0.01347877 Eh      8.46 kcal/mol|
|  sn= 6 | S(rot)=       0.01330663 Eh      8.35 kcal/mol|
|  sn= 7 | S(rot)=       0.01316108 Eh      8.26 kcal/mol|
|  sn= 8 | S(rot)=       0.01303500 Eh      8.18 kcal/mol|
|  sn= 9 | S(rot)=       0.01292379 Eh      8.11 kcal/mol|
|  sn=10 | S(rot)=       0.01282432 Eh      8.05 kcal/mol|
|  sn=11 | S(rot)=       0.01273433 Eh      7.99 kcal/mol|
|  sn=12 | S(rot)=       0.01265217 Eh      7.94 kcal/mol|
 --------------------------------------------------------


-------------------
GIBBS FREE ENERGY
-------------------

The Gibbs free energy is G = H - T*S

Total enthalpy                    ...    -38.91063369 Eh 
Total entropy correction          ...     -0.05797367 Eh    -36.38 kcal/mol
-----------------------------------------------------------------------
Final Gibbs free energy         ...    -38.96860736 Eh

For completeness - the Gibbs free energy minus the electronic energy
G-E(el)                           ...      0.21201391 Eh    133.04 kcal/mol


Total Time for Numerical Frequencies  :        78.328 sec
Time for Reference State(s)           :         0.203 sec
Time for Displacements                :        69.414 sec

Timings for individual modules:

Sum of individual times         ...        0.393 sec (=   0.007 min)
XTB module                      ...        0.393 sec (=   0.007 min) 100.0 %
                             ****ORCA TERMINATED NORMALLY****
TOTAL RUN TIME: 0 days 0 hours 1 minutes 19 seconds 537 msec
