
                                 *****************
                                 * O   R   C   A *
                                 *****************

           --- An Ab Initio, DFT and Semiempirical electronic structure package ---

                  #######################################################
                  #                        -***-                        #
                  #          Department of theory and spectroscopy      #
                  #               Directorship: Frank Neese             #
                  #        Max Planck Institute fuer Kohlenforschung    #
                  #                Kaiser Wilhelm Platz 1               #
                  #                 D-45470 Muelheim/Ruhr               #
                  #                      Germany                        #
                  #                                                     #
                  #                  All rights reserved                #
                  #                        -***-                        #
                  #######################################################


                         Program Version 4.2.1 -  RELEASE  -


 With contributions from (in alphabetic order):
   Daniel Aravena         : Magnetic Suceptibility
   Michael Atanasov       : Ab Initio Ligand Field Theory (pilot matlab implementation)
   Alexander A. Auer      : GIAO ZORA, VPT2
   Ute Becker             : Parallelization
   Giovanni Bistoni       : ED, misc. LED, open-shell LED, HFLD
   Martin Brehm           : Molecular dynamics
   Dmytro Bykov           : SCF Hessian
   Vijay G. Chilkuri      : MRCI spin determinant printing, contributions to CSF-ICE
   Dipayan Datta          : RHF DLPNO-CCSD density
   Achintya Kumar Dutta   : EOM-CC, STEOM-CC
   Dmitry Ganyushin       : Spin-Orbit,Spin-Spin,Magnetic field MRCI
   Miquel Garcia          : C-PCM Hessian, Gaussian charge scheme
   Yang Guo               : DLPNO-NEVPT2, CIM, IAO-localization
   Andreas Hansen         : Spin unrestricted coupled pair/coupled cluster methods
   Benjamin Helmich-Paris : CASSCF linear response (MC-RPA)
   Lee Huntington         : MR-EOM, pCC
   Robert Izsak           : Overlap fitted RIJCOSX, COSX-SCS-MP3, EOM
   Christian Kollmar      : KDIIS, OOCD, Brueckner-CCSD(T), CCSD density
   Simone Kossmann        : Meta GGA functionals, TD-DFT gradient, OOMP2, MP2 Hessian
   Martin Krupicka        : AUTO-CI
   Lucas Lang             : DCDCAS
   Dagmar Lenk            : GEPOL surface, SMD
   Dimitrios Liakos       : Extrapolation schemes; Compound Job, initial MDCI parallelization
   Dimitrios Manganas     : Further ROCIS development; embedding schemes
   Dimitrios Pantazis     : SARC Basis sets
   Taras Petrenko         : DFT Hessian,TD-DFT gradient, ASA, ECA, R-Raman, ABS, FL, XAS/XES, NRVS
   Peter Pinski           : DLPNO-MP2, DLPNO-MP2 Gradient
   Christoph Reimann      : Effective Core Potentials
   Marius Retegan         : Local ZFS, SOC
   Christoph Riplinger    : Optimizer, TS searches, QM/MM, DLPNO-CCSD(T), (RO)-DLPNO pert. Triples
   Tobias Risthaus        : Range-separated hybrids, TD-DFT gradient, RPA, STAB
   Michael Roemelt        : Original ROCIS implementation
   Masaaki Saitow         : Open-shell DLPNO-CCSD energy and density
   Barbara Sandhoefer     : DKH picture change effects
   Avijit Sen             : IP-ROCIS
   Kantharuban Sivalingam : CASSCF convergence, NEVPT2, FIC-MRCI
   Bernardo de Souza      : ESD, SOC TD-DFT
   Georgi Stoychev        : AutoAux, RI-MP2 NMR
   Willem Van den Heuvel  : Paramagnetic NMR
   Boris Wezisla          : Elementary symmetry handling
   Frank Wennmohs         : Technical directorship


 We gratefully acknowledge several colleagues who have allowed us to
 interface, adapt or use parts of their codes:
   Stefan Grimme, W. Hujo, H. Kruse,             : VdW corrections, initial TS optimization,
                  C. Bannwarth                     DFT functionals, gCP, sTDA/sTD-DF
   Ed Valeev, F. Pavosevic, A. Kumar             : LibInt (2-el integral package), F12 methods
   Garnet Chan, S. Sharma, J. Yang, R. Olivares  : DMRG
   Ulf Ekstrom                                   : XCFun DFT Library
   Mihaly Kallay                                 : mrcc  (arbitrary order and MRCC methods)
   Andreas Klamt, Michael Diedenhofen            : otool_cosmo (COSMO solvation model)
   Jiri Pittner, Ondrej Demel                    : Mk-CCSD
   Frank Weinhold                                : gennbo (NPA and NBO analysis)
   Christopher J. Cramer and Donald G. Truhlar   : smd solvation model
   Lars Goerigk                                  : TD-DFT with DH, B97 family of functionals
   V. Asgeirsson, H. Jonsson                     : NEB implementation
   FAccTs GmbH                                   : IRC, NEB, NEB-TS, Multilevel, MM, QM/MM, CI optimization
   S Lehtola, MJT Oliveira, MAL Marques          : LibXC Library


 Your calculation uses the libint2 library for the computation of 2-el integrals
 For citations please refer to: http://libint.valeyev.net

 Your ORCA version has been built with support for libXC version: 4.2.3
 For citations please refer to: https://tddft.org/programs/libxc/

 This ORCA versions uses:
   CBLAS   interface :  Fast vector & matrix operations
   LAPACKE interface :  Fast linear algebra routines
   SCALAPACK package :  Parallel linear algebra routines


----- Orbital basis set information -----
Your calculation utilizes the basis: ma-def2-TZVPP
   F. Weigend and R. Ahlrichs, Phys. Chem. Chem. Phys. 7, 3297 (2005).
   J. Zheng, X. Xu and D. G. Truhlar, Theor. Chem. Acc. 128, 295 (2011).

================================================================================
                                        WARNINGS
                       Please study these warnings very carefully!
================================================================================


WARNING: Geometry Optimization
  ===> : Switching off AutoStart
         For restart on a previous wavefunction, please use MOREAD

WARNING: Post HF methods need fully converged wavefunctions
  ===> : Setting SCFConvForced true
         You can overwrite this default with %scf ConvForced false 


INFO   : the flag for use of LIBINT has been found!

================================================================================
                                       INPUT FILE
================================================================================
NAME = NH3‡.inp
|  1> ! MP2 ma-def2-TZVPP OptTS Freq IRC NoFrozenCore TightOpt TightSCF Grid4 FinalGrid5 PrintBasis PrintMOs NBO
|  2> 
|  3> %geom
|  4>  ts_mode
|  5>   {D 1 2 3 0}
|  6>  end
|  7>  ts_active_atoms
|  8>   {0 1 2 3}
|  9>  end
| 10>  inhess read
| 11>  inhessname "freq.hess"
| 12> end
| 13> 
| 14> %irc
| 15>  maxiter 1000
| 16>  de_init_displ 0.25
| 17>  TolMAXG 1e-3
| 18>  TolRMSG 2e-4
| 19> end
| 20> 
| 21> %pal
| 22>  nprocs 12
| 23> end
| 24> 
| 25> *xyz 0 1
| 26>   N   -0.00000000025981     -0.00000000000065      0.00000000575908
| 27>   H   0.99697797401896      0.00000000000010     -0.00000000191962
| 28>   H   -0.49848898687966      0.86340825280985     -0.00000000191974
| 29>   H   -0.49848898687945     -0.86340825280933     -0.00000000191974
| 30> *
| 31> 
| 32>                          ****END OF INPUT****
================================================================================

                       *****************************
                       * Geometry Optimization Run *
                       *****************************

Geometry optimization settings:
Update method            Update   .... Bofill
Choice of coordinates    CoordSys .... Z-matrix Internals
Initial Hessian          InHess   .... Read

Convergence Tolerances:
Energy Change            TolE     ....  1.0000e-06 Eh
Max. Gradient            TolMAXG  ....  1.0000e-04 Eh/bohr
RMS Gradient             TolRMSG  ....  3.0000e-05 Eh/bohr
Max. Displacement        TolMAXD  ....  1.0000e-03 bohr
RMS Displacement         TolRMSD  ....  6.0000e-04 bohr
Strict Convergence                ....  False
------------------------------------------------------------------------------
                        ORCA OPTIMIZATION COORDINATE SETUP
------------------------------------------------------------------------------

The optimization will be done in new redundant internal coordinates
Making redundant internal coordinates   ...  (new redundants) done
Following TS mode number                ...    internal coordinate number:  7
TS-active-atoms for coordinate setup... 0 1 2 3 
Evaluating the initial hessian          ... (Reading Exact Hessian)...  
InHessName: freq.hess	The file <freq.hess> is opened as a .hess file
done
done
Diagonalizing the Hessian               .... done
Dimension of the hessian                .... 8
Lowest eigenvalues of the non projected Hessian:
 -0.016921215 -0.000000000  0.000000000  0.103800295  0.103801270
done
Evaluating the coordinates              ...  done
Calculating the B-matrix                .... done
Calculating the G-matrix                .... done
Diagonalizing the G-matrix              .... done
The first mode is                       ....    2
The number of degrees of freedom        ....    6

    -----------------------------------------------------------------
                    Redundant Internal Coordinates


    -----------------------------------------------------------------
         Definition                    Initial Value    d2E/dq (diagonal element)
    -----------------------------------------------------------------
      1. B(H   1,N   0)                  0.9970         0.510589   
      2. B(H   2,N   0)                  0.9970         0.510581   
      3. B(H   3,N   0)                  0.9970         0.510581   
      4. A(H   1,N   0,H   3)          120.0000         0.069710   
      5. A(H   2,N   0,H   3)          120.0000         0.069710   
      6. A(H   1,N   0,H   2)          120.0000         0.069710   
      7. D(N   0,H   3,H   2,H   1)      0.0000        -0.005207   
      8. I(H   1,H   3,H   2,N   0)      0.0000        -0.011715   
    -----------------------------------------------------------------

Number of atoms                         .... 4
Number of degrees of freedom            .... 8

         *************************************************************
         *                GEOMETRY OPTIMIZATION CYCLE   1            *
         *************************************************************
---------------------------------
CARTESIAN COORDINATES (ANGSTROEM)
---------------------------------
  N     -0.000000   -0.000000    0.000000
  H      0.996978    0.000000   -0.000000
  H     -0.498489    0.863408   -0.000000
  H     -0.498489   -0.863408   -0.000000

----------------------------
CARTESIAN COORDINATES (A.U.)
----------------------------
  NO LB      ZA    FRAG     MASS         X           Y           Z
   0 N     7.0000    0    14.007   -0.000000   -0.000000    0.000000
   1 H     1.0000    0     1.008    1.884015    0.000000   -0.000000
   2 H     1.0000    0     1.008   -0.942008    1.631605   -0.000000
   3 H     1.0000    0     1.008   -0.942008   -1.631605   -0.000000

--------------------------------
INTERNAL COORDINATES (ANGSTROEM)
--------------------------------
 N      0   0   0     0.000000000000     0.00000000     0.00000000
 H      1   0   0     0.996977974279     0.00000000     0.00000000
 H      1   2   0     0.996977974081   119.99999997     0.00000000
 H      1   2   3     0.996977974079   119.99999997   179.99999809

---------------------------
INTERNAL COORDINATES (A.U.)
---------------------------
 N      0   0   0     0.000000000000     0.00000000     0.00000000
 H      1   0   0     1.884015332938     0.00000000     0.00000000
 H      1   2   0     1.884015332565   119.99999997     0.00000000
 H      1   2   3     1.884015332561   119.99999997   179.99999809

---------------------
BASIS SET INFORMATION
---------------------
There are 2 groups of distinct atoms

 Group   1 Type N   : 12s7p2d1f contracted to 6s4p2d1f pattern {621111/4111/11/1}
 Group   2 Type H   : 5s2p1d contracted to 3s2p1d pattern {311/11/1}

Atom   0N    basis set group =>   1
Atom   1H    basis set group =>   2
Atom   2H    basis set group =>   2
Atom   3H    basis set group =>   2

-------------------------
BASIS SET IN INPUT FORMAT
-------------------------

 # Basis set for element : H 
 NewGTO H 
 S 3 
   1      34.0613410000      0.0254393072
   2       5.1235746000      0.1900859489
   3       1.1646626000      0.8524411301
 S 1 
   1       0.3272304100      1.0000000000
 S 1 
   1       0.1030724100      1.0000000000
 P 1 
   1       1.4070000000      1.0000000000
 P 1 
   1       0.3880000000      1.0000000000
 D 1 
   1       1.0570000000      1.0000000000
  end;

 # Basis set for element : N 
 NewGTO N 
 S 6 
   1   19730.8006470000      0.0005862639
   2    2957.8958745000      0.0045428821
   3     673.2213359500      0.0235584136
   4     190.6824949400      0.0947091933
   5      62.2954418980      0.2971978492
   6      22.6541611820      0.6691624689
 S 2 
   1       8.9791477428      0.6459668363
   2       3.6863002370      0.3870057440
 S 1 
   1       0.8466007680      1.0000000000
 S 1 
   1       0.3364713377      1.0000000000
 S 1 
   1       0.1364765367      1.0000000000
 P 4 
   1      49.2003805100      0.0114488252
   2      11.3467905370      0.0784223379
   3       3.4273972411      0.3081809474
   4       1.1785525134      0.7202719637
 P 1 
   1       0.4164220497      1.0000000000
 P 1 
   1       0.1426082601      1.0000000000
 D 1 
   1       1.6540000000      1.0000000000
 D 1 
   1       0.4690000000      1.0000000000
 F 1 
   1       1.0930000000      1.0000000000
 S 1 
   1       0.0454921789      1.0000000000
 P 1 
   1       0.0475360867      1.0000000000
  end;



           ************************************************************
           *        Program running with 12 parallel MPI-processes    *
           *              working on a common directory               *
           ************************************************************
------------------------------------------------------------------------------
                           ORCA GTO INTEGRAL CALCULATION
------------------------------------------------------------------------------

                         BASIS SET STATISTICS AND STARTUP INFO

 # of primitive gaussian shells          ...   46
 # of primitive gaussian functions       ...   98
 # of contracted shells                  ...   31
 # of contracted basis functions         ...   77
 Highest angular momentum                ...    3
 Maximum contraction depth               ...    6
 Integral package used                   ... LIBINT
 Integral threshhold            Thresh   ...  2.500e-11
 Primitive cut-off              TCut     ...  2.500e-12


------------------------------ INTEGRAL EVALUATION ----------------------------


 * One electron integrals 
 Pre-screening matrix                    ... done
 Shell pair data                         ... done (   0.000 sec)



           ************************************************************
           *        Program running with 12 parallel MPI-processes    *
           *              working on a common directory               *
           ************************************************************
-------------------------------------------------------------------------------
                                 ORCA SCF
-------------------------------------------------------------------------------

------------
SCF SETTINGS
------------
Hamiltonian:
 Ab initio Hamiltonian  Method          .... Hartree-Fock(GTOs)


General Settings:
 Integral files         IntName         .... NH3‡
 Hartree-Fock type      HFTyp           .... RHF
 Total Charge           Charge          ....    0
 Multiplicity           Mult            ....    1
 Number of Electrons    NEL             ....   10
 Basis Dimension        Dim             ....   77
 Nuclear Repulsion      ENuc            ....     12.0657461822 Eh

Convergence Acceleration:
 DIIS                   CNVDIIS         .... on
   Start iteration      DIISMaxIt       ....    12
   Startup error        DIISStart       ....  0.200000
   # of expansion vecs  DIISMaxEq       ....     5
   Bias factor          DIISBfac        ....   1.050
   Max. coefficient     DIISMaxC        ....  10.000
 Newton-Raphson         CNVNR           .... off
 SOSCF                  CNVSOSCF        .... on
   Start iteration      SOSCFMaxIt      ....   150
   Startup grad/error   SOSCFStart      ....  0.003300
 Level Shifting         CNVShift        .... on
   Level shift para.    LevelShift      ....    0.2500
   Turn off err/grad.   ShiftErr        ....    0.0010
 Zerner damping         CNVZerner       .... off
 Static damping         CNVDamp         .... on
   Fraction old density DampFac         ....    0.7000
   Max. Damping (<1)    DampMax         ....    0.9800
   Min. Damping (>=0)   DampMin         ....    0.0000
   Turn off err/grad.   DampErr         ....    0.1000
 Fernandez-Rico         CNVRico         .... off

SCF Procedure:
 Maximum # iterations   MaxIter         ....   125
 SCF integral mode      SCFMode         .... Direct
   Integral package                     .... LIBINT
 Reset frequency        DirectResetFreq ....    20
 Integral Threshold     Thresh          ....  2.500e-11 Eh
 Primitive CutOff       TCut            ....  2.500e-12 Eh

Convergence Tolerance:
 Convergence Check Mode ConvCheckMode   .... Total+1el-Energy
 Convergence forced     ConvForced      .... 1
 Energy Change          TolE            ....  1.000e-08 Eh
 1-El. energy change                    ....  1.000e-05 Eh
 Orbital Gradient       TolG            ....  1.000e-05
 Orbital Rotation angle TolX            ....  1.000e-05
 DIIS Error             TolErr          ....  5.000e-07


Diagonalization of the overlap matrix:
Smallest eigenvalue                        ... 8.075e-04
Time for diagonalization                   ...    0.003 sec
Threshold for overlap eigenvalues          ... 1.000e-08
Number of eigenvalues below threshold      ... 0
Time for construction of square roots      ...    0.008 sec
Total time needed                          ...    0.011 sec

-------------------
DFT GRID GENERATION
-------------------

General Integration Accuracy     IntAcc      ...  4.670
Radial Grid Type                 RadialGrid  ... Gauss-Chebyshev
Angular Grid (max. acc.)         AngularGrid ... Lebedev-302
Angular grid pruning method      GridPruning ... 3 (G Style)
Weight generation scheme         WeightScheme... Becke
Basis function cutoff            BFCut       ...    1.0000e-11
Integration weight cutoff        WCut        ...    1.0000e-14
Grids for H and He will be reduced by one unit

# of grid points (after initial pruning)     ...  16394 (   0.0 sec)
# of grid points (after weights+screening)   ...  16135 (   0.0 sec)
nearest neighbour list constructed           ...    0.0 sec
Grid point re-assignment to atoms done       ...    0.0 sec
Grid point division into batches done        ...    0.1 sec
Reduced shell lists constructed in    0.1 sec

Total number of grid points                  ...    16135
Total number of batches                      ...      254
Average number of points per batch           ...       63
Average number of grid points per atom       ...     4034
Average number of shells per batch           ...    29.13 (93.97%)
Average number of basis functions per batch  ...    73.13 (94.97%)
Average number of large shells per batch     ...    28.35 (97.31%)
Average number of large basis fcns per batch ...    71.83 (98.22%)
Maximum spatial batch extension              ...   2.67,  2.57, 15.64 au
Average spatial batch extension              ...   0.11,  0.12,  0.22 au

Time for grid setup =    0.286 sec

------------------------------
INITIAL GUESS: MODEL POTENTIAL
------------------------------
Loading Hartree-Fock densities                     ... done
Calculating cut-offs                               ... done
Setting up the integral package                    ... done
Initializing the effective Hamiltonian             ... done
Starting the Coulomb interaction                   ... done (   0.0 sec)
Reading the grid                                   ... done
Mapping shells                                     ... done
Starting the XC term evaluation                    ... done (   0.0 sec)
Transforming the Hamiltonian                       ... done (   0.0 sec)
Diagonalizing the Hamiltonian                      ... done (   0.0 sec)
Back transforming the eigenvectors                 ... done (   0.0 sec)
Now organizing SCF variables                       ... done
                      ------------------
                      INITIAL GUESS DONE (   0.5 sec)
                      ------------------
--------------
SCF ITERATIONS
--------------
ITER       Energy         Delta-E        Max-DP      RMS-DP      [F,P]     Damp
               ***  Starting incremental Fock matrix formation  ***
  0    -56.0655391384   0.000000000000 0.05456736  0.00155129  0.3823082 0.7000
  1    -56.1241264583  -0.058587319957 0.03813551  0.00111066  0.2322964 0.7000
                               ***Turning on DIIS***
  2    -56.1557666467  -0.031640188349 0.02199039  0.00064226  0.1419182 0.7000
  3    -56.3598669490  -0.204100302370 0.00913703  0.00028911  0.1077016 0.7000
  4    -56.3215407218   0.038326227261 0.01708543  0.00058911  0.0769836 0.0000
  5    -56.2114348989   0.110105822871 0.00115617  0.00005716  0.0033780 0.0000
                      *** Initiating the SOSCF procedure ***
                           *** Shutting down DIIS ***
                      *** Re-Reading the Fockian *** 
                      *** Removing any level shift *** 
ITER      Energy       Delta-E        Grad      Rot      Max-DP    RMS-DP
  6    -56.21368763  -0.0022527295  0.000675  0.000675  0.000689  0.000034
               *** Restarting incremental Fock matrix formation ***
  7    -56.21445490  -0.0007672681  0.000197  0.000375  0.000315  0.000015
  8    -56.21445543  -0.0000005294  0.000086  0.000231  0.000202  0.000011
  9    -56.21445553  -0.0000001071  0.000039  0.000032  0.000046  0.000002
 10    -56.21445554  -0.0000000071  0.000007  0.000006  0.000007  0.000000
                  ***Gradient check signals convergence***
              ***Rediagonalizing the Fockian in SOSCF/NRSCF***

               *****************************************************
               *                     SUCCESS                       *
               *           SCF CONVERGED AFTER  11 CYCLES          *
               *****************************************************


----------------
TOTAL SCF ENERGY
----------------

Total Energy       :          -56.21445554 Eh           -1529.67310 eV

Components:
Nuclear Repulsion  :           12.06574618 Eh             328.32565 eV
Electronic Energy  :          -68.28020172 Eh           -1857.99875 eV
One Electron Energy:          -99.86324508 Eh           -2717.41705 eV
Two Electron Energy:           31.58304336 Eh             859.41830 eV

Virial components:
Potential Energy   :         -112.34470022 Eh           -3057.05471 eV
Kinetic Energy     :           56.13024468 Eh            1527.38161 eV
Virial Ratio       :            2.00150028


---------------
SCF CONVERGENCE
---------------

  Last Energy change         ...   -5.0530e-10  Tolerance :   1.0000e-08
  Last MAX-Density change    ...    3.9731e-06  Tolerance :   1.0000e-07
  Last RMS-Density change    ...    1.4397e-07  Tolerance :   5.0000e-09
  Last Orbital Gradient      ...    1.7448e-06  Tolerance :   1.0000e-05
  Last Orbital Rotation      ...    2.6297e-06  Tolerance :   1.0000e-05

             **** THE GBW FILE WAS UPDATED (NH3‡.gbw) ****
             **** DENSITY FILE WAS UPDATED (NH3‡.scfp) ****
             **** ENERGY FILE WAS UPDATED (NH3‡.en.tmp) ****
             **** THE GBW FILE WAS UPDATED (NH3‡.gbw) ****
             **** DENSITY FILE WAS UPDATED (NH3‡.scfp) ****
----------------
ORBITAL ENERGIES
----------------

  NO   OCC          E(Eh)            E(eV) 
   0   2.0000     -15.525680      -422.4752 
   1   2.0000      -1.126553       -30.6551 
   2   2.0000      -0.652562       -17.7571 
   3   2.0000      -0.652562       -17.7571 
   4   2.0000      -0.391215       -10.6455 
   5   0.0000       0.076388         2.0786 
   6   0.0000       0.108584         2.9547 
   7   0.0000       0.108584         2.9547 
   8   0.0000       0.135906         3.6982 
   9   0.0000       0.254835         6.9344 
  10   0.0000       0.269810         7.3419 
  11   0.0000       0.269810         7.3419 
  12   0.0000       0.528144        14.3715 
  13   0.0000       0.528144        14.3715 
  14   0.0000       0.586096        15.9485 
  15   0.0000       0.656910        17.8754 
  16   0.0000       0.700739        19.0681 
  17   0.0000       0.715791        19.4777 
  18   0.0000       0.715791        19.4777 
  19   0.0000       0.825061        22.4511 
  20   0.0000       0.825061        22.4511 
  21   0.0000       1.087556        29.5939 
  22   0.0000       1.187081        32.3021 
  23   0.0000       1.187081        32.3021 
  24   0.0000       1.235297        33.6142 
  25   0.0000       1.262270        34.3481 
  26   0.0000       1.556360        42.3507 
  27   0.0000       1.556360        42.3507 
  28   0.0000       1.647042        44.8183 
  29   0.0000       1.647042        44.8183 
  30   0.0000       1.723108        46.8882 
  31   0.0000       1.723108        46.8882 
  32   0.0000       1.808571        49.2137 
  33   0.0000       2.396341        65.2077 
  34   0.0000       2.569238        69.9125 
  35   0.0000       2.735900        74.4476 
  36   0.0000       2.735900        74.4476 
  37   0.0000       2.830985        77.0350 
  38   0.0000       3.258634        88.6719 
  39   0.0000       3.258634        88.6719 
  40   0.0000       3.329325        90.5955 
  41   0.0000       3.329325        90.5955 
  42   0.0000       3.544033        96.4380 
  43   0.0000       3.585052        97.5542 
  44   0.0000       3.607495        98.1649 
  45   0.0000       3.607495        98.1649 
  46   0.0000       3.751013       102.0702 
  47   0.0000       3.900023       106.1250 
  48   0.0000       3.945577       107.3646 
  49   0.0000       3.945577       107.3646 
  50   0.0000       4.113680       111.9389 
  51   0.0000       4.113680       111.9389 
  52   0.0000       4.306276       117.1797 
  53   0.0000       4.308356       117.2363 
  54   0.0000       4.407318       119.9292 
  55   0.0000       4.436327       120.7186 
  56   0.0000       4.436327       120.7186 
  57   0.0000       4.518911       122.9658 
  58   0.0000       4.518911       122.9658 
  59   0.0000       4.651547       126.5750 
  60   0.0000       4.651547       126.5750 
  61   0.0000       4.842162       131.7619 
  62   0.0000       5.143778       139.9693 
  63   0.0000       5.143778       139.9693 
  64   0.0000       5.587377       152.0403 
  65   0.0000       5.587377       152.0403 
  66   0.0000       5.889934       160.2733 
  67   0.0000       6.086257       165.6155 
  68   0.0000       6.087113       165.6388 
  69   0.0000       6.087113       165.6388 
  70   0.0000       6.185180       168.3073 
  71   0.0000       6.185180       168.3073 
  72   0.0000       6.737571       183.3386 
  73   0.0000       6.737571       183.3386 
  74   0.0000       7.201371       195.9593 
  75   0.0000       7.298419       198.6001 
  76   0.0000      34.053816       926.6514 
------------------
MOLECULAR ORBITALS
------------------
                      0         1         2         3         4         5   
                 -15.52568  -1.12655  -0.65256  -0.65256  -0.39121   0.07639
                   2.00000   2.00000   2.00000   2.00000   2.00000   0.00000
                  --------  --------  --------  --------  --------  --------
  0N   1s         0.448899  0.093712 -0.000000  0.000000  0.000000 -0.023200
  0N   2s         0.630005  0.218338 -0.000000  0.000000  0.000000 -0.057410
  0N   3s         0.021351 -0.318140  0.000000 -0.000000 -0.000000  0.072808
  0N   4s        -0.010816 -0.398943  0.000000 -0.000000 -0.000000  0.319129
  0N   5s         0.003529 -0.131493 -0.000000  0.000000 -0.000000  0.648379
  0N   1pz       -0.000000  0.000000 -0.000000  0.000000 -0.414630 -0.000000
  0N   1px        0.000000 -0.000000 -0.000284  0.333856  0.000000  0.000000
  0N   1py        0.000000  0.000000 -0.333856 -0.000284 -0.000000  0.000000
  0N   2pz        0.000000  0.000000 -0.000000  0.000000 -0.385037 -0.000000
  0N   2px       -0.000000 -0.000000 -0.000224  0.263959  0.000000  0.000000
  0N   2py       -0.000000 -0.000000 -0.263959 -0.000224 -0.000000 -0.000000
  0N   3pz       -0.000000  0.000000 -0.000000  0.000000 -0.313271 -0.000000
  0N   3px       -0.000000 -0.000000 -0.000094  0.110112  0.000000  0.000000
  0N   3py       -0.000000  0.000000 -0.110112 -0.000094 -0.000000 -0.000000
  0N   1dz2      -0.000251  0.006853 -0.000000  0.000000  0.000000 -0.000658
  0N   1dxz      -0.000000 -0.000000  0.000000 -0.000000 -0.000000  0.000000
  0N   1dyz       0.000000 -0.000000  0.000000  0.000000  0.000000  0.000000
  0N   1dx2y2    -0.000000 -0.000000 -0.000010  0.011759 -0.000000  0.000000
  0N   1dxy      -0.000000 -0.000000  0.011759  0.000010 -0.000000  0.000000
  0N   2dz2       0.000496  0.010710 -0.000000  0.000000  0.000000 -0.066259
  0N   2dxz      -0.000000 -0.000000  0.000000 -0.000000 -0.000000  0.000000
  0N   2dyz      -0.000000 -0.000000  0.000000  0.000000  0.000000  0.000000
  0N   2dx2y2     0.000000 -0.000000 -0.000010  0.012225  0.000000 -0.000000
  0N   2dxy       0.000000  0.000000  0.012225  0.000010  0.000000  0.000000
  0N   1f0        0.000000 -0.000000 -0.000000 -0.000000  0.005452  0.000000
  0N   1f+1       0.000000 -0.000000  0.000003 -0.003644 -0.000000 -0.000000
  0N   1f-1       0.000000  0.000000  0.003644  0.000003  0.000000  0.000000
  0N   1f+2      -0.000000 -0.000000  0.000000 -0.000000 -0.000000  0.000000
  0N   1f-2       0.000000  0.000000 -0.000000 -0.000000 -0.000000 -0.000000
  0N   1f+3      -0.000467  0.002629 -0.000000  0.000000 -0.000000 -0.012537
  0N   1f-3      -0.000000  0.000000  0.000000  0.000000 -0.000000  0.000000
  0N   6s         0.000090 -0.007576 -0.000000  0.000000  0.000000 -2.163434
  0N   4pz       -0.000000  0.000000  0.000000 -0.000000 -0.058508  0.000000
  0N   4px       -0.000000  0.000000 -0.000002  0.002169  0.000000 -0.000000
  0N   4py        0.000000 -0.000000 -0.002169 -0.000002  0.000000  0.000000
  1H   1s        -0.000031 -0.087607 -0.000145  0.170433  0.000000  0.008485
  1H   2s         0.001479 -0.083120 -0.000211  0.248273  0.000000 -0.261179
  1H   3s        -0.000626 -0.001142 -0.000060  0.070079  0.000000  0.446902
  1H   1pz       -0.000000 -0.000000 -0.000000  0.000000 -0.010111 -0.000000
  1H   1px        0.000288  0.012355  0.000015 -0.018087 -0.000000  0.003089
  1H   1py       -0.000000  0.000000 -0.005777 -0.000005 -0.000000 -0.000000
  1H   2pz        0.000000  0.000000 -0.000000  0.000000 -0.029427 -0.000000
  1H   2px       -0.000725  0.007830  0.000018 -0.021107 -0.000000  0.058009
  1H   2py       -0.000000 -0.000000 -0.011856 -0.000010  0.000000 -0.000000
  1H   1dz2      -0.000001  0.000969  0.000003 -0.003008 -0.000000  0.005344
  1H   1dxz       0.000000  0.000000  0.000000 -0.000000  0.004808  0.000000
  1H   1dyz       0.000000 -0.000000 -0.000000 -0.000000  0.000000  0.000000
  1H   1dx2y2    -0.000118 -0.002447 -0.000003  0.003971  0.000000 -0.004463
  1H   1dxy      -0.000000 -0.000000  0.002365  0.000002  0.000000  0.000000
  2H   1s        -0.000031 -0.087607 -0.147527 -0.085342  0.000000  0.008485
  2H   2s         0.001479 -0.083120 -0.214905 -0.124319  0.000000 -0.261179
  2H   3s        -0.000626 -0.001142 -0.060661 -0.035091  0.000000  0.446902
  2H   1pz       -0.000000 -0.000000 -0.000000 -0.000000 -0.010111 -0.000000
  2H   1px       -0.000144 -0.006177 -0.010333 -0.000198  0.000000 -0.001545
  2H   1py        0.000250  0.010700  0.012113  0.010344 -0.000000  0.002675
  2H   2pz        0.000000  0.000000 -0.000000 -0.000000 -0.029427 -0.000000
  2H   2px        0.000363 -0.003915 -0.014276  0.003603  0.000000 -0.029004
  2H   2py       -0.000628  0.006781  0.012854  0.014284 -0.000000  0.050237
  2H   1dz2      -0.000001  0.000969  0.002603  0.001506 -0.000000  0.005344
  2H   1dxz      -0.000000 -0.000000 -0.000000 -0.000000 -0.002404 -0.000000
  2H   1dyz       0.000000  0.000000  0.000000  0.000000  0.004164  0.000000
  2H   1dx2y2     0.000059  0.001224  0.000693  0.002767 -0.000000  0.002232
  2H   1dxy       0.000102  0.002120  0.003569  0.000698 -0.000000  0.003865
  3H   1s        -0.000031 -0.087607  0.147672 -0.085091  0.000000  0.008485
  3H   2s         0.001479 -0.083120  0.215116 -0.123954  0.000000 -0.261179
  3H   3s        -0.000626 -0.001142  0.060720 -0.034988  0.000000  0.446902
  3H   1pz       -0.000000 -0.000000  0.000000 -0.000000 -0.010111 -0.000000
  3H   1px       -0.000144 -0.006177  0.010334 -0.000181  0.000000 -0.001545
  3H   1py       -0.000250 -0.010700  0.012130 -0.010323  0.000000 -0.002675
  3H   2pz        0.000000  0.000000  0.000000 -0.000000 -0.029427 -0.000000
  3H   2px        0.000363 -0.003915  0.014270  0.003627  0.000000 -0.029004
  3H   2py        0.000628 -0.006781  0.012878 -0.014262  0.000000 -0.050237
  3H   1dz2      -0.000001  0.000969 -0.002606  0.001502 -0.000000  0.005344
  3H   1dxz      -0.000000 -0.000000  0.000000 -0.000000 -0.002404 -0.000000
  3H   1dyz      -0.000000 -0.000000  0.000000 -0.000000 -0.004164 -0.000000
  3H   1dx2y2     0.000059  0.001224 -0.000698  0.002766 -0.000000  0.002232
  3H   1dxy      -0.000102 -0.002120  0.003570 -0.000692  0.000000 -0.003865
                      6         7         8         9        10        11   
                   0.10858   0.10858   0.13591   0.25484   0.26981   0.26981
                   0.00000   0.00000   0.00000   0.00000   0.00000   0.00000
                  --------  --------  --------  --------  --------  --------
  0N   1s         0.000000  0.000000 -0.000000  0.035158 -0.000000  0.000000
  0N   2s         0.000000  0.000000 -0.000000  0.088583 -0.000000  0.000000
  0N   3s        -0.000000 -0.000000  0.000000 -0.204185  0.000000  0.000000
  0N   4s         0.000000 -0.000000 -0.000000  0.045492 -0.000000 -0.000000
  0N   5s        -0.000000 -0.000000  0.000000 -3.771208  0.000000 -0.000000
  0N   1pz        0.000000 -0.000000  0.134272  0.000000 -0.000000  0.000000
  0N   1px        0.000068  0.072023 -0.000000 -0.000000 -0.154391 -0.000129
  0N   1py       -0.072023  0.000068 -0.000000  0.000000  0.000129 -0.154391
  0N   2pz        0.000000  0.000000  0.023533  0.000000 -0.000000  0.000000
  0N   2px        0.000176  0.186600 -0.000000 -0.000000 -0.303403 -0.000254
  0N   2py       -0.186600  0.000176 -0.000000  0.000000  0.000254 -0.303403
  0N   3pz       -0.000000  0.000000  0.614103  0.000000 -0.000000  0.000000
  0N   3px        0.000277  0.293765 -0.000000 -0.000000 -1.921320 -0.001611
  0N   3py       -0.293765  0.000277  0.000000  0.000000  0.001611 -1.921320
  0N   1dz2       0.000000  0.000000  0.000000 -0.012359  0.000000 -0.000000
  0N   1dxz      -0.000000 -0.000000  0.000000  0.000000 -0.000000 -0.000000
  0N   1dyz       0.000000 -0.000000 -0.000000 -0.000000  0.000000 -0.000000
  0N   1dx2y2     0.000001  0.000591  0.000000  0.000000  0.009752  0.000008
  0N   1dxy       0.000591 -0.000001  0.000000  0.000000  0.000008 -0.009752
  0N   2dz2       0.000000  0.000000  0.000000  0.019570  0.000000  0.000000
  0N   2dxz      -0.000000 -0.000000  0.000000 -0.000000  0.000000  0.000000
  0N   2dyz       0.000000 -0.000000 -0.000000 -0.000000 -0.000000  0.000000
  0N   2dx2y2     0.000084  0.088783 -0.000000 -0.000000 -0.047100 -0.000039
  0N   2dxy       0.088783 -0.000084  0.000000 -0.000000 -0.000039  0.047100
  0N   1f0       -0.000000 -0.000000 -0.001797  0.000000  0.000000 -0.000000
  0N   1f+1      -0.000008 -0.008185  0.000000  0.000000  0.006088  0.000005
  0N   1f-1       0.008185 -0.000008  0.000000 -0.000000 -0.000005  0.006088
  0N   1f+2      -0.000000 -0.000000  0.000000  0.000000  0.000000  0.000000
  0N   1f-2      -0.000000  0.000000 -0.000000  0.000000  0.000000 -0.000000
  0N   1f+3       0.000000 -0.000000  0.000000 -0.007589  0.000000  0.000000
  0N   1f-3      -0.000000  0.000000  0.000000 -0.000000 -0.000000  0.000000
  0N   6s         0.000000  0.000000 -0.000000 -3.000411  0.000000 -0.000000
  0N   4pz        0.000000 -0.000000 -1.302204  0.000000 -0.000000 -0.000000
  0N   4px       -0.001503 -1.595770  0.000000 -0.000000 -1.113855 -0.000934
  0N   4py        1.595770 -0.001503  0.000000  0.000000  0.000934 -1.113855
  1H   1s         0.000028  0.030003 -0.000000  0.044949  0.030505  0.000026
  1H   2s        -0.000284 -0.301625  0.000000  0.093467  0.363507  0.000305
  1H   3s         0.000817  0.867280 -0.000000  2.550788  3.820876  0.003203
  1H   1pz       -0.000000 -0.000000  0.005858  0.000000 -0.000000 -0.000000
  1H   1px        0.000008  0.008613 -0.000000  0.021389  0.022086  0.000019
  1H   1py       -0.002609  0.000002 -0.000000  0.000000  0.000018 -0.020954
  1H   2pz       -0.000000 -0.000000 -0.021963 -0.000000  0.000000  0.000000
  1H   2px        0.000052  0.055005 -0.000000 -0.082507 -0.232105 -0.000195
  1H   2py        0.002679 -0.000003 -0.000000  0.000000 -0.000068  0.080527
  1H   1dz2       0.000001  0.001512  0.000000 -0.002453 -0.006526 -0.000005
  1H   1dxz       0.000000  0.000000 -0.003542 -0.000000  0.000000  0.000000
  1H   1dyz      -0.000000  0.000000 -0.000000 -0.000000  0.000000 -0.000000
  1H   1dx2y2    -0.000006 -0.006738  0.000000 -0.000931  0.012236  0.000010
  1H   1dxy       0.005109 -0.000005  0.000000  0.000000  0.000001 -0.001414
  2H   1s        -0.025998 -0.014977 -0.000000  0.044949 -0.015275  0.026405
  2H   2s         0.261357  0.150566  0.000000  0.093467 -0.182018  0.314654
  2H   3s        -0.751495 -0.432933 -0.000000  2.550788 -1.913212  3.307374
  2H   1pz        0.000000  0.000000  0.005858  0.000000  0.000000 -0.000000
  2H   1px        0.002604  0.004107  0.000000 -0.010695 -0.010179 -0.018645
  2H   1py       -0.007114 -0.002593 -0.000000  0.018524 -0.018646  0.011310
  2H   2pz        0.000000  0.000000 -0.021963 -0.000000 -0.000000  0.000000
  2H   2px        0.024989  0.011719  0.000000  0.041253  0.002255  0.135375
  2H   2py       -0.040608 -0.024940 -0.000000 -0.071453  0.135503 -0.153833
  2H   1dz2      -0.001310 -0.000755  0.000000 -0.002453  0.003268 -0.005649
  2H   1dxz      -0.000000  0.000000  0.001771  0.000000 -0.000000 -0.000000
  2H   1dyz      -0.000000  0.000000 -0.003068 -0.000000 -0.000000  0.000000
  2H   1dx2y2    -0.005128  0.002152 -0.000000  0.000466  0.004124 -0.004683
  2H   1dxy      -0.003781 -0.005126 -0.000000  0.000807  0.004694 -0.009527
  3H   1s         0.025970 -0.015026 -0.000000  0.044949 -0.015230 -0.026431
  3H   2s        -0.261073  0.151058  0.000000  0.093467 -0.181490 -0.314959
  3H   3s         0.750678 -0.434347 -0.000000  2.550788 -1.907664 -3.310577
  3H   1pz       -0.000000  0.000000  0.005858  0.000000  0.000000  0.000000
  3H   1px       -0.002596  0.004112  0.000000 -0.010695 -0.010210  0.018628
  3H   1py       -0.007109  0.002607  0.000000 -0.018524  0.018627  0.011341
  3H   2pz       -0.000000  0.000000 -0.021963 -0.000000 -0.000000 -0.000000
  3H   2px       -0.024967  0.011766  0.000000  0.041253  0.002482 -0.135371
  3H   2py       -0.040561  0.025016  0.000000  0.071453 -0.135244 -0.154060
  3H   1dz2       0.001309 -0.000757  0.000000 -0.002453  0.003258  0.005655
  3H   1dxz       0.000000  0.000000  0.001771  0.000000 -0.000000  0.000000
  3H   1dyz      -0.000000 -0.000000  0.003068  0.000000  0.000000  0.000000
  3H   1dx2y2     0.005132  0.002142 -0.000000  0.000466  0.004116  0.004690
  3H   1dxy      -0.003771  0.005133  0.000000 -0.000807 -0.004678 -0.009535
                     12        13        14        15        16        17   
                   0.52814   0.52814   0.58610   0.65691   0.70074   0.71579
                   0.00000   0.00000   0.00000   0.00000   0.00000   0.00000
                  --------  --------  --------  --------  --------  --------
  0N   1s        -0.000000 -0.000000  0.035172 -0.000000 -0.051821  0.000000
  0N   2s        -0.000000  0.000000  0.070142 -0.000000 -0.118839  0.000000
  0N   3s         0.000000  0.000000 -0.143987 -0.000000  0.088158 -0.000000
  0N   4s        -0.000000 -0.000000  0.308070  0.000000  0.609487 -0.000000
  0N   5s        -0.000000 -0.000000  6.482685 -0.000000 -3.985661  0.000000
  0N   1pz        0.000000 -0.000000  0.000000  0.277280 -0.000000  0.000000
  0N   1px        0.000054 -0.144786 -0.000000 -0.000000  0.000000  0.315170
  0N   1py       -0.144786 -0.000054 -0.000000  0.000000  0.000000 -0.000404
  0N   2pz       -0.000000  0.000000 -0.000000  0.887397 -0.000000  0.000000
  0N   2px       -0.000236  0.631958  0.000000 -0.000000 -0.000000 -0.082730
  0N   2py        0.631958  0.000236 -0.000000  0.000000 -0.000000  0.000106
  0N   3pz        0.000000  0.000000 -0.000000 -1.937338  0.000000 -0.000000
  0N   3px       -0.000881  2.358721  0.000000  0.000000 -0.000000 -2.343386
  0N   3py        2.358721  0.000881  0.000000 -0.000000 -0.000000  0.003003
  0N   1dz2      -0.000000 -0.000000  0.024780 -0.000000  0.006625 -0.000000
  0N   1dxz      -0.000000  0.000000 -0.000000 -0.000000 -0.000000 -0.000000
  0N   1dyz       0.000000  0.000000  0.000000 -0.000000  0.000000  0.000000
  0N   1dx2y2     0.000012 -0.031984 -0.000000  0.000000 -0.000000 -0.021903
  0N   1dxy       0.031984  0.000012  0.000000  0.000000  0.000000 -0.000028
  0N   2dz2       0.000000  0.000000 -0.380277  0.000000  0.198568 -0.000000
  0N   2dxz       0.000000 -0.000000  0.000000 -0.000000 -0.000000  0.000000
  0N   2dyz      -0.000000 -0.000000  0.000000 -0.000000  0.000000 -0.000000
  0N   2dx2y2    -0.000177  0.474594 -0.000000  0.000000 -0.000000 -0.202374
  0N   2dxy      -0.474594 -0.000177 -0.000000  0.000000  0.000000 -0.000259
  0N   1f0       -0.000000 -0.000000  0.000000 -0.005964 -0.000000  0.000000
  0N   1f+1       0.000013 -0.034937 -0.000000  0.000000  0.000000  0.009513
  0N   1f-1      -0.034937 -0.000013 -0.000000 -0.000000  0.000000 -0.000012
  0N   1f+2       0.000000 -0.000000  0.000000 -0.000000  0.000000  0.000000
  0N   1f-2       0.000000  0.000000 -0.000000  0.000000  0.000000  0.000000
  0N   1f+3       0.000000  0.000000 -0.057304 -0.000000 -0.007941  0.000000
  0N   1f-3       0.000000  0.000000 -0.000000 -0.000000 -0.000000  0.000000
  0N   6s         0.000000  0.000000 -0.498040  0.000000 -1.990474  0.000000
  0N   4pz       -0.000000 -0.000000  0.000000  0.810213  0.000000 -0.000000
  0N   4px        0.000382 -1.022782 -0.000000 -0.000000 -0.000000 -0.617471
  0N   4py       -1.022782 -0.000382 -0.000000 -0.000000 -0.000000  0.000791
  1H   1s         0.000020 -0.053871  0.005974 -0.000000 -0.105633 -0.114377
  1H   2s         0.000859 -2.301069 -1.713534 -0.000000 -0.516742  0.089588
  1H   3s        -0.000213  0.569599 -0.875634  0.000000  2.345074  3.371156
  1H   1pz        0.000000 -0.000000 -0.000000 -0.013005  0.000000  0.000000
  1H   1px       -0.000024  0.064477  0.025110  0.000000  0.025117  0.018932
  1H   1py        0.021630  0.000008  0.000000 -0.000000  0.000000  0.000035
  1H   2pz        0.000000 -0.000000 -0.000000  0.086377 -0.000000 -0.000000
  1H   2px       -0.000226  0.605034  0.614383  0.000000 -0.432452 -0.790189
  1H   2py        0.082140  0.000031 -0.000000  0.000000 -0.000000 -0.000570
  1H   1dz2      -0.000006  0.015677  0.039499 -0.000000 -0.005384 -0.019095
  1H   1dxz      -0.000000  0.000000  0.000000  0.006955 -0.000000  0.000000
  1H   1dyz       0.000000  0.000000  0.000000  0.000000  0.000000  0.000000
  1H   1dx2y2     0.000020 -0.052215 -0.033166 -0.000000  0.006346  0.028041
  1H   1dxy      -0.024915 -0.000009 -0.000000 -0.000000  0.000000  0.000028
  2H   1s        -0.046664  0.026918  0.005974 -0.000000 -0.105633  0.057315
  2H   2s        -1.993214  1.149790 -1.713534 -0.000000 -0.516742 -0.044894
  2H   3s         0.493393 -0.284615 -0.875634  0.000000  2.345074 -1.689320
  2H   1pz       -0.000000  0.000000 -0.000000 -0.013005  0.000000 -0.000000
  2H   1px       -0.018565  0.032335 -0.012555 -0.000000 -0.012559 -0.015998
  2H   1py        0.053772 -0.018533  0.021746  0.000000  0.021752 -0.020191
  2H   2pz       -0.000000  0.000000 -0.000000  0.086377 -0.000000  0.000000
  2H   2px       -0.226499  0.212779 -0.307191 -0.000000  0.216226  0.135049
  2H   2py        0.474395 -0.226243  0.532071  0.000000 -0.374514  0.535199
  2H   1dz2       0.013579 -0.007833  0.039499 -0.000000 -0.005384  0.009569
  2H   1dxz       0.000000  0.000000 -0.000000 -0.003477  0.000000 -0.000000
  2H   1dyz       0.000000  0.000000  0.000000  0.006023 -0.000000 -0.000000
  2H   1dx2y2     0.033396  0.005645  0.016583  0.000000 -0.003173  0.023352
  2H   1dxy       0.032945 -0.033386  0.028722  0.000000 -0.005496  0.002744
  3H   1s         0.046644  0.026953  0.005974 -0.000000 -0.105633  0.057061
  3H   2s         1.992354  1.151279 -1.713534 -0.000000 -0.516742 -0.044695
  3H   3s        -0.493180 -0.284984 -0.875634  0.000000  2.345074 -1.681836
  3H   1pz        0.000000  0.000000 -0.000000 -0.013005  0.000000 -0.000000
  3H   1px        0.018541  0.032349 -0.012555 -0.000000 -0.012559 -0.016050
  3H   1py        0.053758  0.018573 -0.021746 -0.000000 -0.021752  0.020172
  3H   2pz        0.000000  0.000000 -0.000000  0.086377 -0.000000  0.000000
  3H   2px        0.226340  0.212948 -0.307191 -0.000000  0.216226  0.136419
  3H   2py        0.474226  0.226597 -0.532071 -0.000000  0.374514 -0.533965
  3H   1dz2      -0.013574 -0.007843  0.039499 -0.000000 -0.005384  0.009526
  3H   1dxz      -0.000000  0.000000 -0.000000 -0.003477  0.000000 -0.000000
  3H   1dyz       0.000000 -0.000000 -0.000000 -0.006023  0.000000  0.000000
  3H   1dx2y2    -0.033400  0.005620  0.016583  0.000000 -0.003173  0.023345
  3H   1dxy       0.032920  0.033410 -0.028722 -0.000000  0.005496 -0.002676
                     18        19        20        21        22        23   
                   0.71579   0.82506   0.82506   1.08756   1.18708   1.18708
                   0.00000   0.00000   0.00000   0.00000   0.00000   0.00000
                  --------  --------  --------  --------  --------  --------
  0N   1s         0.000000 -0.000000  0.000000  0.000000 -0.000000 -0.000000
  0N   2s         0.000000  0.000000  0.000000  0.000000 -0.000000 -0.000000
  0N   3s         0.000000 -0.000000 -0.000000  0.000000 -0.000000 -0.000000
  0N   4s        -0.000000  0.000000  0.000000 -0.000000  0.000000  0.000000
  0N   5s         0.000000  0.000000  0.000000 -0.000000  0.000000  0.000000
  0N   1pz       -0.000000  0.000000  0.000000  0.000000  0.000000  0.000000
  0N   1px        0.000404 -0.000000 -0.000000 -0.000000  0.000026  0.115912
  0N   1py        0.315170 -0.000000  0.000000 -0.000000  0.115912 -0.000026
  0N   2pz       -0.000000 -0.000000  0.000000  0.000000 -0.000000 -0.000000
  0N   2px       -0.000106 -0.000000 -0.000000  0.000000 -0.000147 -0.664932
  0N   2py       -0.082730 -0.000000  0.000000 -0.000000 -0.664932  0.000147
  0N   3pz        0.000000  0.000000  0.000000  0.000000  0.000000  0.000000
  0N   3px       -0.003003 -0.000000 -0.000000 -0.000000  0.000471  2.125126
  0N   3py       -2.343386 -0.000000  0.000000  0.000000  2.125126 -0.000471
  0N   1dz2      -0.000000 -0.000000 -0.000000 -0.000000 -0.000000 -0.000000
  0N   1dxz      -0.000000 -0.000029 -0.028334  0.000000 -0.000000 -0.000000
  0N   1dyz      -0.000000 -0.028334  0.000029 -0.000000 -0.000000  0.000000
  0N   1dx2y2    -0.000028 -0.000000 -0.000000 -0.000000  0.000004  0.019033
  0N   1dxy       0.021903  0.000000 -0.000000 -0.000000 -0.019033  0.000004
  0N   2dz2      -0.000000 -0.000000 -0.000000 -0.000000 -0.000000 -0.000000
  0N   2dxz       0.000000  0.000009  0.008327  0.000000  0.000000  0.000000
  0N   2dyz       0.000000  0.008327 -0.000009  0.000000  0.000000 -0.000000
  0N   2dx2y2    -0.000259  0.000000  0.000000  0.000000 -0.000087 -0.392631
  0N   2dxy       0.202374 -0.000000  0.000000  0.000000  0.392631 -0.000087
  0N   1f0        0.000000  0.000000 -0.000000 -0.000000 -0.000000  0.000000
  0N   1f+1       0.000012 -0.000000 -0.000000 -0.000000  0.000001  0.004820
  0N   1f-1       0.009513 -0.000000  0.000000  0.000000  0.004820 -0.000001
  0N   1f+2       0.000000  0.000031  0.029636 -0.000000  0.000000  0.000000
  0N   1f-2      -0.000000 -0.029636  0.000031 -0.000000 -0.000000  0.000000
  0N   1f+3       0.000000 -0.000000  0.000000 -0.000000 -0.000000 -0.000000
  0N   1f-3      -0.000000 -0.000000 -0.000000  0.029329 -0.000000 -0.000000
  0N   6s         0.000000  0.000000  0.000000 -0.000000  0.000000  0.000000
  0N   4pz       -0.000000 -0.000000 -0.000000  0.000000 -0.000000 -0.000000
  0N   4px       -0.000791  0.000000  0.000000  0.000000 -0.000058 -0.261002
  0N   4py       -0.617471  0.000000 -0.000000 -0.000000 -0.261002  0.000058
  1H   1s        -0.000147  0.000000  0.000000  0.000000  0.000004  0.017896
  1H   2s         0.000115  0.000000  0.000000 -0.000000 -0.000052 -0.236325
  1H   3s         0.004321 -0.000000 -0.000000  0.000000 -0.000039 -0.176373
  1H   1pz        0.000000  0.000067  0.064919  0.000000  0.000000  0.000000
  1H   1px        0.000024  0.000000  0.000000  0.000000  0.000001  0.004597
  1H   1py       -0.027676 -0.000000  0.000000 -0.054628  0.077442 -0.000017
  1H   2pz       -0.000000 -0.000947 -0.919415 -0.000000 -0.000000 -0.000000
  1H   2px       -0.001013 -0.000000 -0.000000 -0.000000 -0.000227 -1.022875
  1H   2py        0.444375  0.000000 -0.000000  0.790690 -1.260135  0.000279
  1H   1dz2      -0.000024 -0.000000 -0.000000  0.000000 -0.000000 -0.000342
  1H   1dxz       0.000000  0.000030  0.028899  0.000000  0.000000  0.000000
  1H   1dyz      -0.000000 -0.017347  0.000018  0.000000 -0.000000  0.000000
  1H   1dx2y2     0.000036  0.000000  0.000000  0.000000  0.000013  0.058538
  1H   1dxy      -0.021784 -0.000000  0.000000 -0.003823  0.043325 -0.000010
  2H   1s        -0.098980  0.000000 -0.000000 -0.000000  0.015496 -0.008951
  2H   2s         0.077528  0.000000 -0.000000  0.000000 -0.204637  0.118208
  2H   3s         2.917346 -0.000000  0.000000 -0.000000 -0.152724  0.088220
  2H   1pz        0.000000  0.056188 -0.032517  0.000000  0.000000 -0.000000
  2H   1px       -0.020202 -0.000000 -0.000000  0.047309  0.031556  0.059224
  2H   1py        0.007254 -0.000000 -0.000000  0.027314  0.022815  0.031538
  2H   2pz       -0.000000 -0.795763  0.460528 -0.000000 -0.000000  0.000000
  2H   2px        0.534756  0.000000  0.000000 -0.684758 -0.103003 -1.200797
  2H   2py       -0.480863  0.000000  0.000000 -0.395345 -1.082213 -0.102497
  2H   1dz2      -0.016524 -0.000000  0.000000 -0.000000 -0.000296  0.000171
  2H   1dxz      -0.000000 -0.020031 -0.005765 -0.000000 -0.000000 -0.000000
  2H   1dyz       0.000000  0.017317 -0.020043 -0.000000 -0.000000 -0.000000
  2H   1dx2y2    -0.002680  0.000000  0.000000 -0.003311 -0.044112 -0.017850
  2H   1dxy      -0.026473 -0.000000 -0.000000  0.001911 -0.033063  0.044115
  3H   1s         0.099126 -0.000000 -0.000000  0.000000 -0.015500 -0.008944
  3H   2s        -0.077643 -0.000000 -0.000000 -0.000000  0.204690  0.118117
  3H   3s        -2.921667  0.000000  0.000000  0.000000  0.152763  0.088153
  3H   1pz       -0.000000 -0.056255 -0.032402 -0.000000 -0.000000 -0.000000
  3H   1px        0.020161  0.000000 -0.000000 -0.047309 -0.031530  0.059238
  3H   1py        0.007306 -0.000000  0.000000  0.027314  0.022801 -0.031548
  3H   2pz        0.000000  0.796711  0.458887  0.000000  0.000000  0.000000
  3H   2px       -0.534408 -0.000000  0.000000  0.684758  0.102470 -1.200843
  3H   2py       -0.482233  0.000000 -0.000000 -0.395345 -1.082167  0.102977
  3H   1dz2       0.016549  0.000000  0.000000  0.000000  0.000296  0.000171
  3H   1dxz       0.000000  0.020019 -0.005806  0.000000  0.000000 -0.000000
  3H   1dyz       0.000000  0.017358  0.020007 -0.000000 -0.000000  0.000000
  3H   1dx2y2     0.002740 -0.000000  0.000000  0.003311  0.044104 -0.017869
  3H   1dxy      -0.026480 -0.000000  0.000000  0.001911 -0.033082 -0.044101
                     24        25        26        27        28        29   
                   1.23530   1.26227   1.55636   1.55636   1.64704   1.64704
                   0.00000   0.00000   0.00000   0.00000   0.00000   0.00000
                  --------  --------  --------  --------  --------  --------
  0N   1s        -0.000000  0.029569  0.000000  0.000000 -0.000000  0.000000
  0N   2s        -0.000000  0.062808  0.000000  0.000000 -0.000000  0.000000
  0N   3s        -0.000000  1.037977  0.000000  0.000000  0.000000 -0.000000
  0N   4s         0.000001-10.358423 -0.000000 -0.000000  0.000000 -0.000000
  0N   5s         0.000000 -2.209532 -0.000000 -0.000000  0.000000 -0.000000
  0N   1pz        0.110528  0.000000  0.000000 -0.000000  0.000000  0.000000
  0N   1px       -0.000000  0.000000  0.324163  0.000546  0.000000 -0.000000
  0N   1py       -0.000000  0.000000 -0.000546  0.324163 -0.000000 -0.000000
  0N   2pz        0.589692  0.000000  0.000000 -0.000000  0.000000 -0.000000
  0N   2px       -0.000000 -0.000000  5.348972  0.009017  0.000000 -0.000000
  0N   2py       -0.000000 -0.000000 -0.009017  5.348972 -0.000000 -0.000000
  0N   3pz        1.228677  0.000000  0.000000  0.000000 -0.000000  0.000000
  0N   3px       -0.000000  0.000000  2.975478  0.005016  0.000000 -0.000000
  0N   3py       -0.000000  0.000000 -0.005016  2.975478 -0.000000 -0.000000
  0N   1dz2      -0.000000  0.027956  0.000000  0.000000  0.000000 -0.000000
  0N   1dxz       0.000000 -0.000000 -0.000000 -0.000000  0.029844 -0.000026
  0N   1dyz       0.000000 -0.000000  0.000000 -0.000000 -0.000026 -0.029844
  0N   1dx2y2     0.000000  0.000000  0.016802  0.000028  0.000000 -0.000000
  0N   1dxy       0.000000 -0.000000  0.000028 -0.016802  0.000000  0.000000
  0N   2dz2      -0.000000  0.621657  0.000000  0.000000 -0.000000  0.000000
  0N   2dxz      -0.000000 -0.000000  0.000000  0.000000 -1.535312  0.001321
  0N   2dyz      -0.000000  0.000000 -0.000000  0.000000  0.001321  1.535312
  0N   2dx2y2    -0.000000  0.000000  1.343677  0.002265  0.000000 -0.000000
  0N   2dxy      -0.000000 -0.000000  0.002265 -1.343677  0.000000  0.000000
  0N   1f0       -0.035177 -0.000000 -0.000000  0.000000 -0.000000  0.000000
  0N   1f+1       0.000000  0.000000 -0.102945 -0.000174 -0.000000  0.000000
  0N   1f-1       0.000000  0.000000  0.000174 -0.102945  0.000000  0.000000
  0N   1f+2      -0.000000 -0.000000  0.000000  0.000000 -0.051772  0.000045
  0N   1f-2       0.000000 -0.000000  0.000000 -0.000000 -0.000045 -0.051772
  0N   1f+3      -0.000000  0.156220  0.000000  0.000000 -0.000000  0.000000
  0N   1f-3      -0.000000 -0.000000 -0.000000  0.000000  0.000000 -0.000000
  0N   6s         0.000000 -0.256643 -0.000000  0.000000  0.000000  0.000000
  0N   4pz       -0.214379 -0.000000  0.000000 -0.000000  0.000000  0.000000
  0N   4px        0.000000 -0.000000  0.043713  0.000074 -0.000000  0.000000
  0N   4py        0.000000 -0.000000 -0.000074  0.043713  0.000000  0.000000
  1H   1s         0.000000 -0.031939 -0.035621 -0.000060  0.000000 -0.000000
  1H   2s        -0.000000  3.602008 -6.340460 -0.010689 -0.000001  0.000000
  1H   3s        -0.000000  0.593757 -1.860870 -0.003137 -0.000000  0.000000
  1H   1pz        0.069590  0.000000  0.000000  0.000000 -0.043097  0.000037
  1H   1px        0.000000 -0.023109  0.034268  0.000058  0.000000 -0.000000
  1H   1py        0.000000  0.000000 -0.000103  0.061244 -0.000000 -0.000000
  1H   2pz       -1.031176 -0.000000 -0.000000 -0.000000  1.028772 -0.000885
  1H   2px        0.000000 -2.535057  3.898899  0.006573  0.000000 -0.000000
  1H   2py        0.000000 -0.000000  0.001342 -0.796125  0.000000  0.000000
  1H   1dz2       0.000000 -0.126727  0.107997  0.000182  0.000000 -0.000000
  1H   1dxz       0.023368  0.000000  0.000000  0.000000 -0.109445  0.000094
  1H   1dyz       0.000000 -0.000000 -0.000000  0.000000  0.000038  0.044202
  1H   1dx2y2    -0.000000  0.131141 -0.212683 -0.000359 -0.000000  0.000000
  1H   1dxy      -0.000000  0.000000 -0.000016  0.009484  0.000000  0.000000
  2H   1s         0.000000 -0.031939  0.017863 -0.030819 -0.000000 -0.000000
  2H   2s        -0.000000  3.602008  3.179487 -5.485655  0.000000  0.000000
  2H   3s        -0.000000  0.593757  0.933152 -1.609993  0.000000  0.000000
  2H   1pz        0.069590  0.000000 -0.000000  0.000000  0.021581  0.037305
  2H   1px       -0.000000  0.011554  0.054481  0.011773  0.000000  0.000000
  2H   1py        0.000000 -0.020013  0.011612  0.041032 -0.000000 -0.000000
  2H   2pz       -1.031176 -0.000000  0.000000 -0.000000 -0.515152 -0.890500
  2H   2px       -0.000000  1.267528  0.381058 -2.032368  0.000000  0.000000
  2H   2py        0.000000 -2.195424 -2.037599  2.721716 -0.000000 -0.000000
  2H   1dz2       0.000000 -0.126727 -0.054156  0.093437 -0.000000 -0.000000
  2H   1dxz      -0.011684 -0.000000  0.000000 -0.000000 -0.060537 -0.028199
  2H   1dyz       0.020238  0.000000 -0.000000  0.000000  0.028331  0.093110
  2H   1dx2y2     0.000000 -0.065570 -0.060432  0.087886 -0.000000 -0.000000
  2H   1dxy       0.000000 -0.113571 -0.088260  0.161735 -0.000000 -0.000000
  3H   1s         0.000000 -0.031939  0.017759  0.030879 -0.000000  0.000000
  3H   2s        -0.000000  3.602008  3.160973  5.496344  0.000000 -0.000000
  3H   3s        -0.000000  0.593757  0.927718  1.613130  0.000000 -0.000000
  3H   1pz        0.069590  0.000000 -0.000000 -0.000000  0.021517 -0.037342
  3H   1px       -0.000000  0.011554  0.054520 -0.011589  0.000000 -0.000000
  3H   1py       -0.000000  0.020013 -0.011750  0.040993  0.000000 -0.000000
  3H   2pz       -1.031176 -0.000000  0.000000  0.000000 -0.513620  0.891385
  3H   2px       -0.000000  1.267528  0.374204  2.033641  0.000000 -0.000000
  3H   2py       -0.000000  2.195424  2.028411  2.728570  0.000000 -0.000000
  3H   1dz2       0.000000 -0.126727 -0.053841 -0.093619 -0.000000  0.000000
  3H   1dxz      -0.011684 -0.000000  0.000000  0.000000 -0.060488  0.028303
  3H   1dyz      -0.020238 -0.000000  0.000000  0.000000 -0.028171  0.093158
  3H   1dx2y2     0.000000 -0.065570 -0.060136 -0.088089 -0.000000  0.000000
  3H   1dxy      -0.000000  0.113571  0.087715  0.162032  0.000000 -0.000000
                     30        31        32        33        34        35   
                   1.72311   1.72311   1.80857   2.39634   2.56924   2.73590
                   0.00000   0.00000   0.00000   0.00000   0.00000   0.00000
                  --------  --------  --------  --------  --------  --------
  0N   1s         0.000000  0.000000 -0.053066 -0.056924 -0.000000  0.000000
  0N   2s         0.000000  0.000000 -0.148359 -0.173376 -0.000000  0.000000
  0N   3s         0.000000  0.000000 -0.623153  2.216432  0.000000 -0.000000
  0N   4s        -0.000000 -0.000000  9.919481 -9.822292 -0.000000  0.000000
  0N   5s        -0.000000 -0.000000  6.056166  0.145364  0.000000 -0.000000
  0N   1pz       -0.000000 -0.000000 -0.000000  0.000000  1.286801  0.000000
  0N   1px       -0.010972 -0.000019  0.000000  0.000000 -0.000000  0.915444
  0N   1py       -0.000019  0.010972 -0.000000 -0.000000  0.000000  0.002199
  0N   2pz       -0.000000  0.000000 -0.000000  0.000000 -2.036592 -0.000000
  0N   2px       -1.898513 -0.003332 -0.000000 -0.000000  0.000000 -5.389927
  0N   2py       -0.003332  1.898513 -0.000000  0.000000 -0.000000 -0.012946
  0N   3pz       -0.000000  0.000000 -0.000000  0.000000  0.875604 -0.000000
  0N   3px       -0.310963 -0.000546  0.000000 -0.000000 -0.000000 -1.421308
  0N   3py       -0.000546  0.310963 -0.000000 -0.000000 -0.000000 -0.003414
  0N   1dz2      -0.000000  0.000000 -0.013206  0.127034 -0.000000 -0.000000
  0N   1dxz       0.000000  0.000000  0.000000 -0.000000 -0.000000  0.000000
  0N   1dyz       0.000000 -0.000000 -0.000000  0.000000 -0.000000  0.000000
  0N   1dx2y2     0.000057  0.000000 -0.000000  0.000000 -0.000000 -0.077127
  0N   1dxy      -0.000000  0.000057  0.000000 -0.000000  0.000000  0.000185
  0N   2dz2      -0.000000  0.000000 -2.457105  1.009138  0.000000 -0.000000
  0N   2dxz      -0.000000 -0.000000  0.000000 -0.000000 -0.000000  0.000000
  0N   2dyz      -0.000000  0.000000  0.000000  0.000000  0.000000  0.000000
  0N   2dx2y2    -2.355487 -0.004134 -0.000000 -0.000000 -0.000000 -0.580846
  0N   2dxy       0.004134 -2.355487 -0.000000  0.000000  0.000000  0.001395
  0N   1f0        0.000000 -0.000000  0.000000 -0.000000  0.021995  0.000000
  0N   1f+1       0.089981  0.000158  0.000000  0.000000 -0.000000  0.220241
  0N   1f-1       0.000158 -0.089981 -0.000000  0.000000  0.000000  0.000529
  0N   1f+2       0.000000  0.000000  0.000000 -0.000000  0.000000  0.000000
  0N   1f-2      -0.000000  0.000000 -0.000000 -0.000000 -0.000000 -0.000000
  0N   1f+3      -0.000000  0.000000 -0.233883  0.450015 -0.000000 -0.000000
  0N   1f-3      -0.000000  0.000000  0.000000  0.000000 -0.000000 -0.000000
  0N   6s        -0.000000  0.000000 -0.257442  1.180401 -0.000000 -0.000000
  0N   4pz        0.000000 -0.000000  0.000000 -0.000000 -0.319733  0.000000
  0N   4px        0.599427  0.001052  0.000000  0.000000  0.000000  0.303571
  0N   4py        0.001052 -0.599427 -0.000000  0.000000  0.000000  0.000729
  1H   1s        -0.239395 -0.000420  0.096001 -0.664858  0.000000 -0.757634
  1H   2s         3.758903  0.006597 -5.347177  4.242524 -0.000000  5.818746
  1H   3s        -1.464719 -0.002570 -0.635667 -1.148308 -0.000000 -0.386619
  1H   1pz       -0.000000 -0.000000 -0.000000  0.000000 -0.028339  0.000000
  1H   1px       -0.178655 -0.000314  0.092321 -0.240514 -0.000000 -0.312287
  1H   1py        0.000078 -0.044656 -0.000000  0.000000 -0.000000 -0.000142
  1H   2pz        0.000000  0.000000 -0.000000  0.000000  0.237273  0.000000
  1H   2px       -1.065541 -0.001870  2.560399 -1.463369  0.000000 -2.320385
  1H   2py       -0.001628  0.927670  0.000000  0.000000  0.000000  0.002103
  1H   1dz2      -0.044882 -0.000079  0.086075 -0.172175  0.000000 -0.097962
  1H   1dxz      -0.000000 -0.000000  0.000000 -0.000000 -0.065280 -0.000000
  1H   1dyz      -0.000000  0.000000  0.000000  0.000000  0.000000 -0.000000
  1H   1dx2y2     0.104178  0.000183 -0.150130  0.181136  0.000000  0.300399
  1H   1dxy       0.000183 -0.104300  0.000000 -0.000000  0.000000  0.000025
  2H   1s         0.119334  0.207532  0.096001 -0.664858  0.000000  0.377241
  2H   2s        -1.873738 -3.258603 -5.347177  4.242524 -0.000000 -2.897269
  2H   3s         0.730133  1.269769 -0.635667 -1.148308 -0.000000  0.192505
  2H   1pz        0.000000  0.000000 -0.000000  0.000000 -0.028339 -0.000000
  2H   1px       -0.011002 -0.096716 -0.046160  0.120257  0.000000 -0.122002
  2H   1py        0.096481  0.122997  0.079952 -0.208291 -0.000000  0.109111
  2H   2pz       -0.000000 -0.000000 -0.000000  0.000000  0.237273 -0.000000
  2H   2px       -0.962033 -0.061388 -1.280200  0.731684 -0.000000  0.079890
  2H   2py        0.057890  1.031178  2.217371 -1.267314  0.000000  1.380226
  2H   1dz2       0.022373  0.038909  0.086075 -0.172175  0.000000  0.048777
  2H   1dxz      -0.000000 -0.000000 -0.000000  0.000000  0.032640 -0.000000
  2H   1dyz       0.000000  0.000000  0.000000 -0.000000 -0.056534  0.000000
  2H   1dx2y2    -0.052339  0.090182  0.075065 -0.090568 -0.000000  0.066953
  2H   1dxy       0.090182  0.052217  0.130016 -0.156868 -0.000000  0.134058
  3H   1s         0.120061 -0.207112  0.096001 -0.664858  0.000000  0.380393
  3H   2s        -1.885164  3.252007 -5.347177  4.242524 -0.000000 -2.921477
  3H   3s         0.734585 -1.267198 -0.635667 -1.148308 -0.000000  0.194114
  3H   1pz        0.000000 -0.000000 -0.000000  0.000000 -0.028339 -0.000000
  3H   1px       -0.011341  0.096677 -0.046160  0.120257  0.000000 -0.122529
  3H   1py       -0.096912  0.122658 -0.079952  0.208291  0.000000 -0.110307
  3H   2pz       -0.000000  0.000000 -0.000000  0.000000  0.237273 -0.000000
  3H   2px       -0.962243  0.058011 -1.280200  0.731684 -0.000000  0.073242
  3H   2py       -0.061509  1.030969 -2.217371  1.267314 -0.000000 -1.387534
  3H   1dz2       0.022509 -0.038830  0.086075 -0.172175  0.000000  0.049185
  3H   1dxz      -0.000000  0.000000 -0.000000  0.000000  0.032640 -0.000000
  3H   1dyz      -0.000000  0.000000 -0.000000  0.000000  0.056534 -0.000000
  3H   1dx2y2    -0.052023 -0.090365  0.075065 -0.090568 -0.000000  0.067599
  3H   1dxy      -0.090365  0.051900 -0.130016  0.156868  0.000000 -0.135128
                     36        37        38        39        40        41   
                   2.73590   2.83098   3.25863   3.25863   3.32933   3.32933
                   0.00000   0.00000   0.00000   0.00000   0.00000   0.00000
                  --------  --------  --------  --------  --------  --------
  0N   1s        -0.000000 -0.093991  0.000000 -0.000000  0.000000  0.000000
  0N   2s        -0.000000 -0.353186  0.000000 -0.000000  0.000000  0.000000
  0N   3s         0.000000  4.014640 -0.000000  0.000000 -0.000000 -0.000000
  0N   4s        -0.000000-13.652736  0.000000 -0.000000  0.000000  0.000000
  0N   5s         0.000000  0.437205  0.000000 -0.000000 -0.000000 -0.000000
  0N   1pz       -0.000000 -0.000000 -0.000000 -0.000000 -0.000000  0.000000
  0N   1px       -0.002199  0.000000 -0.000638 -0.685969 -0.000000  0.000000
  0N   1py        0.915444  0.000000  0.685969 -0.000638 -0.000000 -0.000000
  0N   2pz        0.000000  0.000000 -0.000000  0.000000  0.000000 -0.000000
  0N   2px        0.012946 -0.000000  0.003405  3.662696  0.000000 -0.000000
  0N   2py       -5.389927 -0.000000 -3.662696  0.003405  0.000000  0.000000
  0N   3pz       -0.000000 -0.000000 -0.000000  0.000000 -0.000000  0.000000
  0N   3px        0.003414 -0.000000  0.000098  0.105512 -0.000000  0.000000
  0N   3py       -1.421308 -0.000000 -0.105512  0.000098 -0.000000 -0.000000
  0N   1dz2       0.000000  0.013754  0.000000 -0.000000  0.000000  0.000000
  0N   1dxz      -0.000000  0.000000  0.000000  0.000000 -0.000068  0.164608
  0N   1dyz       0.000000 -0.000000 -0.000000  0.000000 -0.164608 -0.000068
  0N   1dx2y2     0.000185 -0.000000  0.000018  0.019424  0.000000 -0.000000
  0N   1dxy       0.077127  0.000000  0.019424 -0.000018 -0.000000 -0.000000
  0N   2dz2       0.000000  1.484197 -0.000000  0.000000 -0.000000 -0.000000
  0N   2dxz      -0.000000 -0.000000 -0.000000 -0.000000 -0.000018  0.044077
  0N   2dyz       0.000000  0.000000  0.000000 -0.000000 -0.044077 -0.000018
  0N   2dx2y2     0.001395 -0.000000  0.000887  0.954541  0.000000 -0.000000
  0N   2dxy       0.580846  0.000000  0.954541 -0.000887 -0.000000 -0.000000
  0N   1f0       -0.000000 -0.000000 -0.000000  0.000000  0.000000 -0.000000
  0N   1f+1      -0.000529  0.000000  0.000216  0.231916  0.000000 -0.000000
  0N   1f-1       0.220241  0.000000 -0.231916  0.000216  0.000000  0.000000
  0N   1f+2      -0.000000 -0.000000  0.000000  0.000000 -0.000100  0.243480
  0N   1f-2      -0.000000  0.000000  0.000000 -0.000000  0.243480  0.000100
  0N   1f+3       0.000000  0.064598  0.000000  0.000000 -0.000000  0.000000
  0N   1f-3      -0.000000 -0.000000  0.000000 -0.000000  0.000000  0.000000
  0N   6s         0.000000 -0.087617 -0.000000  0.000000 -0.000000 -0.000000
  0N   4pz        0.000000  0.000000  0.000000  0.000000  0.000000 -0.000000
  0N   4px       -0.000729  0.000000  0.000118  0.126987  0.000000 -0.000000
  0N   4py        0.303571  0.000000 -0.126987  0.000118  0.000000  0.000000
  1H   1s         0.001820  0.292947 -0.000449 -0.483138 -0.000000  0.000000
  1H   2s        -0.013976  3.693034 -0.002380 -2.559821 -0.000000  0.000000
  1H   3s         0.000929 -0.088920 -0.000325 -0.349123 -0.000000  0.000000
  1H   1pz       -0.000000  0.000000  0.000000  0.000000 -0.000168  0.409266
  1H   1px        0.000750 -0.142617  0.000026  0.027771 -0.000000  0.000000
  1H   1py       -0.058925  0.000000 -0.054478  0.000051  0.000000  0.000000
  1H   2pz       -0.000000  0.000000 -0.000000 -0.000000  0.000118 -0.287198
  1H   2px        0.005573 -2.025773  0.001560  1.677587  0.000000 -0.000000
  1H   2py        0.875549 -0.000000  0.069825 -0.000065  0.000000  0.000000
  1H   1dz2       0.000235  0.026478  0.000491  0.527827  0.000000 -0.000000
  1H   1dxz       0.000000 -0.000000 -0.000000 -0.000000  0.000104 -0.253550
  1H   1dyz      -0.000000  0.000000  0.000000 -0.000000  0.519103  0.000214
  1H   1dx2y2    -0.000722  0.247802  0.000072  0.077939  0.000000 -0.000000
  1H   1dxy       0.010431 -0.000000 -0.074984  0.000070  0.000000  0.000000
  2H   1s        -0.657040  0.292947  0.418635  0.241180 -0.000000 -0.000000
  2H   2s         5.046170  3.693034  2.218060  1.277850 -0.000000 -0.000000
  2H   3s        -0.335286 -0.088920  0.302511  0.174280 -0.000000 -0.000000
  2H   1pz        0.000000  0.000000 -0.000000 -0.000000 -0.354351 -0.204779
  2H   1px        0.110003  0.071309 -0.011520  0.047812  0.000000 -0.000000
  2H   1py       -0.249210 -0.123510 -0.034437  0.011597 -0.000000 -0.000000
  2H   2pz        0.000000  0.000000  0.000000  0.000000  0.248661  0.143701
  2H   2px        1.383696  1.012887  0.756993  0.366325 -0.000000 -0.000000
  2H   2py       -1.524725 -1.754371 -1.241438 -0.755498  0.000000  0.000000
  2H   1dz2      -0.084955  0.026478 -0.457357 -0.263489  0.000000  0.000000
  2H   1dxz       0.000000  0.000000  0.000000 -0.000000  0.115174 -0.452668
  2H   1dyz      -0.000000 -0.000000  0.000000 -0.000000  0.319986 -0.114856
  2H   1dx2y2    -0.134755 -0.123901  0.066183 -0.036815 -0.000000  0.000000
  2H   1dxy      -0.223014 -0.214602  0.039770  0.066181 -0.000000 -0.000000
  3H   1s         0.655220  0.292947 -0.418186  0.241958  0.000000 -0.000000
  3H   2s        -5.032193  3.693034 -2.215680  1.281972  0.000000 -0.000000
  3H   3s         0.334357 -0.088920 -0.302187  0.174842  0.000000 -0.000000
  3H   1pz       -0.000000  0.000000  0.000000 -0.000000  0.354519 -0.204487
  3H   1px       -0.109415  0.071309  0.011609  0.047790 -0.000000 -0.000000
  3H   1py       -0.248683  0.123510 -0.034458 -0.011532 -0.000000  0.000000
  3H   2pz       -0.000000  0.000000 -0.000000  0.000000 -0.248779  0.143496
  3H   2px       -1.384064  1.012887 -0.756310  0.367731  0.000000 -0.000000
  3H   2py       -1.518077  1.754371 -1.240031  0.757805  0.000000 -0.000000
  3H   1dz2       0.084720  0.026478  0.456866 -0.264338 -0.000000  0.000000
  3H   1dxz      -0.000000  0.000000 -0.000000 -0.000000 -0.114802 -0.452762
  3H   1dyz      -0.000000  0.000000  0.000000  0.000000  0.319891  0.115120
  3H   1dx2y2     0.134432 -0.123901 -0.066252 -0.036692  0.000000  0.000000
  3H   1dxy      -0.222368  0.214602  0.039646 -0.066254 -0.000000  0.000000
                     42        43        44        45        46        47   
                   3.54403   3.58505   3.60749   3.60749   3.75101   3.90002
                   0.00000   0.00000   0.00000   0.00000   0.00000   0.00000
                  --------  --------  --------  --------  --------  --------
  0N   1s         0.000000 -0.000000 -0.000000 -0.000000  0.034347 -0.000000
  0N   2s         0.000000 -0.000000 -0.000000 -0.000000  0.083540 -0.000000
  0N   3s        -0.000000  0.000000  0.000000  0.000000 -0.768873  0.000000
  0N   4s         0.000000 -0.000000 -0.000000 -0.000000  4.328033 -0.000000
  0N   5s        -0.000000  0.000000 -0.000000 -0.000000  0.985072 -0.000000
  0N   1pz        0.000000  0.000000  0.000000 -0.000000  0.000000  0.017197
  0N   1px       -0.000000 -0.000000  0.482868  0.001219  0.000000  0.000000
  0N   1py        0.000000  0.000000 -0.001219  0.482868  0.000000 -0.000000
  0N   2pz        0.000000 -0.000000 -0.000000  0.000000 -0.000000 -0.128335
  0N   2px        0.000000  0.000000 -3.019260 -0.007619 -0.000000 -0.000000
  0N   2py       -0.000000 -0.000000  0.007619 -3.019260 -0.000000  0.000000
  0N   3pz        0.000000 -0.000000 -0.000000  0.000000  0.000000  0.674409
  0N   3px        0.000000 -0.000000 -0.035159 -0.000089  0.000000 -0.000000
  0N   3py       -0.000000 -0.000000  0.000089 -0.035159  0.000000 -0.000000
  0N   1dz2       0.000000  0.000000  0.000000  0.000000 -0.265475  0.000000
  0N   1dxz      -0.000000 -0.000000  0.000000  0.000000  0.000000  0.000000
  0N   1dyz       0.000000 -0.000000 -0.000000  0.000000 -0.000000 -0.000000
  0N   1dx2y2     0.000000  0.000000 -0.265213 -0.000669 -0.000000 -0.000000
  0N   1dxy       0.000000  0.000000 -0.000669  0.265213  0.000000 -0.000000
  0N   2dz2       0.000000  0.000000  0.000000  0.000000 -0.671354  0.000000
  0N   2dxz       0.000000  0.000000  0.000000  0.000000  0.000000 -0.000000
  0N   2dyz       0.000000  0.000000 -0.000000  0.000000 -0.000000 -0.000000
  0N   2dx2y2     0.000000  0.000000 -0.518647 -0.001309 -0.000000  0.000000
  0N   2dxy      -0.000000  0.000000 -0.001309  0.518647  0.000000 -0.000000
  0N   1f0       -0.000000  0.000000 -0.000000 -0.000000 -0.000000 -0.470334
  0N   1f+1      -0.000000  0.000000 -0.024507 -0.000062 -0.000000  0.000000
  0N   1f-1      -0.000000 -0.000000  0.000062 -0.024507 -0.000000  0.000000
  0N   1f+2      -0.000000 -0.000000  0.000000  0.000000  0.000000 -0.000000
  0N   1f-2      -0.000000 -0.000000  0.000000 -0.000000  0.000000  0.000000
  0N   1f+3       0.000000  0.000000  0.000000  0.000000  0.014878 -0.000000
  0N   1f-3       0.000000  0.298649  0.000000 -0.000000 -0.000000  0.000000
  0N   6s         0.000000  0.000000 -0.000000 -0.000000  0.245344 -0.000000
  0N   4pz       -0.000000  0.000000 -0.000000 -0.000000 -0.000000 -0.129632
  0N   4px        0.000000  0.000000 -0.157022 -0.000396  0.000000  0.000000
  0N   4py       -0.000000 -0.000000  0.000396 -0.157022 -0.000000 -0.000000
  1H   1s        -0.000000 -0.000000  0.488938  0.001234 -0.217316  0.000000
  1H   2s        -0.000000  0.000000  1.918684  0.004842 -1.256434  0.000000
  1H   3s        -0.000000 -0.000000  0.547475  0.001382 -0.383987  0.000000
  1H   1pz        0.000000 -0.000000  0.000000  0.000000  0.000000  0.560900
  1H   1px       -0.000000 -0.000000  0.396232  0.001000 -0.360515  0.000000
  1H   1py       -0.000000 -0.509233 -0.000732  0.290111  0.000000 -0.000000
  1H   2pz       -0.000000  0.000000  0.000000  0.000000 -0.000000 -0.531830
  1H   2px        0.000000  0.000000 -1.759751 -0.004441  1.065292 -0.000000
  1H   2py        0.000000  0.395346  0.000057 -0.022666 -0.000000  0.000000
  1H   1dz2      -0.000000 -0.000000  0.222181  0.000561  0.499566 -0.000000
  1H   1dxz       0.000000  0.000000 -0.000000 -0.000000 -0.000000 -0.105140
  1H   1dyz      -0.584357  0.000000  0.000000 -0.000000 -0.000000  0.000000
  1H   1dx2y2    -0.000000 -0.000000  0.546921  0.001380 -0.017960  0.000000
  1H   1dxy       0.000000  0.204500  0.000367 -0.145550  0.000000 -0.000000
  2H   1s         0.000000  0.000000 -0.245538  0.422816 -0.217316  0.000000
  2H   2s         0.000000  0.000000 -0.963535  1.659208 -1.256434  0.000000
  2H   3s         0.000000  0.000000 -0.274934  0.473437 -0.383987  0.000000
  2H   1pz        0.000000  0.000000 -0.000000  0.000000  0.000000  0.560900
  2H   1px        0.000000  0.441008  0.316757 -0.045153  0.180258 -0.000000
  2H   1py        0.000000  0.254616 -0.046885  0.369586 -0.312216  0.000000
  2H   2pz       -0.000000 -0.000000 -0.000000  0.000000 -0.000000 -0.531830
  2H   2px       -0.000000 -0.342379 -0.458835  0.751027 -0.532646  0.000000
  2H   2py       -0.000000 -0.197673  0.755525 -1.323582  0.922570 -0.000000
  2H   1dz2       0.000000  0.000000 -0.111576  0.192134  0.499566 -0.000000
  2H   1dxz       0.506068 -0.000000 -0.000000  0.000000  0.000000  0.052570
  2H   1dyz       0.292179 -0.000000  0.000000 -0.000000 -0.000000 -0.091054
  2H   1dx2y2     0.000000  0.177102  0.246332 -0.173178  0.008980 -0.000000
  2H   1dxy      -0.000000 -0.102250  0.174925 -0.446140  0.015553 -0.000000
  3H   1s         0.000000 -0.000000 -0.243401 -0.424050 -0.217316  0.000000
  3H   2s         0.000000 -0.000000 -0.955149 -1.664050 -1.256434  0.000000
  3H   3s        -0.000000 -0.000000 -0.272541 -0.474818 -0.383987  0.000000
  3H   1pz       -0.000000 -0.000000 -0.000000 -0.000000  0.000000  0.560900
  3H   1px       -0.000000 -0.441008  0.316525  0.046751  0.180258 -0.000000
  3H   1py        0.000000  0.254616  0.045019  0.369818  0.312216 -0.000000
  3H   2pz        0.000000  0.000000 -0.000000 -0.000000 -0.000000 -0.531830
  3H   2px        0.000000  0.342379 -0.455039 -0.753333 -0.532646  0.000000
  3H   2py       -0.000000 -0.197673 -0.748835 -1.327378 -0.922570  0.000000
  3H   1dz2      -0.000000 -0.000000 -0.110605 -0.192695  0.499566 -0.000000
  3H   1dxz      -0.506068  0.000000 -0.000000 -0.000000  0.000000  0.052570
  3H   1dyz       0.292179 -0.000000 -0.000000 -0.000000  0.000000  0.091054
  3H   1dx2y2    -0.000000 -0.177102  0.245454  0.174419  0.008980 -0.000000
  3H   1dxy      -0.000000 -0.102250 -0.172672 -0.447017 -0.015553  0.000000
                     48        49        50        51        52        53   
                   3.94558   3.94558   4.11368   4.11368   4.30628   4.30836
                   0.00000   0.00000   0.00000   0.00000   0.00000   0.00000
                  --------  --------  --------  --------  --------  --------
  0N   1s         0.000000  0.000000  0.000000 -0.000000  0.000000  0.000000
  0N   2s         0.000000  0.000000  0.000000 -0.000000  0.000000  0.000000
  0N   3s        -0.000000 -0.000000  0.000000  0.000000 -0.000000 -0.000000
  0N   4s         0.000000  0.000000  0.000000 -0.000000  0.000000  0.000000
  0N   5s        -0.000000 -0.000000  0.000000 -0.000000  0.000000 -0.000000
  0N   1pz       -0.000000 -0.000000  0.000000  0.000000 -0.000000 -0.111956
  0N   1px        0.000000  0.000000  0.000000 -0.000950 -0.000000 -0.000000
  0N   1py        0.000000 -0.000000  0.000950  0.000000 -0.000000 -0.000000
  0N   2pz       -0.000000 -0.000000  0.000000  0.000000 -0.000000 -0.938800
  0N   2px       -0.000000 -0.000000 -0.000010  0.926943  0.000000 -0.000000
  0N   2py       -0.000000  0.000000 -0.926943 -0.000010  0.000000 -0.000000
  0N   3pz        0.000000  0.000000 -0.000000  0.000000 -0.000000 -0.268059
  0N   3px       -0.000000 -0.000000 -0.000018  1.601534  0.000000  0.000000
  0N   3py       -0.000000  0.000000 -1.601534 -0.000018 -0.000000 -0.000000
  0N   1dz2      -0.000000 -0.000000 -0.000000  0.000000 -0.000000  0.000000
  0N   1dxz      -0.043129 -0.000062  0.000000 -0.000000 -0.000000  0.000000
  0N   1dyz      -0.000062  0.043129  0.000000  0.000000 -0.000000  0.000000
  0N   1dx2y2    -0.000000 -0.000000 -0.000002  0.158028  0.000000  0.000000
  0N   1dxy       0.000000 -0.000000  0.158028  0.000002  0.000000 -0.000000
  0N   2dz2      -0.000000 -0.000000  0.000000 -0.000000 -0.000000 -0.000000
  0N   2dxz      -0.072188 -0.000103  0.000000 -0.000000  0.000000 -0.000000
  0N   2dyz      -0.000103  0.072188  0.000000  0.000000  0.000000 -0.000000
  0N   2dx2y2    -0.000000 -0.000000  0.000007 -0.592196  0.000000 -0.000000
  0N   2dxy       0.000000 -0.000000 -0.592196 -0.000007  0.000000  0.000000
  0N   1f0       -0.000000 -0.000000  0.000000 -0.000000 -0.000000 -0.089034
[...]
                                    ---------------------
   (+) Dipole Moment


------------------------------------------------------------------------------
                       ORCA ELECTRIC PROPERTIES CALCULATION
------------------------------------------------------------------------------

Dipole Moment Calculation                       ... on
Quadrupole Moment Calculation                   ... off
Polarizability Calculation                      ... off
GBWName                                         ... NH3‡.gbw
Electron density file                           ... NH3‡.scfp
The origin for moment calculation is the CENTER OF MASS  = ( 0.000000, -0.000000 -0.000000)

-------------
DIPOLE MOMENT
-------------
                                X             Y             Z
Electronic contribution:     -0.00000      -0.00000      -0.00000
Nuclear contribution   :     -0.00000       0.00000       0.00000
                        -----------------------------------------
Total Dipole Moment    :     -0.00000      -0.00000       0.00000
                        -----------------------------------------
Magnitude (a.u.)       :      0.00000
Magnitude (Debye)      :      0.00000



--------------------
Rotational spectrum 
--------------------
 
Rotational constants in cm-1:    11.294256    11.294256     5.647128 
Rotational constants in MHz : 338593.277020 338593.275872 169296.638223 

 Dipole components along the rotational axes: 
x,y,z [a.u.] :    -0.000000     0.000000     0.000000 
x,y,z [Debye]:    -0.000000     0.000000     0.000000 

 

                         *** MP2 UNRELAXED DENSITY ***

------------------------------------------------------------------------------
                       ORCA ELECTRIC PROPERTIES CALCULATION
------------------------------------------------------------------------------

Dipole Moment Calculation                       ... on
Quadrupole Moment Calculation                   ... off
Polarizability Calculation                      ... off
GBWName                                         ... NH3‡.gbw
Electron density file                           ... NH3‡.pmp2ur
The origin for moment calculation is the CENTER OF MASS  = ( 0.000000, -0.000000 -0.000000)

-------------
DIPOLE MOMENT
-------------
                                X             Y             Z
Electronic contribution:     -0.00000      -0.00000      -0.00000
Nuclear contribution   :     -0.00000       0.00000       0.00000
                        -----------------------------------------
Total Dipole Moment    :     -0.00000      -0.00000       0.00000
                        -----------------------------------------
Magnitude (a.u.)       :      0.00000
Magnitude (Debye)      :      0.00000



--------------------
Rotational spectrum 
--------------------
 
Rotational constants in cm-1:    11.294256    11.294256     5.647128 
Rotational constants in MHz : 338593.277020 338593.275872 169296.638223 

 Dipole components along the rotational axes: 
x,y,z [a.u.] :    -0.000000     0.000000     0.000000 
x,y,z [Debye]:    -0.000000     0.000000     0.000000 

 

                           *** MP2 RELAXED DENSITY ***

------------------------------------------------------------------------------
                       ORCA ELECTRIC PROPERTIES CALCULATION
------------------------------------------------------------------------------

Dipole Moment Calculation                       ... on
Quadrupole Moment Calculation                   ... off
Polarizability Calculation                      ... off
GBWName                                         ... NH3‡.gbw
Electron density file                           ... NH3‡.pmp2re
The origin for moment calculation is the CENTER OF MASS  = ( 0.000000, -0.000000 -0.000000)

-------------
DIPOLE MOMENT
-------------
                                X             Y             Z
Electronic contribution:     -0.00000      -0.00000      -0.00000
Nuclear contribution   :     -0.00000       0.00000       0.00000
                        -----------------------------------------
Total Dipole Moment    :     -0.00000      -0.00000       0.00000
                        -----------------------------------------
Magnitude (a.u.)       :      0.00000
Magnitude (Debye)      :      0.00000



--------------------
Rotational spectrum 
--------------------
 
Rotational constants in cm-1:    11.294256    11.294256     5.647128 
Rotational constants in MHz : 338593.277020 338593.275872 169296.638223 

 Dipole components along the rotational axes: 
x,y,z [a.u.] :    -0.000000     0.000000     0.000000 
x,y,z [Debye]:    -0.000000     0.000000     0.000000 

 
------------------------------------------------------------------------------
                         ORCA MP2 H E S S I A N CALCULATION
------------------------------------------------------------------------------

Calculating analytic MP2 second derivatives ... (>NH3‡.last_mp2) done

-----------------------
VIBRATIONAL FREQUENCIES
-----------------------

Scaling factor for frequencies =  1.000000000  (already applied!)

   0:         0.00 cm**-1
   1:         0.00 cm**-1
   2:         0.00 cm**-1
   3:         0.00 cm**-1
   4:         0.00 cm**-1
   5:         0.00 cm**-1
   6:      -830.33 cm**-1 ***imaginary mode***
   7:      1586.55 cm**-1
   8:      1586.58 cm**-1
   9:      3665.26 cm**-1
  10:      3888.09 cm**-1
  11:      3888.11 cm**-1


------------
NORMAL MODES
------------

These modes are the Cartesian displacements weighted by the diagonal matrix
M(i,i)=1/sqrt(m[i]) where m[i] is the mass of the displaced atom
Thus, these vectors are normalized but *not* orthogonal

                  0          1          2          3          4          5    
      0       0.000000   0.000000   0.000000   0.000000   0.000000   0.000000
      1       0.000000   0.000000   0.000000   0.000000   0.000000   0.000000
      2       0.000000   0.000000   0.000000   0.000000   0.000000   0.000000
      3       0.000000   0.000000   0.000000   0.000000   0.000000   0.000000
      4       0.000000   0.000000   0.000000   0.000000   0.000000   0.000000
      5       0.000000   0.000000   0.000000   0.000000   0.000000   0.000000
      6       0.000000   0.000000   0.000000   0.000000   0.000000   0.000000
      7       0.000000   0.000000   0.000000   0.000000   0.000000   0.000000
      8       0.000000   0.000000   0.000000   0.000000   0.000000   0.000000
      9       0.000000   0.000000   0.000000   0.000000   0.000000   0.000000
     10       0.000000   0.000000   0.000000   0.000000   0.000000   0.000000
     11       0.000000   0.000000   0.000000   0.000000   0.000000   0.000000
                  6          7          8          9         10         11    
      0       0.000000  -0.000004  -0.080456   0.000003  -0.000029   0.086358
      1       0.000000   0.080455  -0.000004  -0.000000  -0.086359  -0.000029
      2      -0.123688   0.000000  -0.000000  -0.000000  -0.000000   0.000000
      3      -0.000000  -0.000003  -0.065844   0.577323   0.000270  -0.813358
      4      -0.000000  -0.811181   0.000038   0.000000  -0.013316  -0.000004
      5       0.572917  -0.000000   0.000000   0.000000   0.000000  -0.000000
      6      -0.000000  -0.379741   0.591944  -0.288681  -0.357887  -0.193445
      7      -0.000000  -0.153384   0.379769   0.500012   0.606555   0.358141
      8       0.572917  -0.000000   0.000000   0.000000   0.000000   0.000000
      9      -0.000000   0.379796   0.591908  -0.288681   0.358015  -0.193207
     10       0.000000  -0.153420  -0.379755  -0.500012   0.606793  -0.357738
     11       0.572917   0.000000   0.000000   0.000000  -0.000000   0.000000


-----------
IR SPECTRUM
-----------

 Mode    freq (cm**-1)   T**2         TX         TY         TZ
-------------------------------------------------------------------
   7:      1586.55   35.551090  (  0.000279  -5.962474  -0.000000)
   8:      1586.58   35.533724  (  5.961017   0.000280   0.000000)
   9:      3665.26    0.000001  ( -0.000982   0.000000   0.000000)
  10:      3888.09   60.683375  (  0.002587   7.789953   0.000000)
  11:      3888.11   60.692912  ( -7.790565   0.002587   0.000000)

The first frequency considered to be a vibration is 7
The total number of vibrations considered is 5


--------------------------
THERMOCHEMISTRY AT 298.15K
--------------------------

Temperature         ... 298.15 K
Pressure            ... 1.00 atm
Total Mass          ... 17.03 AMU

Throughout the following assumptions are being made:
  (1) The electronic state is orbitally nondegenerate
  (2) There are no thermally accessible electronically excited states
  (3) Hindered rotations indicated by low frequency modes are not
      treated as such but are treated as vibrations and this may
      cause some error
  (4) All equations used are the standard statistical mechanics
      equations for an ideal gas
  (5) All vibrations are strictly harmonic

freq.    1586.55  E(vib)   ...       0.00 
freq.    1586.58  E(vib)   ...       0.00 
freq.    3665.26  E(vib)   ...       0.00 
freq.    3888.09  E(vib)   ...       0.00 
freq.    3888.11  E(vib)   ...       0.00 

------------
INNER ENERGY
------------

The inner energy is: U= E(el) + E(ZPE) + E(vib) + E(rot) + E(trans)
    E(el)   - is the total energy from the electronic structure calculation
              = E(kin-el) + E(nuc-el) + E(el-el) + E(nuc-nuc)
    E(ZPE)  - the the zero temperature vibrational energy from the frequency calculation
    E(vib)  - the the finite temperature correction to E(ZPE) due to population
              of excited vibrational states
    E(rot)  - is the rotational thermal energy
    E(trans)- is the translational thermal energy

Summary of contributions to the inner energy U:
Electronic energy                ...    -56.46842881 Eh
Zero point energy                ...      0.03329450 Eh      20.89 kcal/mol
Thermal vibrational correction   ...      0.00000684 Eh       0.00 kcal/mol
Thermal rotational correction    ...      0.00141627 Eh       0.89 kcal/mol
Thermal translational correction ...      0.00141627 Eh       0.89 kcal/mol
-----------------------------------------------------------------------
Total thermal energy                    -56.43229492 Eh


Summary of corrections to the electronic energy:
(perhaps to be used in another calculation)
Total thermal correction                  0.00283939 Eh       1.78 kcal/mol
Non-thermal (ZPE) correction              0.03329450 Eh      20.89 kcal/mol
-----------------------------------------------------------------------
Total correction                          0.03613389 Eh      22.67 kcal/mol


--------
ENTHALPY
--------

The enthalpy is H = U + kB*T
                kB is Boltzmann's constant
Total free energy                 ...    -56.43229492 Eh 
Thermal Enthalpy correction       ...      0.00094421 Eh       0.59 kcal/mol
-----------------------------------------------------------------------
Total Enthalpy                    ...    -56.43135071 Eh


Note: Rotational entropy computed according to Herzberg 
Infrared and Raman Spectra, Chapter V,1, Van Nostrand Reinhold, 1945 
Point Group:  D3h, Symmetry Number:   6  
Rotational constants in cm-1:    11.294256    11.294256     5.647128 

Vibrational entropy computed according to the QRRHO of S. Grimme
Chem.Eur.J. 2012 18 9955


-------
ENTROPY
-------

The entropy contributions are T*S = T*(S(el)+S(vib)+S(rot)+S(trans))
     S(el)   - electronic entropy
     S(vib)  - vibrational entropy
     S(rot)  - rotational entropy
     S(trans)- translational entropy
The entropies will be listed as mutliplied by the temperature to get
units of energy

Electronic entropy                ...      0.00000000 Eh      0.00 kcal/mol
Vibrational entropy               ...      0.00000774 Eh      0.00 kcal/mol
Rotational entropy                ...      0.00471283 Eh      2.96 kcal/mol
Translational entropy             ...      0.01636425 Eh     10.27 kcal/mol
-----------------------------------------------------------------------
Final entropy term                ...      0.02108482 Eh     13.23 kcal/mol

In case the symmetry of your molecule has not been determined correctly
or in case you have a reason to use a different symmetry number we print 
out the resulting rotational entropy values for sn=1,12 :
 --------------------------------------------------------
|  sn= 1 | S(rot)=       0.00640458 Eh      4.02 kcal/mol|
|  sn= 2 | S(rot)=       0.00575012 Eh      3.61 kcal/mol|
|  sn= 3 | S(rot)=       0.00536729 Eh      3.37 kcal/mol|
|  sn= 4 | S(rot)=       0.00509567 Eh      3.20 kcal/mol|
|  sn= 5 | S(rot)=       0.00488498 Eh      3.07 kcal/mol|
|  sn= 6 | S(rot)=       0.00471283 Eh      2.96 kcal/mol|
|  sn= 7 | S(rot)=       0.00456729 Eh      2.87 kcal/mol|
|  sn= 8 | S(rot)=       0.00444121 Eh      2.79 kcal/mol|
|  sn= 9 | S(rot)=       0.00433000 Eh      2.72 kcal/mol|
|  sn=10 | S(rot)=       0.00423052 Eh      2.65 kcal/mol|
|  sn=11 | S(rot)=       0.00414053 Eh      2.60 kcal/mol|
|  sn=12 | S(rot)=       0.00405838 Eh      2.55 kcal/mol|
 --------------------------------------------------------


-------------------
GIBBS FREE ENERGY
-------------------

The Gibbs free energy is G = H - T*S

Total enthalpy                    ...    -56.43135071 Eh 
Total entropy correction          ...     -0.02108482 Eh    -13.23 kcal/mol
-----------------------------------------------------------------------
Final Gibbs free energy         ...    -56.45243553 Eh

For completeness - the Gibbs free energy minus the electronic energy
G-E(el)                           ...      0.01599327 Eh     10.04 kcal/mol




------------------------------------------------------------------------------- 
                    Intrinsic Reaction Coordinate Calculation                  
------------------------------------------------------------------------------- 

System:
Nr. of atoms                        .... 4
Algorithm: SD (steepest descent step) plus correction
Settings:
Max. no of cycles        MaxIter    .... 1000
Direction                           .... Forward and backward
Initial displacement Hessian type   .... Read
Hessian Filename                    .... NH3‡.hess
Following Hessian mode              .... 0
Initial displacement type           .... Energy
  Initial displacement energy change.... 0.250 mEh
Coordinate system following type    .... Cartesian
Length of steepest descent step     .... 0.150 bohr
Do parabolic fit 
  if SD step is uphill              .... YES
Do Correction to SD step            .... YES
Scaling for length of correction
  compared to SD step               .... 0.333
Do parabolic fit to SD correction   .... YES
Only interpolate for parabolic fit  .... YES
Do update to length of
  SD step and correction            .... YES
Convergence Tolerances:
  Max. Gradient            TolMAXG  ....  1.0000e-03 Eh/bohr
  RMS Gradient             TolRMSG  ....  2.0000e-04 Eh/bohr
Storing full IRC trajectory in      .... NH3‡_IRC_Full_trj.xyz
Storing forward trajectory in       .... NH3‡_IRC_F_trj.xyz
Storing backward trajectory in      .... NH3‡_IRC_B_trj.xyz


 ...good, the file NH3‡.hess exists
Reading the hessian file           ...... done
Determining length of initial displacement:
  Requested energy change (quadratic behavior): 0.250 mEh
  Resulting scaling factor for initial displacement along normalized TS mode: 0.1260

         *************************************************************
         *                          FORWARD IRC                      *
         *************************************************************

Iteration    E(Eh)      dE(kcal/mol)  max(|G|)   RMS(G) 
Convergence thresholds                0.001000  0.000200            
    0       -56.468674   -0.154057    0.005492  0.001884
    1       -56.471080   -1.663506    0.012594  0.007279
    2       -56.473449   -3.149914    0.014590  0.005186
    3       -56.475620   -4.512353    0.006130  0.003477
    4       -56.476023   -4.765729    0.004198  0.002265
    5       -56.476173   -4.859653    0.002659  0.001389
    6       -56.476260   -4.913892    0.001496  0.000676
    7       -56.476263   -4.916328    0.001049  0.000424
    8       -56.476266   -4.917995    0.000699  0.000302
    9       -56.476268   -4.919089    0.000476  0.000226
   10       -56.476269   -4.919650    0.000350  0.000171

                      ***********************HURRAY********************
                      ***            THE IRC HAS CONVERGED          ***
                      *************************************************


         *************************************************************
         *                          BACKWARD IRC                     *
         *************************************************************

Iteration    E(Eh)      dE(kcal/mol)  max(|G|)   RMS(G) 
Convergence thresholds                0.001000  0.000200            
    0       -56.468674   -0.154057    0.005492  0.001884
    1       -56.471080   -1.663505    0.012594  0.007279
    2       -56.473449   -3.149914    0.014590  0.005186
    3       -56.475620   -4.512353    0.006129  0.003477
    4       -56.476023   -4.765730    0.004191  0.002265
    5       -56.476173   -4.859674    0.002635  0.001388
    6       -56.476260   -4.914054    0.001444  0.000646
    7       -56.476264   -4.916393    0.001016  0.000411
    8       -56.476266   -4.918076    0.000674  0.000298
    9       -56.476268   -4.919108    0.000470  0.000223
   10       -56.476269   -4.919674    0.000343  0.000170

                      ***********************HURRAY********************
                      ***            THE IRC HAS CONVERGED          ***
                      *************************************************


---------------------------------------------------------------
                       IRC PATH SUMMARY              
---------------------------------------------------------------
All gradients are in Eh/Bohr.

Step        E(Eh)      dE(kcal/mol)  max(|G|)   RMS(G) 
   1       -56.476269   -4.919674    0.000343  0.000170
   2       -56.476268   -4.919108    0.000470  0.000223
   3       -56.476266   -4.918076    0.000674  0.000298
   4       -56.476264   -4.916393    0.001016  0.000411
   5       -56.476260   -4.914054    0.001444  0.000646
   6       -56.476173   -4.859674    0.002635  0.001388
   7       -56.476023   -4.765730    0.004191  0.002265
   8       -56.475620   -4.512353    0.006129  0.003477
   9       -56.473449   -3.149914    0.014590  0.005186
  10       -56.471080   -1.663505    0.012594  0.007279
  11       -56.468674   -0.154057    0.005492  0.001884
  12       -56.468429    0.000000    0.000018  0.000009 <= TS
  13       -56.468674   -0.154057    0.005492  0.001884
  14       -56.471080   -1.663506    0.012594  0.007279
  15       -56.473449   -3.149914    0.014590  0.005186
  16       -56.475620   -4.512353    0.006130  0.003477
  17       -56.476023   -4.765729    0.004198  0.002265
  18       -56.476173   -4.859653    0.002659  0.001389
  19       -56.476260   -4.913892    0.001496  0.000676
  20       -56.476263   -4.916328    0.001049  0.000424
  21       -56.476266   -4.917995    0.000699  0.000302
  22       -56.476268   -4.919089    0.000476  0.000226
  23       -56.476269   -4.919650    0.000350  0.000171

Timings for individual modules:

Sum of individual times         ...     1196.051 sec (=  19.934 min)
GTO integral calculation        ...      138.073 sec (=   2.301 min)  11.5 %
SCF iterations                  ...      440.169 sec (=   7.336 min)  36.8 %
MP2 module                      ...      578.839 sec (=   9.647 min)  48.4 %
Geometry relaxation             ...        0.716 sec (=   0.012 min)   0.1 %
Analytical frequency calculation...       38.253 sec (=   0.638 min)   3.2 %
                             ****ORCA TERMINATED NORMALLY****
TOTAL RUN TIME: 0 days 0 hours 19 minutes 58 seconds 787 msec
