(SLURM) JOB ID:         88

                                 *****************
                                 * O   R   C   A *
                                 *****************

           --- An Ab Initio, DFT and Semiempirical electronic structure package ---

                  #######################################################
                  #                        -***-                        #
                  #          Department of theory and spectroscopy      #
                  #               Directorship: Frank Neese             #
                  #        Max Planck Institute fuer Kohlenforschung    #
                  #                Kaiser Wilhelm Platz 1               #
                  #                 D-45470 Muelheim/Ruhr               #
                  #                      Germany                        #
                  #                                                     #
                  #                  All rights reserved                #
                  #                        -***-                        #
                  #######################################################


                         Program Version 4.2.1 -  RELEASE  -


 With contributions from (in alphabetic order):
   Daniel Aravena         : Magnetic Suceptibility
   Michael Atanasov       : Ab Initio Ligand Field Theory (pilot matlab implementation)
   Alexander A. Auer      : GIAO ZORA, VPT2
   Ute Becker             : Parallelization
   Giovanni Bistoni       : ED, misc. LED, open-shell LED, HFLD
   Martin Brehm           : Molecular dynamics
   Dmytro Bykov           : SCF Hessian
   Vijay G. Chilkuri      : MRCI spin determinant printing, contributions to CSF-ICE
   Dipayan Datta          : RHF DLPNO-CCSD density
   Achintya Kumar Dutta   : EOM-CC, STEOM-CC
   Dmitry Ganyushin       : Spin-Orbit,Spin-Spin,Magnetic field MRCI
   Miquel Garcia          : C-PCM Hessian, Gaussian charge scheme
   Yang Guo               : DLPNO-NEVPT2, CIM, IAO-localization
   Andreas Hansen         : Spin unrestricted coupled pair/coupled cluster methods
   Benjamin Helmich-Paris : CASSCF linear response (MC-RPA)
   Lee Huntington         : MR-EOM, pCC
   Robert Izsak           : Overlap fitted RIJCOSX, COSX-SCS-MP3, EOM
   Christian Kollmar      : KDIIS, OOCD, Brueckner-CCSD(T), CCSD density
   Simone Kossmann        : Meta GGA functionals, TD-DFT gradient, OOMP2, MP2 Hessian
   Martin Krupicka        : AUTO-CI
   Lucas Lang             : DCDCAS
   Dagmar Lenk            : GEPOL surface, SMD
   Dimitrios Liakos       : Extrapolation schemes; Compound Job, initial MDCI parallelization
   Dimitrios Manganas     : Further ROCIS development; embedding schemes
   Dimitrios Pantazis     : SARC Basis sets
   Taras Petrenko         : DFT Hessian,TD-DFT gradient, ASA, ECA, R-Raman, ABS, FL, XAS/XES, NRVS
   Peter Pinski           : DLPNO-MP2, DLPNO-MP2 Gradient
   Christoph Reimann      : Effective Core Potentials
   Marius Retegan         : Local ZFS, SOC
   Christoph Riplinger    : Optimizer, TS searches, QM/MM, DLPNO-CCSD(T), (RO)-DLPNO pert. Triples
   Tobias Risthaus        : Range-separated hybrids, TD-DFT gradient, RPA, STAB
   Michael Roemelt        : Original ROCIS implementation
   Masaaki Saitow         : Open-shell DLPNO-CCSD energy and density
   Barbara Sandhoefer     : DKH picture change effects
   Avijit Sen             : IP-ROCIS
   Kantharuban Sivalingam : CASSCF convergence, NEVPT2, FIC-MRCI
   Bernardo de Souza      : ESD, SOC TD-DFT
   Georgi Stoychev        : AutoAux, RI-MP2 NMR
   Willem Van den Heuvel  : Paramagnetic NMR
   Boris Wezisla          : Elementary symmetry handling
   Frank Wennmohs         : Technical directorship


 We gratefully acknowledge several colleagues who have allowed us to
 interface, adapt or use parts of their codes:
   Stefan Grimme, W. Hujo, H. Kruse,             : VdW corrections, initial TS optimization,
                  C. Bannwarth                     DFT functionals, gCP, sTDA/sTD-DF
   Ed Valeev, F. Pavosevic, A. Kumar             : LibInt (2-el integral package), F12 methods
   Garnet Chan, S. Sharma, J. Yang, R. Olivares  : DMRG
   Ulf Ekstrom                                   : XCFun DFT Library
   Mihaly Kallay                                 : mrcc  (arbitrary order and MRCC methods)
   Andreas Klamt, Michael Diedenhofen            : otool_cosmo (COSMO solvation model)
   Jiri Pittner, Ondrej Demel                    : Mk-CCSD
   Frank Weinhold                                : gennbo (NPA and NBO analysis)
   Christopher J. Cramer and Donald G. Truhlar   : smd solvation model
   Lars Goerigk                                  : TD-DFT with DH, B97 family of functionals
   V. Asgeirsson, H. Jonsson                     : NEB implementation
   FAccTs GmbH                                   : IRC, NEB, NEB-TS, Multilevel, MM, QM/MM, CI optimization
   S Lehtola, MJT Oliveira, MAL Marques          : LibXC Library


 Your calculation uses the libint2 library for the computation of 2-el integrals
 For citations please refer to: http://libint.valeyev.net

 Your ORCA version has been built with support for libXC version: 4.2.3
 For citations please refer to: https://tddft.org/programs/libxc/

 This ORCA versions uses:
   CBLAS   interface :  Fast vector & matrix operations
   LAPACKE interface :  Fast linear algebra routines
   SCALAPACK package :  Parallel linear algebra routines




***************************************
The coordinates will be read from file: init.xyz
***************************************


Your calculation utilizes the SMD solvation module
Please cite in your paper:
A.V. Marenich, C.J. Cramer, D.G. Truhlar J. Phys. Chem. B, 113, (2009), 6378 

Your calculation utilizes the semiempirical GFN2-xTB method
Please cite in your paper:
C. Bannwarth, Ehlert S., S. Grimme,  J. Chem. Theory Comput., 15, (2019), 1652.
   

----- Orbital basis set information -----
Your calculation utilizes the basis: def2-SVP
   F. Weigend and R. Ahlrichs, Phys. Chem. Chem. Phys. 7, 3297 (2005).

================================================================================
                                        WARNINGS
                       Please study these warnings very carefully!
================================================================================

WARNING: Gradients needed for Numerical Frequencies
  ===> : Setting RunTyp to EnGrad

WARNING: The environment variable RSH_COMMAND is not set!
  ===> : All Displacements for the Numerical Hessian calculation
         will be started on localhost

WARNING: Found dipole moment calculation with XTB calculation
  ===> : Switching off dipole moment calculation


INFO   : the flag for use of LIBINT has been found!

================================================================================
                                       INPUT FILE
================================================================================
NAME = /tmp/slurm-scratch/freq.88/freq.inp
|  1> ! XTB2 NumFreq
|  2> %maxcore 1450
|  3> 
|  4> * xyzfile 0 1 init.xyz
|  5> 
|  6> %cpcm
|  7>  smd true
|  8>  smdsolvent "ch2cl2"
|  9> end
| 10> %pal nprocs 8 end
| 11> 
| 12>                          ****END OF INPUT****
================================================================================

                     *******************************
                     * Energy+Gradient Calculation *
                     *******************************

      -----------------------------------------------------------      
     |                   =====================                   |     
     |                           x T B                           |     
     |                   =====================                   |     
     |                         S. Grimme                         |     
     |          Mulliken Center for Theoretical Chemistry        |     
     |                    University of Bonn                     |     
      -----------------------------------------------------------      

   * xtb version 6.3.0 (preview) compiled by 'ehlert@majestix' on 2020-01-15

   This program is distributed in the hope that it will be useful,
   but WITHOUT ANY WARRANTY; without even the implied warranty of
   MERCHANTABILITY or FITNESS FOR A PARTICULAR PURPOSE.
   
   FOR NON-COMMERCIAL, ACADEMIA USE ONLY.
   
   Cite this work as:
   * S. Grimme, C. Bannwarth, P. Shushkov, J. Chem. Theory Comput., 2017,
     13, 1989-2009. DOI: 10.1021/acs.jctc.7b00118
   * C. Bannwarth, S. Ehlert and S. Grimme., J. Chem. Theory Comput., 2019,
     15, 1652-1671. DOI: 10.1021/acs.jctc.8b01176
   * P. Pracht, E. Caldeweyher, S. Ehlert, S. Grimme, ChemRxiv, 2019, preprint.
     DOI: 10.26434/chemrxiv.8326202.v1
   * S. Grimme, S. Spicher unpublished
   
   for DFT-D4:
   * E. Caldeweyher, C. Bannwarth and S. Grimme, J. Chem. Phys., 2017,
     147, 034112. DOI: 10.1063/1.4993215
   * E. Caldeweyher, S. Ehlert, A. Hansen, H. Neugebauer, S. Spicher,
     C. Bannwarth and S. Grimme, J. Chem. Phys., 2019, 150, 154122.
     DOI: 10.1063/1.5090222
   
   for sTDA-xTB:
   * S. Grimme and C. Bannwarth, J. Chem. Phys., 2016, 145, 054103.
     DOI: 10.1063/1.4959605
   
   in the mass-spec context:
   * V. Asgeirsson, C. Bauer and S. Grimme, Chem. Sci., 2017, 8, 4879.
     DOI: 10.1039/c7sc00601b
   
   for metadynamics refer to:
   * S. Grimme, J. Chem. Theory Comput., 2019, 155, 2847-2862
     DOI: 10.1021/acs.jctc.9b00143
   
   with help from (in alphabetical order)
   C. Bannwarth, F. Bohle, G. Brandenburg, E. Caldeweyher, M. Checinski,
   S. Dohm, S. Ehlert, S. Ehrlich, F. März, H. Neugebauer, J. Pisarek,
   P. Pracht, P. Shushkov, and S. Spicher.
   
 * started run on 2020/08/10 at 03:23:08.979     

           -------------------------------------------------
          |                Calculation Setup                |
           -------------------------------------------------

          program call               : /opt/orca/otool_xtb /tmp/slurm-scratch/freq.88/freq_XTB.xyz --grad -c 0 -u 0 -P 8 --namespace /tmp/slurm-scratch/freq.88/freq --gbsa CH2Cl2
          hostname                   : headnode-pbs
          calculation namespace      : /tmp/slurm-scratch/freq.88/freq
          coordinate file            : /tmp/slurm-scratch/freq.88/freq_XTB.xyz
          omp threads                :                     8
          number of atoms            :                    36
          number of electrons        :                    88
          charge                     :                     0
          spin                       :                   0.0
          first test random number   :      0.46404562631802


molecular fragmentation (1/2 indicates fragments):
111111111111111111121222211111111111
# atoms in fragment 1/2:    31     5
 fragment masses (1/2) :      180.27       35.02
CMA distance (Bohr)    :   6.392
constraining FC (au)   :  0.0500

########################################################################
# WARNING! Please study the warnings concerning your input carefully
#  - Process number higher than OMP_NUM_THREADS, I hope you know what you are doing.
########################################################################

           ------------------------------------------------- 
          |                 G F N 2 - x T B                 |
          | Geometry, Frequencies, Noncovalent interactions |
          |            JCTC 2019 parametrisation            |
           ------------------------------------------------- 
             k(s)              :                1.8500
             k(p)              :                2.2300
             k(d)              :                2.2300
             k(f)              :                2.0000
             kEN (H0ij)        :               -2.0000
             D4 a1             :                0.5200
             D4 a2             :                5.0000
             D4 s6             :                1.0000
             D4 s8             :                2.7000
             D4 s9             :                5.0000
             alphaj            :                2.0000

  Z AO/shell   Hii/eV     exponent
  1     Wed Apr 25 08:07:45 CEST 2018   EN: 2.200 GM2: 0.406  GM3: 0.0800  RAES: 1.40
     1s    -10.707211    1.230000
  6     Wed Apr 25 08:07:45 CEST 2018   EN: 2.550 GM2: 0.538  GM3: 0.1500  RAES: 3.00
     2s    -13.970922    2.096432
     2p    -10.063292    1.800000
  7     Wed Apr 25 08:07:45 CEST 2018   EN: 3.040 GM2: 0.461  GM3:-0.0640  RAES: 1.90
     2s    -16.686243    2.339881
     2p    -12.523956    2.014332
  8     Wed Apr 25 08:07:45 CEST 2018   EN: 3.440 GM2: 0.452  GM3:-0.0517  RAES: 1.80
     2s    -20.229985    2.439742
     2p    -15.503117    2.137023

 Solvent             : CH2Cl2
 Using internal parameter file: .param_gbsa2_CH2Cl2
 Gsolv ref. state (COSMO-RS): gsolv [1 M gas/solution]
 temperature (mdtemp)       :    298.150000000000     
 dielectric constant        :    8.93000000000000     
 rho                        :    1.33000000000000     
 mass                       :    84.9300000000000     
 surface tension            :    15.5689454083859     
 probe radius               :   0.719875900000000     
 Gshift (Eh)                :   4.440829173451759E-003
 c1                         :    1.49173776000000     
 soset                      :   0.000000000000000E+000
 HB correction              :  F
           ------------------------------------------------- 
          |        Self-Consistent Charge Iterations        |
           ------------------------------------------------- 

          ...................................................
          :                      SETUP                      :
          :.................................................:
          :  # basis functions                  81          :
          :  # atomic orbitals                  81          :
          :  # shells                           51          :
          :  # electrons                        88          :
          :  max. iterations                   250          :
          :  Hamiltonian                  GFN2-xTB          :
          :  GBSA solvation                   true          :
          :  PC potential                    false          :
          :  electronic temp.          300.0000000     K    :
          :  accuracy                    1.0000000          :
          :  -> integral cutoff          0.2500000E+02      :
          :  -> integral neglect         0.1000000E-07      :
          :  -> SCF convergence          0.1000000E-05 Eh   :
          :  -> wf. convergence          0.1000000E-03 e    :
          :  Broyden damping             0.4000000          :
          ...................................................
  Checking positiv definite overlap ...  done.
 

 iter      E             dE          RMSdq      gap      omega  full diag
   1    -49.8413910 -0.498414E+02  0.401E+00    4.66       0.0  T
   2    -49.9417041 -0.100313E+00  0.230E+00    4.52       1.0  T
   3    -49.9439760 -0.227190E-02  0.918E-01    3.84       1.0  T
   4    -49.9438037  0.172355E-03  0.301E-01    3.82       1.0  T
   5    -49.9464678 -0.266409E-02  0.790E-02    3.88       1.0  T
   6    -49.9464985 -0.307351E-04  0.284E-02    3.94       1.0  T
   7    -49.9465008 -0.232267E-05  0.145E-02    3.94       1.2  T
   8    -49.9465029 -0.208351E-05  0.462E-03    3.94       3.6  T
   9    -49.9465031 -0.133527E-06  0.202E-03    3.94       8.2  T
  10    -49.9465031 -0.409187E-07  0.810E-04    3.94      20.6  T
  11    -49.9465031 -0.356170E-08  0.377E-04    3.94      44.2  T

   *** convergence criteria satisfied after 11 iterations ***

         #    Occupation            Energy/Eh            Energy/eV
      -------------------------------------------------------------
         1        2.0000           -0.7052678             -19.1913
       ...           ...                  ...                  ...
        38        2.0000           -0.4289247             -11.6716
        39        2.0000           -0.4204706             -11.4416
        40        2.0000           -0.4178048             -11.3690
        41        2.0000           -0.4131462             -11.2423
        42        2.0000           -0.4114544             -11.1962
        43        2.0000           -0.3910645             -10.6414
        44        2.0000           -0.3857818             -10.4977 (HOMO)
        45                         -0.2411510              -6.5621 (LUMO)
        46                         -0.2339488              -6.3661
        47                         -0.1170787              -3.1859
        48                         -0.0639642              -1.7406
        49                          0.0028998               0.0789
       ...                                ...                  ...
        81                          0.6381555              17.3651
      -------------------------------------------------------------
                  HL-Gap            0.1446308 Eh            3.9356 eV
             Fermi-level           -0.3134664 Eh           -8.5299 eV

 SCC (total)                   0 d,  0 h,  0 min,  0.031 sec
 SCC setup                      ...        0 min,  0.001 sec (  3.717%)
 Dispersion                     ...        0 min,  0.000 sec (  1.198%)
 integral evaluation            ...        0 min,  0.005 sec ( 17.884%)
 zeroth order Hamiltonian       ...        0 min,  0.000 sec (  0.030%)
 iterations                     ...        0 min,  0.016 sec ( 50.703%)
 molecular gradient             ...        0 min,  0.008 sec ( 25.321%)
 printout                       ...        0 min,  0.000 sec (  1.021%)

         :::::::::::::::::::::::::::::::::::::::::::::::::::::
         ::                     SUMMARY                     ::
         :::::::::::::::::::::::::::::::::::::::::::::::::::::
         :: total energy             -49.359133341888 Eh    ::
         :: total w/o Gsasa/hb       -49.341568871900 Eh    ::
         :: gradient norm              0.032810050853 Eh/a0 ::
         :: HOMO-LUMO gap              3.935604506681 eV    ::
         ::.................................................::
         :: SCC energy               -49.964067568530 Eh    ::
         :: -> isotropic ES            0.167799237952 Eh    ::
         :: -> anisotropic ES         -0.014947341461 Eh    ::
         :: -> anisotropic XC          0.018887421982 Eh    ::
         :: -> dispersion             -0.029272367006 Eh    ::
         :: -> Gsolv                  -0.039546351848 Eh    ::
         ::    -> Gborn               -0.021981881860 Eh    ::
         ::    -> Gsasa               -0.022005299161 Eh    ::
         ::    -> Ghb                  0.000000000000 Eh    ::
         ::    -> Gshift               0.004440829173 Eh    ::
         :: repulsion energy           0.604758888775 Eh    ::
         :: add. restraining           0.000000000000 Eh    ::
         :::::::::::::::::::::::::::::::::::::::::::::::::::::

           -------------------------------------------------
          |                Property Printout                |
           -------------------------------------------------

    * Orbital Energies and Occupations

         #    Occupation            Energy/Eh            Energy/eV
      -------------------------------------------------------------
         1        2.0000           -0.7052678             -19.1913
       ...           ...                  ...                  ...
        32        2.0000           -0.4670683             -12.7096
        33        2.0000           -0.4558670             -12.4048
        34        2.0000           -0.4544676             -12.3667
        35        2.0000           -0.4479647             -12.1897
        36        2.0000           -0.4431612             -12.0590
        37        2.0000           -0.4301523             -11.7050
        38        2.0000           -0.4289247             -11.6716
        39        2.0000           -0.4204706             -11.4416
        40        2.0000           -0.4178048             -11.3690
        41        2.0000           -0.4131462             -11.2423
        42        2.0000           -0.4114544             -11.1962
        43        2.0000           -0.3910645             -10.6414
        44        2.0000           -0.3857818             -10.4977 (HOMO)
        45                         -0.2411510              -6.5621 (LUMO)
        46                         -0.2339488              -6.3661
        47                         -0.1170787              -3.1859
        48                         -0.0639642              -1.7406
        49                          0.0028998               0.0789
        50                          0.0148235               0.4034
        51                          0.0518751               1.4116
        52                          0.0665271               1.8103
        53                          0.0868258               2.3626
        54                          0.0919745               2.5028
        55                          0.1085873               2.9548
       ...                                ...                  ...
        81                          0.6381555              17.3651
      -------------------------------------------------------------
                  HL-Gap            0.1446308 Eh            3.9356 eV
             Fermi-level           -0.3134664 Eh           -8.5299 eV

     #   Z        covCN         q      C6AA      α(0)
     1   6 C      2.966    -0.025    28.615     8.774
     2   6 C      2.920    -0.042    29.052     8.839
     3   6 C      2.914    -0.028    28.703     8.785
     4   6 C      2.915    -0.027    28.686     8.783
     5   6 C      2.916    -0.028    28.702     8.785
     6   6 C      2.916    -0.034    28.858     8.809
     7   6 C      3.659     0.169    18.145     6.113
     8   1 H      0.925     0.045     2.385     2.415
     9   1 H      0.926     0.063     2.169     2.303
    10   1 H      0.925     0.045     2.385     2.415
    11   7 N      3.515    -0.122    23.634     7.220
    12   6 C      3.734    -0.018    20.984     6.538
    13   1 H      0.864     0.280     0.776     1.379
    14   6 C      3.801    -0.070    21.849     6.655
    15   1 H      0.925     0.089     1.887     2.148
    16   1 H      0.925     0.080     1.978     2.200
    17   1 H      0.924     0.053     2.279     2.361
    18   1 H      0.924     0.056     2.249     2.345
    19   8 O      1.642    -0.493    22.742     6.437
    20   8 O      1.262    -0.798    31.107     7.495
    21   1 H      0.805     0.344     0.602     1.218
    22   1 H      0.805     0.220     1.020     1.586
    23   8 O      1.454    -0.731    28.739     7.225
    24   1 H      1.075     0.325     0.636     1.245
    25   1 H      0.805     0.247     0.904     1.493
    26   1 H      0.925     0.063     2.159     2.298
    27   1 H      0.860     0.210     1.057     1.610
    28   1 H      0.925     0.048     2.339     2.392
    29   1 H      0.925     0.040     2.448     2.447
    30   6 C      3.800    -0.056    21.579     6.614
    31   1 H      0.924     0.040     2.444     2.445
    32   1 H      0.924     0.041     2.434     2.440
    33   6 C      3.749    -0.106    22.587     6.778
    34   1 H      0.924     0.040     2.446     2.446
    35   1 H      0.924     0.040     2.454     2.450
    36   1 H      0.924     0.039     2.461     2.453

 Mol. C6AA /au·bohr⁶  :      10727.482134
 Mol. C8AA /au·bohr⁸  :     236641.339460
 Mol. α(0) /au        :        157.941006


Wiberg/Mayer (AO) data.
largest (>0.10) Wiberg bond orders for each atom
          total WBO             WBO to atom ...
     1  C   3.984        C    6 1.416    C    2 1.413    C    7 0.972    C    4 0.109
     2  C   3.990        C    3 1.444    C    1 1.413    H    8 0.967    C    5 0.112
     3  C   3.991        C    2 1.444    C    4 1.438    H   28 0.970    C    6 0.112
     4  C   3.990        C    5 1.440    C    3 1.438    H   10 0.970    C    1 0.109
     5  C   3.991        C    6 1.441    C    4 1.440    H   29 0.971    C    2 0.112
     6  C   3.989        C    5 1.441    C    1 1.416    H    9 0.958    C    3 0.112
     7  C   3.932        O   19 1.081    C    1 0.972    H   26 0.949    N   11 0.870
     8  H   0.998        C    2 0.967
     9  H   0.996        C    6 0.958
    10  H   0.997        C    4 0.970
    11  N   3.658        C   12 0.951    H   27 0.930    C    7 0.870    H   13 0.720
    12  C   3.932        C   14 1.010    H   16 0.968    H   15 0.967    N   11 0.951
    13  H   0.921        N   11 0.720    O   23 0.181
    14  C   3.991        C   12 1.010    C   30 1.003    H   17 0.973    H   18 0.971
    15  H   0.992        C   12 0.967
    16  H   0.993        C   12 0.968
    17  H   0.997        C   14 0.973
    18  H   0.997        C   14 0.971
    19  O   1.966        C    7 1.081    H   21 0.704
    20  O   1.687        H   22 0.943    H   24 0.397    H   21 0.158    O   23 0.111
    21  H   0.881        O   19 0.704    O   20 0.158
    22  H   0.951        O   20 0.943
    23  O   1.812        H   25 0.934    H   24 0.495    H   13 0.181    O   20 0.111
    24  H   0.894        O   23 0.495    O   20 0.397
    25  H   0.939        O   23 0.934
    26  H   0.996        C    7 0.949
    27  H   0.956        N   11 0.930
    28  H   0.997        C    3 0.970
    29  H   0.998        C    5 0.971
    30  C   3.994        C   33 1.020    C   14 1.003    H   31 0.977    H   32 0.977
    31  H   0.998        C   30 0.977
    32  H   0.998        C   30 0.977
    33  C   3.995        C   30 1.020    H   36 0.987    H   34 0.987    H   35 0.987
    34  H   0.998        C   33 0.987
    35  H   0.998        C   33 0.987
    36  H   0.998        C   33 0.987

molecular dipole:
                 x           y           z       tot (Debye)
 q only:       -0.235       3.521       0.434
   full:       -0.340       3.260       0.742       8.542
molecular quadrupole (traceless):
                xx          xy          yy          xz          yz          zz
 q only:       10.753      18.374      -2.166      -1.676       0.518      -8.587
  q+dip:        9.397      14.961       1.714      -2.187      -0.556     -11.110
   full:        8.829      15.287       0.332      -1.640       0.223      -9.161

           -------------------------------------------------
          |                Property Printout                |
           -------------------------------------------------

    * Orbital Energies and Occupations

         #    Occupation            Energy/Eh            Energy/eV
      -------------------------------------------------------------
         1        2.0000           -0.7052678             -19.1913
       ...           ...                  ...                  ...
        32        2.0000           -0.4670683             -12.7096
        33        2.0000           -0.4558670             -12.4048
        34        2.0000           -0.4544676             -12.3667
        35        2.0000           -0.4479647             -12.1897
        36        2.0000           -0.4431612             -12.0590
        37        2.0000           -0.4301523             -11.7050
        38        2.0000           -0.4289247             -11.6716
        39        2.0000           -0.4204706             -11.4416
        40        2.0000           -0.4178048             -11.3690
        41        2.0000           -0.4131462             -11.2423
        42        2.0000           -0.4114544             -11.1962
        43        2.0000           -0.3910645             -10.6414
        44        2.0000           -0.3857818             -10.4977 (HOMO)
        45                         -0.2411510              -6.5621 (LUMO)
        46                         -0.2339488              -6.3661
        47                         -0.1170787              -3.1859
        48                         -0.0639642              -1.7406
        49                          0.0028998               0.0789
        50                          0.0148235               0.4034
        51                          0.0518751               1.4116
        52                          0.0665271               1.8103
        53                          0.0868258               2.3626
        54                          0.0919745               2.5028
        55                          0.1085873               2.9548
       ...                                ...                  ...
        81                          0.6381555              17.3651
      -------------------------------------------------------------
                  HL-Gap            0.1446308 Eh            3.9356 eV
             Fermi-level           -0.3134664 Eh           -8.5299 eV

     #   Z        covCN         q      C6AA      α(0)
     1   6 C      2.966    -0.025    28.615     8.774
     2   6 C      2.920    -0.042    29.052     8.839
     3   6 C      2.914    -0.028    28.703     8.785
     4   6 C      2.915    -0.027    28.686     8.783
     5   6 C      2.916    -0.028    28.702     8.785
     6   6 C      2.916    -0.034    28.858     8.809
     7   6 C      3.659     0.169    18.145     6.113
     8   1 H      0.925     0.045     2.385     2.415
     9   1 H      0.926     0.063     2.169     2.303
    10   1 H      0.925     0.045     2.385     2.415
    11   7 N      3.515    -0.122    23.634     7.220
    12   6 C      3.734    -0.018    20.984     6.538
    13   1 H      0.864     0.280     0.776     1.379
    14   6 C      3.801    -0.070    21.849     6.655
    15   1 H      0.925     0.089     1.887     2.148
    16   1 H      0.925     0.080     1.978     2.200
    17   1 H      0.924     0.053     2.279     2.361
    18   1 H      0.924     0.056     2.249     2.345
    19   8 O      1.642    -0.493    22.742     6.437
    20   8 O      1.262    -0.798    31.107     7.495
    21   1 H      0.805     0.344     0.602     1.218
    22   1 H      0.805     0.220     1.020     1.586
    23   8 O      1.454    -0.731    28.739     7.225
    24   1 H      1.075     0.325     0.636     1.245
    25   1 H      0.805     0.247     0.904     1.493
    26   1 H      0.925     0.063     2.159     2.298
    27   1 H      0.860     0.210     1.057     1.610
    28   1 H      0.925     0.048     2.339     2.392
    29   1 H      0.925     0.040     2.448     2.447
    30   6 C      3.800    -0.056    21.579     6.614
    31   1 H      0.924     0.040     2.444     2.445
    32   1 H      0.924     0.041     2.434     2.440
    33   6 C      3.749    -0.106    22.587     6.778
    34   1 H      0.924     0.040     2.446     2.446
    35   1 H      0.924     0.040     2.454     2.450
    36   1 H      0.924     0.039     2.461     2.453

 Mol. C6AA /au·bohr⁶  :      10727.482134
 Mol. C8AA /au·bohr⁸  :     236641.339460
 Mol. α(0) /au        :        157.941006


Wiberg/Mayer (AO) data.
largest (>0.10) Wiberg bond orders for each atom
          total WBO             WBO to atom ...
     1  C   3.984        C    6 1.416    C    2 1.413    C    7 0.972    C    4 0.109
     2  C   3.990        C    3 1.444    C    1 1.413    H    8 0.967    C    5 0.112
     3  C   3.991        C    2 1.444    C    4 1.438    H   28 0.970    C    6 0.112
     4  C   3.990        C    5 1.440    C    3 1.438    H   10 0.970    C    1 0.109
     5  C   3.991        C    6 1.441    C    4 1.440    H   29 0.971    C    2 0.112
     6  C   3.989        C    5 1.441    C    1 1.416    H    9 0.958    C    3 0.112
     7  C   3.932        O   19 1.081    C    1 0.972    H   26 0.949    N   11 0.870
     8  H   0.998        C    2 0.967
     9  H   0.996        C    6 0.958
    10  H   0.997        C    4 0.970
    11  N   3.658        C   12 0.951    H   27 0.930    C    7 0.870    H   13 0.720
    12  C   3.932        C   14 1.010    H   16 0.968    H   15 0.967    N   11 0.951
    13  H   0.921        N   11 0.720    O   23 0.181
    14  C   3.991        C   12 1.010    C   30 1.003    H   17 0.973    H   18 0.971
    15  H   0.992        C   12 0.967
    16  H   0.993        C   12 0.968
    17  H   0.997        C   14 0.973
    18  H   0.997        C   14 0.971
    19  O   1.966        C    7 1.081    H   21 0.704
    20  O   1.687        H   22 0.943    H   24 0.397    H   21 0.158    O   23 0.111
    21  H   0.881        O   19 0.704    O   20 0.158
    22  H   0.951        O   20 0.943
    23  O   1.812        H   25 0.934    H   24 0.495    H   13 0.181    O   20 0.111
    24  H   0.894        O   23 0.495    O   20 0.397
    25  H   0.939        O   23 0.934
    26  H   0.996        C    7 0.949
    27  H   0.956        N   11 0.930
    28  H   0.997        C    3 0.970
    29  H   0.998        C    5 0.971
    30  C   3.994        C   33 1.020    C   14 1.003    H   31 0.977    H   32 0.977
    31  H   0.998        C   30 0.977
    32  H   0.998        C   30 0.977
    33  C   3.995        C   30 1.020    H   36 0.987    H   34 0.987    H   35 0.987
    34  H   0.998        C   33 0.987
    35  H   0.998        C   33 0.987
    36  H   0.998        C   33 0.987

molecular dipole:
                 x           y           z       tot (Debye)
 q only:       -0.235       3.521       0.434
   full:       -0.340       3.260       0.742       8.542
molecular quadrupole (traceless):
                xx          xy          yy          xz          yz          zz
 q only:       10.753      18.374      -2.166      -1.676       0.518      -8.587
  q+dip:        9.397      14.961       1.714      -2.187      -0.556     -11.110
   full:        8.829      15.287       0.332      -1.640       0.223      -9.161


           -------------------------------------------------
          | TOTAL ENERGY              -49.359133341888 Eh   |
          | GRADIENT NORM               0.032810050853 Eh/α |
          | HOMO-LUMO GAP               3.935604506681 eV   |
           -------------------------------------------------

------------------------------------------------------------------------
 * finished run on 2020/08/10 at 03:23:09.055     
------------------------------------------------------------------------
 total:
 * wall-time:     0 d,  0 h,  0 min,  0.076 sec
 *  cpu-time:     0 d,  0 h,  0 min,  0.537 sec
 * ratio c/w:     7.080 speedup
 SCF:
 * wall-time:     0 d,  0 h,  0 min,  0.031 sec
 *  cpu-time:     0 d,  0 h,  0 min,  0.231 sec
 * ratio c/w:     7.442 speedup


-------------------------   --------------------
FINAL SINGLE POINT ENERGY       -49.359133341890
-------------------------   --------------------


----------------------------------------------------------------------------
                           ORCA NUMERICAL FREQUENCIES
                              (8-process run)
----------------------------------------------------------------------------

Number of atoms                ... 36
Central differences            ... used
Number of displacements        ... 216
Numerical increment            ... 5.000e-03 bohr
IR-spectrum generation         ... on
Raman-spectrum generation      ... off
Surface Crossing Hessian       ... off
List of participating nodes    ...  /tmp/slurm-scratch/freq.88/freq.hostnames

The output will be reduced. Please look at the following files:
SCF program output             ... >/tmp/slurm-scratch/freq.88/freq.lastscf
Integral program output        ... >/tmp/slurm-scratch/freq.88/freq.lastint
Gradient program output        ... >/tmp/slurm-scratch/freq.88/freq.lastgrad
Dipole moment program output   ... >/tmp/slurm-scratch/freq.88/freq.lastmom
AutoCI program output          ... >/tmp/slurm-scratch/freq.88/freq.lastautoci


         <<< Energy and Gradient at the input geometry >>>

        <<< Energy and Gradient at displaced geometries >>>
             <<<Displacing   1/coordinate 3 (+)>>>
             <<<Displacing   3/coordinate 1 (+)>>>
             <<<Displacing   1/coordinate 1 (+)>>>
             <<<Displacing   1/coordinate 3 (-)>>>
             <<<Displacing   3/coordinate 1 (-)>>>
             <<<Displacing   1/coordinate 1 (-)>>>
             <<<Displacing   2/coordinate 2 (+)>>>
             <<<Displacing   3/coordinate 2 (+)>>>
             <<<Displacing   2/coordinate 3 (+)>>>
             <<<Displacing   2/coordinate 2 (-)>>>
             <<<Displacing   2/coordinate 3 (-)>>>
             <<<Displacing   3/coordinate 2 (-)>>>
             <<<Displacing   2/coordinate 1 (+)>>>
             <<<Displacing   2/coordinate 1 (-)>>>
             <<<Displacing   1/coordinate 2 (+)>>>
             <<<Displacing   1/coordinate 2 (-)>>>
             <<<Displacing   3/coordinate 3 (+)>>>
             <<<Displacing   4/coordinate 2 (+)>>>
             <<<Displacing   4/coordinate 1 (+)>>>
             <<<Displacing   4/coordinate 2 (-)>>>
             <<<Displacing   3/coordinate 3 (-)>>>
             <<<Displacing   4/coordinate 1 (-)>>>
             <<<Displacing   5/coordinate 1 (+)>>>
             <<<Displacing   4/coordinate 3 (+)>>>
             <<<Displacing   5/coordinate 2 (+)>>>
             <<<Displacing   5/coordinate 3 (+)>>>
             <<<Displacing   5/coordinate 1 (-)>>>
             <<<Displacing   4/coordinate 3 (-)>>>
             <<<Displacing   5/coordinate 2 (-)>>>
             <<<Displacing   6/coordinate 1 (+)>>>
             <<<Displacing   5/coordinate 3 (-)>>>
             <<<Displacing   6/coordinate 1 (-)>>>
             <<<Displacing   6/coordinate 2 (+)>>>
             <<<Displacing   6/coordinate 3 (+)>>>
             <<<Displacing   7/coordinate 1 (+)>>>
             <<<Displacing   6/coordinate 2 (-)>>>
             <<<Displacing   6/coordinate 3 (-)>>>
             <<<Displacing   7/coordinate 1 (-)>>>
             <<<Displacing   7/coordinate 2 (+)>>>
             <<<Displacing   7/coordinate 3 (+)>>>
             <<<Displacing   8/coordinate 1 (+)>>>
             <<<Displacing   7/coordinate 2 (-)>>>
             <<<Displacing   8/coordinate 2 (+)>>>
             <<<Displacing   7/coordinate 3 (-)>>>
             <<<Displacing   8/coordinate 1 (-)>>>
             <<<Displacing   8/coordinate 3 (+)>>>
             <<<Displacing   8/coordinate 2 (-)>>>
             <<<Displacing   8/coordinate 3 (-)>>>
             <<<Displacing   9/coordinate 1 (+)>>>
             <<<Displacing   9/coordinate 2 (+)>>>
             <<<Displacing   9/coordinate 3 (+)>>>
             <<<Displacing   9/coordinate 1 (-)>>>
             <<<Displacing   9/coordinate 3 (-)>>>
             <<<Displacing   9/coordinate 2 (-)>>>
             <<<Displacing  10/coordinate 1 (+)>>>
             <<<Displacing  10/coordinate 2 (+)>>>
             <<<Displacing  10/coordinate 3 (+)>>>
             <<<Displacing  11/coordinate 1 (+)>>>
             <<<Displacing  10/coordinate 2 (-)>>>
             <<<Displacing  10/coordinate 1 (-)>>>
             <<<Displacing  10/coordinate 3 (-)>>>
             <<<Displacing  11/coordinate 2 (+)>>>
             <<<Displacing  11/coordinate 1 (-)>>>
             <<<Displacing  11/coordinate 2 (-)>>>
             <<<Displacing  11/coordinate 3 (+)>>>
             <<<Displacing  12/coordinate 1 (+)>>>
             <<<Displacing  12/coordinate 2 (+)>>>
             <<<Displacing  11/coordinate 3 (-)>>>
             <<<Displacing  12/coordinate 2 (-)>>>
             <<<Displacing  12/coordinate 1 (-)>>>
             <<<Displacing  12/coordinate 3 (+)>>>
             <<<Displacing  13/coordinate 1 (+)>>>
             <<<Displacing  13/coordinate 2 (+)>>>
             <<<Displacing  13/coordinate 3 (+)>>>
             <<<Displacing  13/coordinate 1 (-)>>>
             <<<Displacing  12/coordinate 3 (-)>>>
             <<<Displacing  13/coordinate 2 (-)>>>
             <<<Displacing  13/coordinate 3 (-)>>>
             <<<Displacing  14/coordinate 1 (+)>>>
             <<<Displacing  14/coordinate 1 (-)>>>
             <<<Displacing  14/coordinate 3 (+)>>>
             <<<Displacing  15/coordinate 1 (+)>>>
             <<<Displacing  14/coordinate 2 (+)>>>
             <<<Displacing  15/coordinate 1 (-)>>>
             <<<Displacing  14/coordinate 2 (-)>>>
             <<<Displacing  14/coordinate 3 (-)>>>
             <<<Displacing  15/coordinate 2 (+)>>>
             <<<Displacing  15/coordinate 3 (+)>>>
             <<<Displacing  16/coordinate 1 (+)>>>
             <<<Displacing  16/coordinate 2 (+)>>>
             <<<Displacing  15/coordinate 2 (-)>>>
             <<<Displacing  15/coordinate 3 (-)>>>
             <<<Displacing  16/coordinate 1 (-)>>>
             <<<Displacing  16/coordinate 3 (+)>>>
             <<<Displacing  16/coordinate 2 (-)>>>
             <<<Displacing  16/coordinate 3 (-)>>>
             <<<Displacing  17/coordinate 1 (+)>>>
             <<<Displacing  17/coordinate 3 (+)>>>
             <<<Displacing  17/coordinate 2 (+)>>>
             <<<Displacing  17/coordinate 1 (-)>>>
             <<<Displacing  17/coordinate 3 (-)>>>
             <<<Displacing  17/coordinate 2 (-)>>>
             <<<Displacing  18/coordinate 1 (+)>>>
             <<<Displacing  18/coordinate 2 (+)>>>
             <<<Displacing  18/coordinate 3 (+)>>>
             <<<Displacing  18/coordinate 1 (-)>>>
             <<<Displacing  19/coordinate 1 (+)>>>
             <<<Displacing  18/coordinate 2 (-)>>>
             <<<Displacing  19/coordinate 1 (-)>>>
             <<<Displacing  19/coordinate 2 (+)>>>
             <<<Displacing  18/coordinate 3 (-)>>>
             <<<Displacing  19/coordinate 2 (-)>>>
             <<<Displacing  19/coordinate 3 (+)>>>
             <<<Displacing  20/coordinate 1 (+)>>>
             <<<Displacing  19/coordinate 3 (-)>>>
             <<<Displacing  20/coordinate 2 (+)>>>
             <<<Displacing  20/coordinate 1 (-)>>>
             <<<Displacing  20/coordinate 2 (-)>>>
             <<<Displacing  20/coordinate 3 (+)>>>
             <<<Displacing  20/coordinate 3 (-)>>>
             <<<Displacing  21/coordinate 1 (+)>>>
             <<<Displacing  21/coordinate 2 (+)>>>
             <<<Displacing  21/coordinate 3 (+)>>>
             <<<Displacing  21/coordinate 1 (-)>>>
             <<<Displacing  21/coordinate 2 (-)>>>
             <<<Displacing  22/coordinate 1 (+)>>>
             <<<Displacing  21/coordinate 3 (-)>>>
             <<<Displacing  22/coordinate 1 (-)>>>
             <<<Displacing  22/coordinate 2 (+)>>>
             <<<Displacing  22/coordinate 3 (+)>>>
             <<<Displacing  22/coordinate 2 (-)>>>
             <<<Displacing  23/coordinate 1 (+)>>>
             <<<Displacing  22/coordinate 3 (-)>>>
             <<<Displacing  23/coordinate 1 (-)>>>
             <<<Displacing  23/coordinate 2 (+)>>>
             <<<Displacing  23/coordinate 3 (+)>>>
             <<<Displacing  24/coordinate 1 (+)>>>
             <<<Displacing  23/coordinate 2 (-)>>>
             <<<Displacing  24/coordinate 2 (+)>>>
             <<<Displacing  23/coordinate 3 (-)>>>
             <<<Displacing  24/coordinate 1 (-)>>>
             <<<Displacing  24/coordinate 3 (+)>>>
             <<<Displacing  24/coordinate 2 (-)>>>
             <<<Displacing  24/coordinate 3 (-)>>>
             <<<Displacing  25/coordinate 1 (+)>>>
             <<<Displacing  25/coordinate 2 (+)>>>
             <<<Displacing  25/coordinate 3 (+)>>>
             <<<Displacing  25/coordinate 1 (-)>>>
             <<<Displacing  25/coordinate 2 (-)>>>
             <<<Displacing  25/coordinate 3 (-)>>>
             <<<Displacing  26/coordinate 1 (+)>>>
             <<<Displacing  26/coordinate 1 (-)>>>
             <<<Displacing  26/coordinate 2 (+)>>>
             <<<Displacing  26/coordinate 3 (+)>>>
             <<<Displacing  27/coordinate 1 (+)>>>
             <<<Displacing  26/coordinate 2 (-)>>>
             <<<Displacing  26/coordinate 3 (-)>>>
             <<<Displacing  27/coordinate 2 (+)>>>
             <<<Displacing  27/coordinate 1 (-)>>>
             <<<Displacing  27/coordinate 2 (-)>>>
             <<<Displacing  27/coordinate 3 (+)>>>
             <<<Displacing  28/coordinate 1 (+)>>>
             <<<Displacing  28/coordinate 2 (+)>>>
             <<<Displacing  27/coordinate 3 (-)>>>
             <<<Displacing  28/coordinate 2 (-)>>>
             <<<Displacing  28/coordinate 1 (-)>>>
             <<<Displacing  28/coordinate 3 (+)>>>
             <<<Displacing  28/coordinate 3 (-)>>>
             <<<Displacing  29/coordinate 1 (+)>>>
             <<<Displacing  29/coordinate 2 (+)>>>
             <<<Displacing  29/coordinate 1 (-)>>>
             <<<Displacing  29/coordinate 2 (-)>>>
             <<<Displacing  29/coordinate 3 (+)>>>
             <<<Displacing  30/coordinate 1 (+)>>>
             <<<Displacing  30/coordinate 1 (-)>>>
             <<<Displacing  29/coordinate 3 (-)>>>
             <<<Displacing  30/coordinate 2 (+)>>>
             <<<Displacing  31/coordinate 1 (+)>>>
             <<<Displacing  30/coordinate 3 (+)>>>
             <<<Displacing  30/coordinate 2 (-)>>>
             <<<Displacing  30/coordinate 3 (-)>>>
             <<<Displacing  31/coordinate 1 (-)>>>
             <<<Displacing  31/coordinate 2 (+)>>>
             <<<Displacing  31/coordinate 2 (-)>>>
             <<<Displacing  31/coordinate 3 (+)>>>
             <<<Displacing  32/coordinate 1 (+)>>>
             <<<Displacing  31/coordinate 3 (-)>>>
             <<<Displacing  32/coordinate 1 (-)>>>
             <<<Displacing  32/coordinate 3 (+)>>>
             <<<Displacing  32/coordinate 2 (+)>>>
             <<<Displacing  32/coordinate 2 (-)>>>
             <<<Displacing  32/coordinate 3 (-)>>>
             <<<Displacing  33/coordinate 1 (+)>>>
             <<<Displacing  33/coordinate 2 (+)>>>
             <<<Displacing  33/coordinate 3 (+)>>>
             <<<Displacing  33/coordinate 1 (-)>>>
             <<<Displacing  33/coordinate 2 (-)>>>
             <<<Displacing  33/coordinate 3 (-)>>>
             <<<Displacing  34/coordinate 1 (+)>>>
             <<<Displacing  34/coordinate 1 (-)>>>
             <<<Displacing  34/coordinate 2 (+)>>>
             <<<Displacing  34/coordinate 2 (-)>>>
             <<<Displacing  34/coordinate 3 (+)>>>
             <<<Displacing  34/coordinate 3 (-)>>>
             <<<Displacing  35/coordinate 1 (+)>>>
             <<<Displacing  35/coordinate 1 (-)>>>
             <<<Displacing  35/coordinate 2 (+)>>>
             <<<Displacing  35/coordinate 2 (-)>>>
             <<<Displacing  35/coordinate 3 (+)>>>
             <<<Displacing  36/coordinate 2 (+)>>>
             <<<Displacing  36/coordinate 1 (+)>>>
             <<<Displacing  35/coordinate 3 (-)>>>
             <<<Displacing  36/coordinate 2 (-)>>>
             <<<Displacing  36/coordinate 1 (-)>>>
             <<<Displacing  36/coordinate 3 (+)>>>
             <<<Displacing  36/coordinate 3 (-)>>>

-----------------------
VIBRATIONAL FREQUENCIES
-----------------------

Scaling factor for frequencies =  1.000000000 (already applied!)

   0:         0.00 cm**-1
   1:         0.00 cm**-1
   2:         0.00 cm**-1
   3:         0.00 cm**-1
   4:         0.00 cm**-1
   5:         0.00 cm**-1
   6:      -431.71 cm**-1 ***imaginary mode***
   7:        42.14 cm**-1
   8:        64.40 cm**-1
   9:        68.88 cm**-1
  10:        86.65 cm**-1
  11:        96.58 cm**-1
  12:       100.22 cm**-1
  13:       117.24 cm**-1
  14:       139.14 cm**-1
  15:       142.00 cm**-1
  16:       211.07 cm**-1
  17:       222.73 cm**-1
  18:       226.22 cm**-1
  19:       246.97 cm**-1
  20:       292.02 cm**-1
  21:       335.52 cm**-1
  22:       373.34 cm**-1
  23:       382.87 cm**-1
  24:       405.72 cm**-1
  25:       435.15 cm**-1
  26:       487.18 cm**-1
  27:       521.84 cm**-1
  28:       527.07 cm**-1
  29:       559.54 cm**-1
  30:       589.91 cm**-1
  31:       591.00 cm**-1
  32:       619.35 cm**-1
  33:       637.68 cm**-1
  34:       674.39 cm**-1
  35:       721.59 cm**-1
  36:       756.69 cm**-1
  37:       774.53 cm**-1
  38:       802.30 cm**-1
  39:       809.82 cm**-1
  40:       831.80 cm**-1
  41:       851.48 cm**-1
  42:       885.85 cm**-1
  43:       903.90 cm**-1
  44:       916.37 cm**-1
  45:       934.98 cm**-1
  46:       945.46 cm**-1
  47:       954.50 cm**-1
  48:       957.66 cm**-1
  49:       979.84 cm**-1
  50:      1001.81 cm**-1
  51:      1016.54 cm**-1
  52:      1056.26 cm**-1
  53:      1073.23 cm**-1
  54:      1082.10 cm**-1
  55:      1106.09 cm**-1
  56:      1117.95 cm**-1
  57:      1131.69 cm**-1
  58:      1140.15 cm**-1
  59:      1180.41 cm**-1
  60:      1190.50 cm**-1
  61:      1194.48 cm**-1
  62:      1210.16 cm**-1
  63:      1219.65 cm**-1
  64:      1242.21 cm**-1
  65:      1265.34 cm**-1
  66:      1271.81 cm**-1
  67:      1281.27 cm**-1
  68:      1281.42 cm**-1
  69:      1283.34 cm**-1
  70:      1293.96 cm**-1
  71:      1307.08 cm**-1
  72:      1338.77 cm**-1
  73:      1342.20 cm**-1
  74:      1372.07 cm**-1
  75:      1408.08 cm**-1
  76:      1424.34 cm**-1
  77:      1430.49 cm**-1
  78:      1443.00 cm**-1
  79:      1451.82 cm**-1
  80:      1460.13 cm**-1
  81:      1475.32 cm**-1
  82:      1494.49 cm**-1
  83:      1502.78 cm**-1
  84:      1507.97 cm**-1
  85:      1510.97 cm**-1
  86:      1568.08 cm**-1
  87:      1573.40 cm**-1
  88:      2090.61 cm**-1
  89:      2254.68 cm**-1
  90:      2934.15 cm**-1
  91:      2943.73 cm**-1
  92:      2959.85 cm**-1
  93:      2969.70 cm**-1
  94:      2971.14 cm**-1
  95:      2977.58 cm**-1
  96:      2979.41 cm**-1
  97:      2999.44 cm**-1
  98:      3010.13 cm**-1
  99:      3040.03 cm**-1
 100:      3040.66 cm**-1
 101:      3054.89 cm**-1
 102:      3060.49 cm**-1
 103:      3070.40 cm**-1
 104:      3097.21 cm**-1
 105:      3326.39 cm**-1
 106:      3598.86 cm**-1
 107:      3616.88 cm**-1


------------
NORMAL MODES
------------

These modes are the cartesian displacements weighted by the diagonal matrix
M(i,i)=1/sqrt(m[i]) where m[i] is the mass of the displaced atom
Thus, these vectors are normalized but *not* orthogonal

                  0          1          2          3          4          5    
      0       0.000000   0.000000   0.000000   0.000000   0.000000   0.000000
      1       0.000000   0.000000   0.000000   0.000000   0.000000   0.000000
      2       0.000000   0.000000   0.000000   0.000000   0.000000   0.000000
      3       0.000000   0.000000   0.000000   0.000000   0.000000   0.000000
      4       0.000000   0.000000   0.000000   0.000000   0.000000   0.000000
      5       0.000000   0.000000   0.000000   0.000000   0.000000   0.000000
      6       0.000000   0.000000   0.000000   0.000000   0.000000   0.000000
      7       0.000000   0.000000   0.000000   0.000000   0.000000   0.000000
      8       0.000000   0.000000   0.000000   0.000000   0.000000   0.000000
      9       0.000000   0.000000   0.000000   0.000000   0.000000   0.000000
     10       0.000000   0.000000   0.000000   0.000000   0.000000   0.000000
     11       0.000000   0.000000   0.000000   0.000000   0.000000   0.000000
     12       0.000000   0.000000   0.000000   0.000000   0.000000   0.000000
     13       0.000000   0.000000   0.000000   0.000000   0.000000   0.000000
     14       0.000000   0.000000   0.000000   0.000000   0.000000   0.000000
     15       0.000000   0.000000   0.000000   0.000000   0.000000   0.000000
     16       0.000000   0.000000   0.000000   0.000000   0.000000   0.000000
     17       0.000000   0.000000   0.000000   0.000000   0.000000   0.000000
     18       0.000000   0.000000   0.000000   0.000000   0.000000   0.000000
     19       0.000000   0.000000   0.000000   0.000000   0.000000   0.000000
     20       0.000000   0.000000   0.000000   0.000000   0.000000   0.000000
     21       0.000000   0.000000   0.000000   0.000000   0.000000   0.000000
     22       0.000000   0.000000   0.000000   0.000000   0.000000   0.000000
     23       0.000000   0.000000   0.000000   0.000000   0.000000   0.000000
     24       0.000000   0.000000   0.000000   0.000000   0.000000   0.000000
     25       0.000000   0.000000   0.000000   0.000000   0.000000   0.000000
     26       0.000000   0.000000   0.000000   0.000000   0.000000   0.000000
     27       0.000000   0.000000   0.000000   0.000000   0.000000   0.000000
     28       0.000000   0.000000   0.000000   0.000000   0.000000   0.000000
     29       0.000000   0.000000   0.000000   0.000000   0.000000   0.000000
     30       0.000000   0.000000   0.000000   0.000000   0.000000   0.000000
     31       0.000000   0.000000   0.000000   0.000000   0.000000   0.000000
     32       0.000000   0.000000   0.000000   0.000000   0.000000   0.000000
     33       0.000000   0.000000   0.000000   0.000000   0.000000   0.000000
     34       0.000000   0.000000   0.000000   0.000000   0.000000   0.000000
     35       0.000000   0.000000   0.000000   0.000000   0.000000   0.000000
     36       0.000000   0.000000   0.000000   0.000000   0.000000   0.000000
     37       0.000000   0.000000   0.000000   0.000000   0.000000   0.000000
     38       0.000000   0.000000   0.000000   0.000000   0.000000   0.000000
     39       0.000000   0.000000   0.000000   0.000000   0.000000   0.000000
     40       0.000000   0.000000   0.000000   0.000000   0.000000   0.000000
     41       0.000000   0.000000   0.000000   0.000000   0.000000   0.000000
     42       0.000000   0.000000   0.000000   0.000000   0.000000   0.000000
     43       0.000000   0.000000   0.000000   0.000000   0.000000   0.000000
     44       0.000000   0.000000   0.000000   0.000000   0.000000   0.000000
     45       0.000000   0.000000   0.000000   0.000000   0.000000   0.000000
     46       0.000000   0.000000   0.000000   0.000000   0.000000   0.000000
     47       0.000000   0.000000   0.000000   0.000000   0.000000   0.000000
     48       0.000000   0.000000   0.000000   0.000000   0.000000   0.000000
     49       0.000000   0.000000   0.000000   0.000000   0.000000   0.000000
     50       0.000000   0.000000   0.000000   0.000000   0.000000   0.000000
     51       0.000000   0.000000   0.000000   0.000000   0.000000   0.000000
     52       0.000000   0.000000   0.000000   0.000000   0.000000   0.000000
     53       0.000000   0.000000   0.000000   0.000000   0.000000   0.000000
     54       0.000000   0.000000   0.000000   0.000000   0.000000   0.000000
     55       0.000000   0.000000   0.000000   0.000000   0.000000   0.000000
     56       0.000000   0.000000   0.000000   0.000000   0.000000   0.000000
     57       0.000000   0.000000   0.000000   0.000000   0.000000   0.000000
     58       0.000000   0.000000   0.000000   0.000000   0.000000   0.000000
     59       0.000000   0.000000   0.000000   0.000000   0.000000   0.000000
     60       0.000000   0.000000   0.000000   0.000000   0.000000   0.000000
     61       0.000000   0.000000   0.000000   0.000000   0.000000   0.000000
     62       0.000000   0.000000   0.000000   0.000000   0.000000   0.000000
     63       0.000000   0.000000   0.000000   0.000000   0.000000   0.000000
     64       0.000000   0.000000   0.000000   0.000000   0.000000   0.000000
     65       0.000000   0.000000   0.000000   0.000000   0.000000   0.000000
     66       0.000000   0.000000   0.000000   0.000000   0.000000   0.000000
     67       0.000000   0.000000   0.000000   0.000000   0.000000   0.000000
     68       0.000000   0.000000   0.000000   0.000000   0.000000   0.000000
     69       0.000000   0.000000   0.000000   0.000000   0.000000   0.000000
     70       0.000000   0.000000   0.000000   0.000000   0.000000   0.000000
     71       0.000000   0.000000   0.000000   0.000000   0.000000   0.000000
     72       0.000000   0.000000   0.000000   0.000000   0.000000   0.000000
     73       0.000000   0.000000   0.000000   0.000000   0.000000   0.000000
     74       0.000000   0.000000   0.000000   0.000000   0.000000   0.000000
     75       0.000000   0.000000   0.000000   0.000000   0.000000   0.000000
     76       0.000000   0.000000   0.000000   0.000000   0.000000   0.000000
     77       0.000000   0.000000   0.000000   0.000000   0.000000   0.000000
     78       0.000000   0.000000   0.000000   0.000000   0.000000   0.000000
     79       0.000000   0.000000   0.000000   0.000000   0.000000   0.000000
     80       0.000000   0.000000   0.000000   0.000000   0.000000   0.000000
     81       0.000000   0.000000   0.000000   0.000000   0.000000   0.000000
     82       0.000000   0.000000   0.000000   0.000000   0.000000   0.000000
     83       0.000000   0.000000   0.000000   0.000000   0.000000   0.000000
     84       0.000000   0.000000   0.000000   0.000000   0.000000   0.000000
     85       0.000000   0.000000   0.000000   0.000000   0.000000   0.000000
     86       0.000000   0.000000   0.000000   0.000000   0.000000   0.000000
     87       0.000000   0.000000   0.000000   0.000000   0.000000   0.000000
     88       0.000000   0.000000   0.000000   0.000000   0.000000   0.000000
     89       0.000000   0.000000   0.000000   0.000000   0.000000   0.000000
     90       0.000000   0.000000   0.000000   0.000000   0.000000   0.000000
     91       0.000000   0.000000   0.000000   0.000000   0.000000   0.000000
     92       0.000000   0.000000   0.000000   0.000000   0.000000   0.000000
     93       0.000000   0.000000   0.000000   0.000000   0.000000   0.000000
     94       0.000000   0.000000   0.000000   0.000000   0.000000   0.000000
     95       0.000000   0.000000   0.000000   0.000000   0.000000   0.000000
     96       0.000000   0.000000   0.000000   0.000000   0.000000   0.000000
     97       0.000000   0.000000   0.000000   0.000000   0.000000   0.000000
     98       0.000000   0.000000   0.000000   0.000000   0.000000   0.000000
     99       0.000000   0.000000   0.000000   0.000000   0.000000   0.000000
    100       0.000000   0.000000   0.000000   0.000000   0.000000   0.000000
    101       0.000000   0.000000   0.000000   0.000000   0.000000   0.000000
    102       0.000000   0.000000   0.000000   0.000000   0.000000   0.000000
    103       0.000000   0.000000   0.000000   0.000000   0.000000   0.000000
    104       0.000000   0.000000   0.000000   0.000000   0.000000   0.000000
    105       0.000000   0.000000   0.000000   0.000000   0.000000   0.000000
    106       0.000000   0.000000   0.000000   0.000000   0.000000   0.000000
    107       0.000000   0.000000   0.000000   0.000000   0.000000   0.000000
                  6          7          8          9         10         11    
      0      -0.002208   0.045242  -0.016628   0.043002   0.036532   0.018286
      1      -0.003694  -0.017792  -0.042956  -0.023986   0.001702  -0.012754
      2      -0.003978  -0.016309  -0.059941  -0.017967  -0.054919  -0.004141
      3       0.001361   0.102417   0.002426   0.098140   0.042555  -0.016338
      4      -0.000366   0.028004  -0.027921   0.020789   0.005476  -0.040235
      5      -0.002553  -0.051762   0.012274   0.187645  -0.114563  -0.030233
      6       0.001665   0.093848   0.022075   0.100254   0.061010  -0.006867
      7       0.000120   0.107413  -0.009700   0.032978   0.042368  -0.068558
      8       0.000129  -0.048490   0.099531   0.198762  -0.025082  -0.004383
      9       0.001312   0.028142   0.023476   0.048150   0.079911   0.034109
     10      -0.000157   0.142888  -0.005572   0.001027   0.077690  -0.068621
     11      -0.000147  -0.010736   0.117351   0.008268   0.131704   0.053291
     12       0.000335  -0.028394   0.005177  -0.005781   0.072137   0.065262
     13      -0.001642   0.098855  -0.019643  -0.040253   0.070972  -0.043334
     14       0.003001   0.025882   0.048775  -0.192464   0.176644   0.072499
     15       0.000623  -0.019634  -0.014739  -0.007236   0.051275   0.053500
     16      -0.002661   0.018947  -0.037945  -0.052688   0.032019  -0.016018
     17       0.003804   0.024460  -0.039164  -0.205346   0.077422   0.039751
     18      -0.008608   0.057826  -0.029314   0.046011   0.038035   0.013822
     19      -0.036198  -0.104003  -0.062098  -0.021005  -0.013245   0.027209
     20      -0.052240  -0.015370  -0.129117  -0.002636  -0.047552  -0.005733
     21       0.000386   0.153075   0.001037   0.138673   0.034669  -0.050509
     22      -0.002303   0.000194  -0.030944   0.046945  -0.021920  -0.037870
     23      -0.010703  -0.081609  -0.000802   0.334563  -0.221749  -0.068463
     24       0.014569  -0.065457  -0.026121  -0.045318   0.049077   0.062561
     25       0.004818  -0.016192  -0.046577  -0.080973   0.029608  -0.006531
     26      -0.003514   0.054468  -0.082539  -0.342638   0.101407   0.048660
     27       0.000577   0.021028   0.038561   0.049250   0.097155   0.042965
     28      -0.000443   0.204101   0.009107   0.010290   0.107743  -0.087517
     29      -0.003346  -0.009258   0.185464   0.017357   0.215974   0.079811
     30      -0.006861   0.060662  -0.011212  -0.001503  -0.022675  -0.008413
     31       0.078193  -0.081847   0.023885   0.021613  -0.042424   0.062528
     32      -0.014486  -0.020993  -0.159324   0.017079  -0.007583   0.002836
     33       0.014144   0.036231   0.000401  -0.003024  -0.020987  -0.006968
     34       0.011176  -0.000801  -0.034430   0.041573  -0.025308   0.085894
     35      -0.004265  -0.040613  -0.182660   0.059139   0.075469   0.058416
     36      -0.072668   0.110593  -0.054016  -0.044873  -0.101786  -0.003844
     37       0.312507  -0.088132   0.085556   0.030033  -0.054400   0.047585
     38      -0.143126  -0.033021  -0.080716   0.029019  -0.016415  -0.014676
     39       0.007744  -0.059891   0.035276  -0.017633  -0.039889   0.028744
     40       0.005575   0.037886   0.012807   0.010541  -0.055733   0.003422
     41      -0.004179   0.021009  -0.057847  -0.022290  -0.004709  -0.131618
     42      -0.018013   0.059987  -0.061315   0.045153   0.050192   0.074707
     43      -0.003829   0.052695  -0.001159   0.014150  -0.050373   0.001705
     44      -0.010837  -0.087656  -0.266985   0.126639   0.157309   0.218457
     45       0.020146   0.067444   0.037003  -0.046118  -0.092986  -0.097183
     46       0.003646  -0.019168  -0.143051   0.117227   0.056777   0.248872
     47      -0.008042  -0.056063  -0.206143   0.083643   0.113678   0.110805
     48       0.010527  -0.095262   0.004809  -0.027943  -0.109420  -0.115221
     49       0.005968  -0.024068  -0.040811   0.039810  -0.039460   0.075907
     50      -0.003067   0.062485  -0.020863  -0.064757  -0.082025  -0.337184
     51       0.006877  -0.077243   0.081592  -0.017114   0.016000   0.207790
     52       0.003462   0.059812   0.099689  -0.053284  -0.140017  -0.170115
     53      -0.003190   0.029661  -0.074491  -0.025577  -0.033176  -0.218241
     54       0.002566   0.023998  -0.046849   0.082372   0.055515   0.051942
     55      -0.049049  -0.157230  -0.109073  -0.023853   0.002593   0.035604
     56       0.051587   0.031553  -0.075033   0.040770  -0.052981   0.019187
     57      -0.014652  -0.166783   0.014514  -0.048182   0.165796  -0.244218
     58       0.069247  -0.165997   0.013666  -0.029562  -0.007459  -0.044973
     59      -0.077122   0.039601   0.096104   0.040874  -0.086802  -0.047061
     60       0.055458  -0.059734  -0.015491   0.038934   0.091971  -0.059585
     61      -0.206003  -0.156864  -0.067875  -0.025393  -0.000534   0.012440
     62       0.180468   0.040897   0.002213   0.042438  -0.062865  -0.022845
     63      -0.029451  -0.207343   0.033983  -0.039261   0.227243  -0.300205
     64       0.119282  -0.219011   0.033249  -0.035784   0.067537  -0.136914
     65      -0.291440  -0.004262   0.133990   0.102445  -0.004324  -0.052680
     66      -0.005818   0.123705  -0.088160  -0.175930  -0.280537  -0.028428
     67      -0.100286  -0.090536   0.145874   0.014855  -0.065806   0.005431
     68       0.068539  -0.019169   0.018814   0.020781  -0.033786  -0.082930
     69       0.015187  -0.025249  -0.035853  -0.122169  -0.052604  -0.139299
     70       0.357727  -0.122279   0.087838  -0.003577  -0.045954  -0.014607
     71       0.633537   0.016756   0.074775   0.034682  -0.064030  -0.067710
     72       0.056864   0.160040  -0.101620  -0.214236  -0.373173  -0.002980
     73      -0.279569  -0.024418   0.161505   0.040230  -0.099603   0.054234
     74       0.107938   0.062505   0.003399  -0.029562  -0.190880  -0.025163
     75      -0.001673   0.106626  -0.040305   0.047610   0.054681  -0.005301
     76      -0.031709  -0.132525  -0.101869  -0.033661  -0.002154   0.022068
     77      -0.049524  -0.052403  -0.192722  -0.021629  -0.027463  -0.014342
     78      -0.001471   0.028598   0.014813  -0.031574  -0.049991  -0.041126
     79       0.142498  -0.114590   0.084627   0.028544  -0.045295   0.049374
     80      -0.091691  -0.003505  -0.223288  -0.023633  -0.030354  -0.011444
     81       0.001132   0.137953   0.035790   0.141971   0.062754  -0.031712
     82      -0.000419   0.141254   0.001733   0.067576   0.042969  -0.088035
     83      -0.000386  -0.075368   0.154293   0.355910  -0.068166  -0.025867
     84      -0.001004  -0.078677   0.006743  -0.044795   0.080480   0.099724
     85      -0.001350   0.126170  -0.016004  -0.062587   0.097342  -0.046532
     86       0.002655   0.056293   0.064759  -0.334381   0.289037   0.110637
     87       0.006679  -0.085629   0.041303  -0.024704  -0.058019   0.030594
     88       0.003333   0.134706   0.019237   0.029736   0.016492   0.051042
     89      -0.002447   0.016038   0.067748  -0.049987   0.045211   0.086644
     90       0.006871  -0.045473   0.078035  -0.019142   0.009780   0.158681
     91       0.003794   0.180959   0.080456   0.014315   0.010642   0.016507
     92      -0.002296  -0.005189   0.025605  -0.026402   0.111342   0.240011
     93       0.006169  -0.074380  -0.020860  -0.014353  -0.100741  -0.137452
     94       0.004584   0.139186  -0.083605   0.076083   0.099849   0.151637
     95      -0.002693   0.011210   0.091080  -0.052700   0.067226   0.164782
     96       0.002437  -0.175659   0.082678  -0.054000  -0.115540   0.091206
     97       0.002934   0.159801   0.079956   0.010126  -0.006797   0.007378
     98      -0.002138   0.044477   0.224358  -0.106483  -0.029057   0.004086
     99       0.001662  -0.210102   0.064471  -0.058153  -0.163715   0.023162
    100       0.001882   0.119322   0.024200   0.024787   0.001334   0.049118
    101      -0.001889   0.066693   0.279413  -0.128424  -0.079647  -0.105632
    102       0.001622  -0.190445   0.087393  -0.058476  -0.127288   0.095354
    103       0.005223   0.219826   0.072583   0.024968   0.043235   0.007795
    104      -0.003559   0.036303   0.294878  -0.128105  -0.022456   0.102389
    105       0.002085  -0.190563   0.126906  -0.066807  -0.098998   0.200967
    106       0.001967   0.158538   0.186839  -0.033323  -0.081442  -0.066863
    107      -0.001909   0.050308   0.212385  -0.103685  -0.039546  -0.043294
                 12         13         14         15         16         17    
      0      -0.017758  -0.026051  -0.019007   0.012133   0.030131  -0.014777
      1       0.012214  -0.032555  -0.027560   0.004958  -0.072111   0.199754
      2       0.020743  -0.116676   0.062338  -0.066502   0.033258  -0.080957
      3       0.002102   0.010574   0.000110   0.011108   0.070673  -0.098319
      4       0.028402  -0.003146  -0.010779   0.003569  -0.041969   0.132956
      5       0.046673  -0.050329   0.031414  -0.053842   0.019397  -0.057406
      6      -0.004880   0.034581  -0.016401   0.025989   0.059272  -0.065937
      7       0.041747   0.042685   0.019551   0.004656   0.012824  -0.018632
      8       0.024357   0.064661  -0.021832   0.004213  -0.016311   0.024714
      9      -0.031120   0.024833  -0.055869   0.045758   0.009574   0.081476
     10       0.037712   0.058245   0.029459   0.008317   0.029767  -0.069696
     11      -0.027556   0.109259  -0.041225   0.046144  -0.027248   0.054073
     12      -0.048858  -0.015749  -0.073608   0.043204  -0.025553   0.165236
     13       0.023394   0.026139   0.015041   0.006481   0.001481  -0.002421
     14      -0.046611   0.020099   0.005895   0.009129   0.013644  -0.047124
     15      -0.040012  -0.037213  -0.054750   0.028225  -0.009858   0.118482
     16       0.011049  -0.019676  -0.014506   0.004662  -0.053780   0.143843
     17      -0.019000  -0.089543   0.059103  -0.048072   0.042809  -0.119567
     18      -0.015611  -0.019180  -0.013863   0.016290   0.016981   0.004300
     19      -0.005738  -0.043647  -0.042030   0.022719  -0.030836   0.094074
     20       0.016256  -0.092341   0.057978  -0.021486   0.027666   0.017058
     21       0.022767   0.024201   0.028417   0.000977   0.113982  -0.197060
     22       0.030044  -0.015206  -0.019463   0.001177  -0.057023   0.168512
     23       0.080446  -0.074800   0.038560  -0.075853   0.024898  -0.061369
     24      -0.045973  -0.055266  -0.068678   0.030955  -0.034468   0.199107
     25       0.005103  -0.034612  -0.027381   0.007626  -0.072603   0.207852
     26      -0.029622  -0.130301   0.082345  -0.060930   0.064700  -0.172538
     27      -0.037831   0.045922  -0.070362   0.059776  -0.003028   0.114830
     28       0.045551   0.094210   0.047822   0.011946   0.064289  -0.162618
     29      -0.050815   0.212050  -0.091125   0.104765  -0.060882   0.143916
     30       0.000444  -0.129943  -0.024019  -0.053724   0.041519  -0.006842
     31      -0.028513   0.024029   0.080567  -0.004994  -0.134176  -0.020836
     32       0.009517  -0.041311   0.035741   0.024059   0.027685   0.032764
     33       0.000377  -0.136430  -0.037777  -0.048035  -0.038180  -0.032404
     34      -0.028021   0.093615   0.138057  -0.010217   0.090216   0.001857
     35       0.009487   0.102545   0.030689   0.093220  -0.076999  -0.105808
     36       0.020359  -0.063583   0.006780  -0.047935   0.138638   0.011305
     37      -0.024731   0.021847   0.063214  -0.005589  -0.174997  -0.045819
     38       0.013405  -0.047809   0.015086   0.025471   0.016991  -0.025517
     39      -0.000427  -0.091122  -0.011531  -0.031994  -0.165594  -0.087939
     40      -0.113900   0.083900   0.082281  -0.085075   0.117201   0.030978
     41      -0.195671   0.102114  -0.106407  -0.071303  -0.077896  -0.061144
     42       0.050905  -0.037986   0.010425   0.018283   0.024424  -0.105847
     43      -0.118855   0.099345   0.083357  -0.084534   0.160039   0.036222
     44       0.155891   0.165234   0.129981   0.230051  -0.116573  -0.200621
     45      -0.051642  -0.239653  -0.069329  -0.129889   0.044452   0.093362
     46       0.139872   0.118907   0.257993   0.124073   0.145931  -0.042017
     47       0.044467   0.152022   0.053300   0.139153  -0.110822  -0.166924
     48      -0.211225  -0.052813   0.031501   0.002767  -0.167032  -0.096156
     49      -0.060417   0.116184   0.159447  -0.006906   0.102626   0.002826
     50      -0.434859   0.094981  -0.159882  -0.131249  -0.066466  -0.037290
     51       0.222888  -0.084137  -0.020628  -0.057025  -0.152949  -0.065704
     52      -0.322143   0.097989   0.016289  -0.179290   0.123942   0.073621
     53      -0.303233   0.099613  -0.104867  -0.063855  -0.080740  -0.066944
     54      -0.039866   0.038964   0.014325   0.063556   0.020525  -0.075541
     55      -0.003940  -0.054967  -0.071907   0.049684   0.063666  -0.024910
     56      -0.008838  -0.013903   0.132070  -0.015367  -0.113613   0.086248
     57       0.107573   0.066211   0.138991  -0.056317  -0.026414   0.034075
     58       0.023859  -0.034274  -0.174406   0.062877   0.125859  -0.153038
     59       0.007632  -0.000952  -0.047221   0.022878   0.001575   0.087075
     60       0.015897   0.035152   0.026239   0.025940   0.042329  -0.070564
     61       0.004031  -0.047729  -0.089966   0.048988   0.069326   0.012631
     62       0.003852   0.008481   0.111725  -0.022344  -0.144776   0.109586
     63       0.123646   0.075339   0.224828  -0.097547  -0.083859   0.049054
     64       0.057615  -0.005984  -0.032039  -0.004807   0.011121  -0.129869
     65      -0.012345  -0.039549  -0.044746   0.019471   0.058037   0.094216
     66       0.087916   0.179171  -0.055869   0.066131  -0.031200  -0.011612
     67      -0.013633   0.041491  -0.030881   0.020699  -0.115872  -0.138512
     68       0.029991  -0.053142  -0.125258   0.043578   0.142288   0.072778
     69       0.098843   0.127231   0.048765   0.002408  -0.045882   0.014056
     70       0.003985   0.011830  -0.083606   0.034605  -0.047799  -0.147259
     71       0.018487  -0.021810  -0.072188   0.021152   0.002306   0.090250
     72       0.098480   0.258537  -0.071408   0.104451  -0.126717  -0.014046
     73      -0.045291  -0.021243  -0.059344   0.003296  -0.016768  -0.156404
     74       0.034734   0.046842  -0.160069   0.096529   0.031065   0.061656
     75      -0.014037   0.005826  -0.029172   0.028856  -0.024282   0.163452
     76       0.002571  -0.064373  -0.088787   0.039877   0.037500   0.068774
     77       0.029049  -0.121658  -0.016936   0.008124   0.128131   0.002418
     78       0.005990  -0.229116  -0.071147  -0.078644  -0.021007   0.029019
     79      -0.028861  -0.016855   0.061946  -0.009271  -0.241650  -0.052095
     80       0.016071  -0.081344   0.014628   0.004677   0.128066   0.119687
     81       0.010113   0.062958   0.001870   0.023352   0.090564  -0.160030
     82       0.053621   0.065498   0.033190   0.002878   0.036597  -0.090677
     83       0.044056   0.127753  -0.053218   0.024596  -0.037619   0.080403
     84      -0.069968  -0.028852  -0.102920   0.053953  -0.068671   0.270851
     85       0.022264   0.038897   0.023779   0.008725   0.019162  -0.044592
     86      -0.081673   0.049131  -0.003398   0.033118   0.018399  -0.055340
     87      -0.020732  -0.059346   0.017621  -0.031578  -0.129604  -0.074194
     88       0.022406  -0.034407  -0.016454  -0.121405   0.016156  -0.007848
     89       0.086545   0.106396  -0.138698  -0.157738  -0.026235  -0.003745
     90       0.177543  -0.100343  -0.078256  -0.120236  -0.189074  -0.079490
     91       0.031383  -0.151155   0.035249  -0.003727  -0.045626  -0.034159
     92       0.248552   0.211413  -0.284627  -0.376350  -0.005400   0.022799
     93      -0.224318  -0.095181   0.067317   0.079491  -0.186814  -0.123623
     94       0.136949   0.045477  -0.218736  -0.348053  -0.063920  -0.033381
     95       0.180858   0.125178  -0.167797  -0.215133  -0.002823   0.017405
     96      -0.036774   0.086531   0.133395  -0.075662   0.172993   0.056642
     97       0.001957  -0.127392   0.066710   0.009173  -0.010171  -0.021727
     98       0.033607  -0.057825   0.094329   0.137284   0.019903   0.013064
     99      -0.158367   0.123113   0.235706   0.004750   0.263444   0.058354
    100       0.002427  -0.012863   0.015721  -0.117566   0.073996   0.010679
    101      -0.068885  -0.171788   0.244205   0.364588  -0.010904  -0.026580
    102      -0.047526   0.109962   0.158241  -0.077093   0.227895   0.077570
    103       0.067385  -0.221442  -0.036597   0.002719  -0.218235  -0.093113
    104       0.150444  -0.040762   0.093961   0.070226   0.126750   0.100002
    105       0.083509   0.134805   0.097911  -0.191223   0.279010   0.142711
    106      -0.078118  -0.216183   0.280966   0.241221   0.089190   0.006386
    107      -0.018260  -0.081599   0.119642   0.195172  -0.016755  -0.019448
                 18         19         20         21         22         23    
      0      -0.000681   0.071507  -0.000007  -0.028442  -0.004178   0.005076
      1      -0.055060   0.052463   0.000465   0.005962   0.104768   0.006015
      2      -0.014769   0.099057  -0.000614  -0.061713  -0.050399   0.010263
      3       0.020181   0.107996  -0.000887  -0.028515  -0.120776  -0.047483
      4      -0.037023   0.072158  -0.000073   0.020499   0.044010  -0.035179
      5      -0.038070   0.173502  -0.002024   0.118906   0.054808  -0.195317
      6       0.024592   0.075967  -0.000832  -0.047287  -0.139898   0.041498
      7       0.017391   0.012241  -0.000519   0.007654  -0.047912   0.032155
      8      -0.007660  -0.002888  -0.001940   0.062274   0.049383   0.196811
      9      -0.000591   0.068238  -0.000146  -0.093450  -0.150511  -0.004327
     10       0.040077  -0.038536  -0.000568  -0.021003  -0.056897  -0.002664
     11       0.038925  -0.198809  -0.001074  -0.108768   0.007455   0.003830
     12      -0.038133   0.118526   0.000209  -0.028523  -0.040848  -0.048041
     13       0.010137   0.001514  -0.000277   0.029572   0.034987  -0.036007
     14       0.007379   0.014579  -0.001701   0.065818   0.034126  -0.200257
     15      -0.035577   0.144727   0.000256  -0.011382  -0.051673   0.045588
     16      -0.042952   0.053333   0.000253   0.043226   0.134449   0.042269
     17      -0.021350   0.175287  -0.001362   0.107678   0.004845   0.208673
     18       0.003466   0.013712   0.000325  -0.021313   0.108621   0.004633
     19       0.028233  -0.004137   0.001982   0.037574  -0.072912   0.000554
     20       0.079856  -0.046700   0.002742  -0.142460  -0.059055  -0.003705
     21       0.045220   0.131847  -0.001374  -0.034421  -0.225017  -0.109247
     22      -0.052657   0.087999  -0.000001   0.050194   0.103763  -0.081670
     23      -0.059837   0.264153  -0.002422   0.213477   0.114992  -0.443769
     24      -0.059665   0.181733   0.000675   0.008031  -0.045782   0.093290
     25      -0.062333   0.084837   0.000541   0.053964   0.135872   0.078145
     26      -0.026516   0.237995  -0.001228   0.193598   0.007005   0.428246
     27       0.006985   0.014390   0.000066  -0.127814  -0.150767  -0.005149
     28       0.077464  -0.097710  -0.000922  -0.061337  -0.112531  -0.002623
     29       0.087952  -0.443843  -0.000390  -0.270461  -0.027448   0.000519
     30      -0.039723  -0.057105   0.001932  -0.085570   0.127557   0.009937
     31       0.075241   0.047885   0.001811   0.030216  -0.126994   0.000880
     32       0.076640  -0.052468  -0.000074  -0.113281  -0.062178  -0.009232
     33      -0.042937  -0.078470   0.000776  -0.051586   0.109432   0.008688
     34      -0.090992  -0.015076  -0.007159   0.006834  -0.042835   0.002075
     35      -0.201092  -0.033938  -0.019204  -0.025898   0.046414   0.002562
     36      -0.040836  -0.101382   0.000768  -0.106897   0.127649   0.001692
     37       0.081345   0.082845   0.003571   0.046834  -0.149552   0.004338
     38       0.085829  -0.033194   0.000986  -0.136254  -0.077633  -0.010715
     39      -0.059379  -0.130082  -0.004604   0.062731  -0.080610  -0.007417
     40      -0.034327  -0.018375  -0.008192   0.008732  -0.034117   0.000842
     41      -0.050252  -0.005634  -0.021888   0.002761   0.022259   0.001191
     42      -0.321108  -0.100174  -0.012264  -0.033087   0.261717   0.021440
     43      -0.053506  -0.005375  -0.008543  -0.004481  -0.002050   0.004536
     44      -0.447427  -0.062552  -0.026851   0.001227   0.111039   0.009074
     45       0.226795  -0.050043   0.015328  -0.129600   0.018469  -0.000053
     46      -0.294417  -0.034888  -0.009366  -0.030916   0.053553   0.010317
     47      -0.339228  -0.048033  -0.026081   0.006953   0.094302   0.007123
     48      -0.066312  -0.123105  -0.062037   0.087030  -0.126792  -0.009204
     49      -0.104247  -0.030221  -0.012466   0.026843  -0.081219  -0.001379
     50       0.026277   0.013592  -0.065841   0.002452   0.036482   0.002011
     51      -0.046286  -0.127252   0.055548   0.079023  -0.123198  -0.009601
     52       0.079051   0.005317  -0.036261   0.044086  -0.093938  -0.002924
     53      -0.049737  -0.004647  -0.049759  -0.003366   0.039116   0.002170
     54       0.214595  -0.051127   0.008056   0.205138   0.217035   0.010730
[...]
     73       0.000155  -0.000175  -0.000324  -0.000243  -0.197326  -0.018116
     74       0.000035   0.000184   0.000119  -0.001222   0.536590   0.050773
     75      -0.000427  -0.000748  -0.000200   0.000698  -0.000261  -0.000147
     76      -0.000936  -0.001883  -0.003407   0.000034  -0.000120  -0.000074
     77       0.000822   0.001294   0.002197   0.001291   0.000086   0.000107
     78      -0.000456   0.001630  -0.000196  -0.486354  -0.000869  -0.000593
     79       0.000310  -0.001835  -0.000062   0.726996   0.002525   0.001260
     80      -0.000112  -0.001193  -0.000269   0.478769   0.000440   0.000696
     81       0.424399   0.351913  -0.001342   0.001333  -0.000022   0.000239
     82      -0.545192  -0.454153   0.001917  -0.001229  -0.000021  -0.000303
     83       0.007698   0.006775  -0.000113  -0.000035   0.000037   0.000005
     84      -0.231345   0.145517  -0.042270   0.000858  -0.000033  -0.000041
     85      -0.601684   0.382448  -0.112584   0.001620  -0.000107  -0.000277
     86       0.158235  -0.100267   0.029286  -0.000506   0.000099   0.000073
     87       0.000017   0.000019  -0.000016   0.000069   0.000012   0.000010
     88      -0.000007  -0.000024   0.000011  -0.000117  -0.000025  -0.000007
     89       0.000003   0.000007   0.000003   0.000023  -0.000005   0.000001
     90      -0.000093  -0.000113   0.000152  -0.000780  -0.000176  -0.000116
     91       0.000124   0.000239  -0.000192   0.000393   0.000186   0.000067
     92       0.000073   0.000175  -0.000162   0.000643   0.000175   0.000098
     93      -0.000073  -0.000078   0.000057  -0.000395  -0.000076  -0.000055
     94       0.000026   0.000027   0.000001   0.000002   0.000001  -0.000005
     95      -0.000121  -0.000261   0.000138  -0.000671  -0.000218  -0.000059
     96       0.000009   0.000009  -0.000001   0.000020   0.000003  -0.000002
     97      -0.000008  -0.000008  -0.000004   0.000024  -0.000015   0.000004
     98       0.000004  -0.000004   0.000003  -0.000029  -0.000006  -0.000002
     99      -0.000092  -0.000014  -0.000025   0.000035  -0.000034  -0.000018
    100       0.000095   0.000091   0.000019  -0.000029   0.000106   0.000055
    101       0.000069   0.000049   0.000019  -0.000023   0.000024   0.000015
    102       0.000048  -0.000171   0.000048  -0.001036   0.000060  -0.000070
    103       0.000008  -0.000015  -0.000003  -0.000446   0.000055  -0.000022
    104       0.000003  -0.000001   0.000001   0.000130  -0.000032   0.000008
    105      -0.000071   0.000036  -0.000029   0.000198  -0.000010   0.000006
    106       0.000011   0.000024   0.000002  -0.000056   0.000029   0.000004
    107      -0.000098  -0.000002  -0.000063   0.000414  -0.000046  -0.000004


-----------
IR SPECTRUM  
-----------

 Mode    freq (cm**-1)   T**2         TX         TY         TZ
-------------------------------------------------------------------
   7:        42.14    0.000000  (  0.000000   0.000000   0.000000)
   8:        64.40    0.000000  (  0.000000   0.000000   0.000000)
   9:        68.88    0.000000  (  0.000000   0.000000   0.000000)
  10:        86.65    0.000000  (  0.000000   0.000000   0.000000)
  11:        96.58    0.000000  (  0.000000   0.000000   0.000000)
  12:       100.22    0.000000  (  0.000000   0.000000   0.000000)
  13:       117.24    0.000000  (  0.000000   0.000000   0.000000)
  14:       139.14    0.000000  (  0.000000   0.000000   0.000000)
  15:       142.00    0.000000  (  0.000000   0.000000   0.000000)
  16:       211.07    0.000000  (  0.000000   0.000000   0.000000)
  17:       222.73    0.000000  (  0.000000   0.000000   0.000000)
  18:       226.22    0.000000  (  0.000000   0.000000   0.000000)
  19:       246.97    0.000000  (  0.000000   0.000000   0.000000)
  20:       292.02    0.000000  (  0.000000   0.000000   0.000000)
  21:       335.52    0.000000  (  0.000000   0.000000   0.000000)
  22:       373.34    0.000000  (  0.000000   0.000000   0.000000)
  23:       382.87    0.000000  (  0.000000   0.000000   0.000000)
  24:       405.72    0.000000  (  0.000000   0.000000   0.000000)
  25:       435.15    0.000000  (  0.000000   0.000000   0.000000)
  26:       487.18    0.000000  (  0.000000   0.000000   0.000000)
  27:       521.84    0.000000  (  0.000000   0.000000   0.000000)
  28:       527.07    0.000000  (  0.000000   0.000000   0.000000)
  29:       559.54    0.000000  (  0.000000   0.000000   0.000000)
  30:       589.91    0.000000  (  0.000000   0.000000   0.000000)
  31:       591.00    0.000000  (  0.000000   0.000000   0.000000)
  32:       619.35    0.000000  (  0.000000   0.000000   0.000000)
  33:       637.68    0.000000  (  0.000000   0.000000   0.000000)
  34:       674.39    0.000000  (  0.000000   0.000000   0.000000)
  35:       721.59    0.000000  (  0.000000   0.000000   0.000000)
  36:       756.69    0.000000  (  0.000000   0.000000   0.000000)
  37:       774.53    0.000000  (  0.000000   0.000000   0.000000)
  38:       802.30    0.000000  (  0.000000   0.000000   0.000000)
  39:       809.82    0.000000  (  0.000000   0.000000   0.000000)
  40:       831.80    0.000000  (  0.000000   0.000000   0.000000)
  41:       851.48    0.000000  (  0.000000   0.000000   0.000000)
  42:       885.85    0.000000  (  0.000000   0.000000   0.000000)
  43:       903.90    0.000000  (  0.000000   0.000000   0.000000)
  44:       916.37    0.000000  (  0.000000   0.000000   0.000000)
  45:       934.98    0.000000  (  0.000000   0.000000   0.000000)
  46:       945.46    0.000000  (  0.000000   0.000000   0.000000)
  47:       954.50    0.000000  (  0.000000   0.000000   0.000000)
  48:       957.66    0.000000  (  0.000000   0.000000   0.000000)
  49:       979.84    0.000000  (  0.000000   0.000000   0.000000)
  50:      1001.81    0.000000  (  0.000000   0.000000   0.000000)
  51:      1016.54    0.000000  (  0.000000   0.000000   0.000000)
  52:      1056.26    0.000000  (  0.000000   0.000000   0.000000)
  53:      1073.23    0.000000  (  0.000000   0.000000   0.000000)
  54:      1082.10    0.000000  (  0.000000   0.000000   0.000000)
  55:      1106.09    0.000000  (  0.000000   0.000000   0.000000)
  56:      1117.95    0.000000  (  0.000000   0.000000   0.000000)
  57:      1131.69    0.000000  (  0.000000   0.000000   0.000000)
  58:      1140.15    0.000000  (  0.000000   0.000000   0.000000)
  59:      1180.41    0.000000  (  0.000000   0.000000   0.000000)
  60:      1190.50    0.000000  (  0.000000   0.000000   0.000000)
  61:      1194.48    0.000000  (  0.000000   0.000000   0.000000)
  62:      1210.16    0.000000  (  0.000000   0.000000   0.000000)
  63:      1219.65    0.000000  (  0.000000   0.000000   0.000000)
  64:      1242.21    0.000000  (  0.000000   0.000000   0.000000)
  65:      1265.34    0.000000  (  0.000000   0.000000   0.000000)
  66:      1271.81    0.000000  (  0.000000   0.000000   0.000000)
  67:      1281.27    0.000000  (  0.000000   0.000000   0.000000)
  68:      1281.42    0.000000  (  0.000000   0.000000   0.000000)
  69:      1283.34    0.000000  (  0.000000   0.000000   0.000000)
  70:      1293.96    0.000000  (  0.000000   0.000000   0.000000)
  71:      1307.08    0.000000  (  0.000000   0.000000   0.000000)
  72:      1338.77    0.000000  (  0.000000   0.000000   0.000000)
  73:      1342.20    0.000000  (  0.000000   0.000000   0.000000)
  74:      1372.07    0.000000  (  0.000000   0.000000   0.000000)
  75:      1408.08    0.000000  (  0.000000   0.000000   0.000000)
  76:      1424.34    0.000000  (  0.000000   0.000000   0.000000)
  77:      1430.49    0.000000  (  0.000000   0.000000   0.000000)
  78:      1443.00    0.000000  (  0.000000   0.000000   0.000000)
  79:      1451.82    0.000000  (  0.000000   0.000000   0.000000)
  80:      1460.13    0.000000  (  0.000000   0.000000   0.000000)
  81:      1475.32    0.000000  (  0.000000   0.000000   0.000000)
  82:      1494.49    0.000000  (  0.000000   0.000000   0.000000)
  83:      1502.78    0.000000  (  0.000000   0.000000   0.000000)
  84:      1507.97    0.000000  (  0.000000   0.000000   0.000000)
  85:      1510.97    0.000000  (  0.000000   0.000000   0.000000)
  86:      1568.08    0.000000  (  0.000000   0.000000   0.000000)
  87:      1573.40    0.000000  (  0.000000   0.000000   0.000000)
  88:      2090.61    0.000000  (  0.000000   0.000000   0.000000)
  89:      2254.68    0.000000  (  0.000000   0.000000   0.000000)
  90:      2934.15    0.000000  (  0.000000   0.000000   0.000000)
  91:      2943.73    0.000000  (  0.000000   0.000000   0.000000)
  92:      2959.85    0.000000  (  0.000000   0.000000   0.000000)
  93:      2969.70    0.000000  (  0.000000   0.000000   0.000000)
  94:      2971.14    0.000000  (  0.000000   0.000000   0.000000)
  95:      2977.58    0.000000  (  0.000000   0.000000   0.000000)
  96:      2979.41    0.000000  (  0.000000   0.000000   0.000000)
  97:      2999.44    0.000000  (  0.000000   0.000000   0.000000)
  98:      3010.13    0.000000  (  0.000000   0.000000   0.000000)
  99:      3040.03    0.000000  (  0.000000   0.000000   0.000000)
 100:      3040.66    0.000000  (  0.000000   0.000000   0.000000)
 101:      3054.89    0.000000  (  0.000000   0.000000   0.000000)
 102:      3060.49    0.000000  (  0.000000   0.000000   0.000000)
 103:      3070.40    0.000000  (  0.000000   0.000000   0.000000)
 104:      3097.21    0.000000  (  0.000000   0.000000   0.000000)
 105:      3326.39    0.000000  (  0.000000   0.000000   0.000000)
 106:      3598.86    0.000000  (  0.000000   0.000000   0.000000)
 107:      3616.88    0.000000  (  0.000000   0.000000   0.000000)

The first frequency considered to be a vibration is 7
The total number of vibrations considered is 101


--------------------------
THERMOCHEMISTRY AT 298.15K
--------------------------

Temperature         ... 298.15 K
Pressure            ... 1.00 atm
Total Mass          ... 215.29 AMU

Throughout the following assumptions are being made:
  (1) The electronic state is orbitally nondegenerate
  (2) There are no thermally accessible electronically excited states
  (3) Hindered rotations indicated by low frequency modes are not
      treated as such but are treated as vibrations and this may
      cause some error
  (4) All equations used are the standard statistical mechanics
      equations for an ideal gas
  (5) All vibrations are strictly harmonic

freq.      42.14  E(vib)   ...       0.53 
freq.      64.40  E(vib)   ...       0.51 
freq.      68.88  E(vib)   ...       0.50 
freq.      86.65  E(vib)   ...       0.48 
freq.      96.58  E(vib)   ...       0.47 
freq.     100.22  E(vib)   ...       0.46 
freq.     117.24  E(vib)   ...       0.44 
freq.     139.14  E(vib)   ...       0.42 
freq.     142.00  E(vib)   ...       0.41 
freq.     211.07  E(vib)   ...       0.34 
freq.     222.73  E(vib)   ...       0.33 
freq.     226.22  E(vib)   ...       0.33 
freq.     246.97  E(vib)   ...       0.31 
freq.     292.02  E(vib)   ...       0.27 
freq.     335.52  E(vib)   ...       0.24 
freq.     373.34  E(vib)   ...       0.21 
freq.     382.87  E(vib)   ...       0.20 
freq.     405.72  E(vib)   ...       0.19 
freq.     435.15  E(vib)   ...       0.17 
freq.     487.18  E(vib)   ...       0.15 
freq.     521.84  E(vib)   ...       0.13 
freq.     527.07  E(vib)   ...       0.13 
freq.     559.54  E(vib)   ...       0.12 
freq.     589.91  E(vib)   ...       0.10 
freq.     591.00  E(vib)   ...       0.10 
freq.     619.35  E(vib)   ...       0.09 
freq.     637.68  E(vib)   ...       0.09 
freq.     674.39  E(vib)   ...       0.08 
freq.     721.59  E(vib)   ...       0.07 
freq.     756.69  E(vib)   ...       0.06 
freq.     774.53  E(vib)   ...       0.05 
freq.     802.30  E(vib)   ...       0.05 
freq.     809.82  E(vib)   ...       0.05 
freq.     831.80  E(vib)   ...       0.04 
freq.     851.48  E(vib)   ...       0.04 
freq.     885.85  E(vib)   ...       0.04 
freq.     903.90  E(vib)   ...       0.03 
freq.     916.37  E(vib)   ...       0.03 
freq.     934.98  E(vib)   ...       0.03 
freq.     945.46  E(vib)   ...       0.03 
freq.     954.50  E(vib)   ...       0.03 
freq.     957.66  E(vib)   ...       0.03 
freq.     979.84  E(vib)   ...       0.02 
freq.    1001.81  E(vib)   ...       0.02 
freq.    1016.54  E(vib)   ...       0.02 
freq.    1056.26  E(vib)   ...       0.02 
freq.    1073.23  E(vib)   ...       0.02 
freq.    1082.10  E(vib)   ...       0.02 
freq.    1106.09  E(vib)   ...       0.02 
freq.    1117.95  E(vib)   ...       0.01 
freq.    1131.69  E(vib)   ...       0.01 
freq.    1140.15  E(vib)   ...       0.01 
freq.    1180.41  E(vib)   ...       0.01 
freq.    1190.50  E(vib)   ...       0.01 
freq.    1194.48  E(vib)   ...       0.01 
freq.    1210.16  E(vib)   ...       0.01 
freq.    1219.65  E(vib)   ...       0.01 
freq.    1242.21  E(vib)   ...       0.01 
freq.    1265.34  E(vib)   ...       0.01 
freq.    1271.81  E(vib)   ...       0.01 
freq.    1281.27  E(vib)   ...       0.01 
freq.    1281.42  E(vib)   ...       0.01 
freq.    1283.34  E(vib)   ...       0.01 
freq.    1293.96  E(vib)   ...       0.01 
freq.    1307.08  E(vib)   ...       0.01 
freq.    1338.77  E(vib)   ...       0.01 
freq.    1342.20  E(vib)   ...       0.01 
freq.    1372.07  E(vib)   ...       0.01 
freq.    1408.08  E(vib)   ...       0.00 
freq.    1424.34  E(vib)   ...       0.00 
freq.    1430.49  E(vib)   ...       0.00 
freq.    1443.00  E(vib)   ...       0.00 
freq.    1451.82  E(vib)   ...       0.00 
freq.    1460.13  E(vib)   ...       0.00 
freq.    1475.32  E(vib)   ...       0.00 
freq.    1494.49  E(vib)   ...       0.00 
freq.    1502.78  E(vib)   ...       0.00 
freq.    1507.97  E(vib)   ...       0.00 
freq.    1510.97  E(vib)   ...       0.00 
freq.    1568.08  E(vib)   ...       0.00 
freq.    1573.40  E(vib)   ...       0.00 
freq.    2090.61  E(vib)   ...       0.00 
freq.    2254.68  E(vib)   ...       0.00 
freq.    2934.15  E(vib)   ...       0.00 
freq.    2943.73  E(vib)   ...       0.00 
freq.    2959.85  E(vib)   ...       0.00 
freq.    2969.70  E(vib)   ...       0.00 
freq.    2971.14  E(vib)   ...       0.00 
freq.    2977.58  E(vib)   ...       0.00 
freq.    2979.41  E(vib)   ...       0.00 
freq.    2999.44  E(vib)   ...       0.00 
freq.    3010.13  E(vib)   ...       0.00 
freq.    3040.03  E(vib)   ...       0.00 
freq.    3040.66  E(vib)   ...       0.00 
freq.    3054.89  E(vib)   ...       0.00 
freq.    3060.49  E(vib)   ...       0.00 
freq.    3070.40  E(vib)   ...       0.00 
freq.    3097.21  E(vib)   ...       0.00 
freq.    3326.39  E(vib)   ...       0.00 
freq.    3598.86  E(vib)   ...       0.00 
freq.    3616.88  E(vib)   ...       0.00 

------------
INNER ENERGY
------------

The inner energy is: U= E(el) + E(ZPE) + E(vib) + E(rot) + E(trans)
    E(el)   - is the total energy from the electronic structure calculation
              = E(kin-el) + E(nuc-el) + E(el-el) + E(nuc-nuc)
    E(ZPE)  - the the zero temperature vibrational energy from the frequency calculation
    E(vib)  - the the finite temperature correction to E(ZPE) due to population
              of excited vibrational states
    E(rot)  - is the rotational thermal energy
    E(trans)- is the translational thermal energy

Summary of contributions to the inner energy U:
Electronic energy                ...    -49.35913334 Eh
Zero point energy                ...      0.29951337 Eh     187.95 kcal/mol
Thermal vibrational correction   ...      0.01389532 Eh       8.72 kcal/mol
Thermal rotational correction    ...      0.00141627 Eh       0.89 kcal/mol
Thermal translational correction ...      0.00141627 Eh       0.89 kcal/mol
-----------------------------------------------------------------------
Total thermal energy                    -49.04289211 Eh


Summary of corrections to the electronic energy:
(perhaps to be used in another calculation)
Total thermal correction                  0.01672786 Eh      10.50 kcal/mol
Non-thermal (ZPE) correction              0.29951337 Eh     187.95 kcal/mol
-----------------------------------------------------------------------
Total correction                          0.31624123 Eh     198.44 kcal/mol


--------
ENTHALPY
--------

The enthalpy is H = U + kB*T
                kB is Boltzmann's constant
Total free energy                 ...    -49.04289211 Eh 
Thermal Enthalpy correction       ...      0.00094421 Eh       0.59 kcal/mol
-----------------------------------------------------------------------
Total Enthalpy                    ...    -49.04194791 Eh


Note: Only C1 symmetry has been detected, increase convergence thresholds 
      if your molecule has a higher symmetry. Symmetry factor of 1.0 is   
      used for the rotational entropy correction. 
 

Note: Rotational entropy computed according to Herzberg 
Infrared and Raman Spectra, Chapter V,1, Van Nostrand Reinhold, 1945 
Point Group:  C1, Symmetry Number:   1  
Rotational constants in cm-1:     0.026394     0.009777     0.007990 

Vibrational entropy computed according to the QRRHO of S. Grimme
Chem.Eur.J. 2012 18 9955


-------
ENTROPY
-------

The entropy contributions are T*S = T*(S(el)+S(vib)+S(rot)+S(trans))
     S(el)   - electronic entropy
     S(vib)  - vibrational entropy
     S(rot)  - rotational entropy
     S(trans)- translational entropy
The entropies will be listed as mutliplied by the temperature to get
units of energy

Electronic entropy                ...      0.00000000 Eh      0.00 kcal/mol
Vibrational entropy               ...      0.02433044 Eh     15.27 kcal/mol
Rotational entropy                ...      0.01569140 Eh      9.85 kcal/mol
Translational entropy             ...      0.01995728 Eh     12.52 kcal/mol
-----------------------------------------------------------------------
Final entropy term                ...      0.05997911 Eh     37.64 kcal/mol

In case the symmetry of your molecule has not been determined correctly
or in case you have a reason to use a different symmetry number we print 
out the resulting rotational entropy values for sn=1,12 :
 --------------------------------------------------------
|  sn= 1 | S(rot)=       0.01569140 Eh      9.85 kcal/mol|
|  sn= 2 | S(rot)=       0.01503694 Eh      9.44 kcal/mol|
|  sn= 3 | S(rot)=       0.01465411 Eh      9.20 kcal/mol|
|  sn= 4 | S(rot)=       0.01438249 Eh      9.03 kcal/mol|
|  sn= 5 | S(rot)=       0.01417180 Eh      8.89 kcal/mol|
|  sn= 6 | S(rot)=       0.01399965 Eh      8.78 kcal/mol|
|  sn= 7 | S(rot)=       0.01385411 Eh      8.69 kcal/mol|
|  sn= 8 | S(rot)=       0.01372803 Eh      8.61 kcal/mol|
|  sn= 9 | S(rot)=       0.01361682 Eh      8.54 kcal/mol|
|  sn=10 | S(rot)=       0.01351734 Eh      8.48 kcal/mol|
|  sn=11 | S(rot)=       0.01342735 Eh      8.43 kcal/mol|
|  sn=12 | S(rot)=       0.01334520 Eh      8.37 kcal/mol|
 --------------------------------------------------------


-------------------
GIBBS FREE ENERGY
-------------------

The Gibbs free energy is G = H - T*S

Total enthalpy                    ...    -49.04194791 Eh 
Total entropy correction          ...     -0.05997911 Eh    -37.64 kcal/mol
-----------------------------------------------------------------------
Final Gibbs free energy         ...    -49.10192702 Eh

For completeness - the Gibbs free energy minus the electronic energy
G-E(el)                           ...      0.25720632 Eh    161.40 kcal/mol


Total Time for Numerical Frequencies  :        59.451 sec
Time for Reference State(s)           :         0.089 sec
Time for Displacements                :        52.005 sec

Timings for individual modules:

Sum of individual times         ...        0.171 sec (=   0.003 min)
XTB module                      ...        0.171 sec (=   0.003 min) 100.0 %
                             ****ORCA TERMINATED NORMALLY****
TOTAL RUN TIME: 0 days 0 hours 0 minutes 59 seconds 975 msec
(SLURM) EXECUTION TIME: 59.996721302 seconds.
