(SLURM) JOB ID:         214

                                 *****************
                                 * O   R   C   A *
                                 *****************

           --- An Ab Initio, DFT and Semiempirical electronic structure package ---

                  #######################################################
                  #                        -***-                        #
                  #          Department of theory and spectroscopy      #
                  #               Directorship: Frank Neese             #
                  #        Max Planck Institute fuer Kohlenforschung    #
                  #                Kaiser Wilhelm Platz 1               #
                  #                 D-45470 Muelheim/Ruhr               #
                  #                      Germany                        #
                  #                                                     #
                  #                  All rights reserved                #
                  #                        -***-                        #
                  #######################################################


                         Program Version 4.2.1 -  RELEASE  -


 With contributions from (in alphabetic order):
   Daniel Aravena         : Magnetic Suceptibility
   Michael Atanasov       : Ab Initio Ligand Field Theory (pilot matlab implementation)
   Alexander A. Auer      : GIAO ZORA, VPT2
   Ute Becker             : Parallelization
   Giovanni Bistoni       : ED, misc. LED, open-shell LED, HFLD
   Martin Brehm           : Molecular dynamics
   Dmytro Bykov           : SCF Hessian
   Vijay G. Chilkuri      : MRCI spin determinant printing, contributions to CSF-ICE
   Dipayan Datta          : RHF DLPNO-CCSD density
   Achintya Kumar Dutta   : EOM-CC, STEOM-CC
   Dmitry Ganyushin       : Spin-Orbit,Spin-Spin,Magnetic field MRCI
   Miquel Garcia          : C-PCM Hessian, Gaussian charge scheme
   Yang Guo               : DLPNO-NEVPT2, CIM, IAO-localization
   Andreas Hansen         : Spin unrestricted coupled pair/coupled cluster methods
   Benjamin Helmich-Paris : CASSCF linear response (MC-RPA)
   Lee Huntington         : MR-EOM, pCC
   Robert Izsak           : Overlap fitted RIJCOSX, COSX-SCS-MP3, EOM
   Christian Kollmar      : KDIIS, OOCD, Brueckner-CCSD(T), CCSD density
   Simone Kossmann        : Meta GGA functionals, TD-DFT gradient, OOMP2, MP2 Hessian
   Martin Krupicka        : AUTO-CI
   Lucas Lang             : DCDCAS
   Dagmar Lenk            : GEPOL surface, SMD
   Dimitrios Liakos       : Extrapolation schemes; Compound Job, initial MDCI parallelization
   Dimitrios Manganas     : Further ROCIS development; embedding schemes
   Dimitrios Pantazis     : SARC Basis sets
   Taras Petrenko         : DFT Hessian,TD-DFT gradient, ASA, ECA, R-Raman, ABS, FL, XAS/XES, NRVS
   Peter Pinski           : DLPNO-MP2, DLPNO-MP2 Gradient
   Christoph Reimann      : Effective Core Potentials
   Marius Retegan         : Local ZFS, SOC
   Christoph Riplinger    : Optimizer, TS searches, QM/MM, DLPNO-CCSD(T), (RO)-DLPNO pert. Triples
   Tobias Risthaus        : Range-separated hybrids, TD-DFT gradient, RPA, STAB
   Michael Roemelt        : Original ROCIS implementation
   Masaaki Saitow         : Open-shell DLPNO-CCSD energy and density
   Barbara Sandhoefer     : DKH picture change effects
   Avijit Sen             : IP-ROCIS
   Kantharuban Sivalingam : CASSCF convergence, NEVPT2, FIC-MRCI
   Bernardo de Souza      : ESD, SOC TD-DFT
   Georgi Stoychev        : AutoAux, RI-MP2 NMR
   Willem Van den Heuvel  : Paramagnetic NMR
   Boris Wezisla          : Elementary symmetry handling
   Frank Wennmohs         : Technical directorship


 We gratefully acknowledge several colleagues who have allowed us to
 interface, adapt or use parts of their codes:
   Stefan Grimme, W. Hujo, H. Kruse,             : VdW corrections, initial TS optimization,
                  C. Bannwarth                     DFT functionals, gCP, sTDA/sTD-DF
   Ed Valeev, F. Pavosevic, A. Kumar             : LibInt (2-el integral package), F12 methods
   Garnet Chan, S. Sharma, J. Yang, R. Olivares  : DMRG
   Ulf Ekstrom                                   : XCFun DFT Library
   Mihaly Kallay                                 : mrcc  (arbitrary order and MRCC methods)
   Andreas Klamt, Michael Diedenhofen            : otool_cosmo (COSMO solvation model)
   Jiri Pittner, Ondrej Demel                    : Mk-CCSD
   Frank Weinhold                                : gennbo (NPA and NBO analysis)
   Christopher J. Cramer and Donald G. Truhlar   : smd solvation model
   Lars Goerigk                                  : TD-DFT with DH, B97 family of functionals
   V. Asgeirsson, H. Jonsson                     : NEB implementation
   FAccTs GmbH                                   : IRC, NEB, NEB-TS, Multilevel, MM, QM/MM, CI optimization
   S Lehtola, MJT Oliveira, MAL Marques          : LibXC Library


 Your calculation uses the libint2 library for the computation of 2-el integrals
 For citations please refer to: http://libint.valeyev.net

 Your ORCA version has been built with support for libXC version: 4.2.3
 For citations please refer to: https://tddft.org/programs/libxc/

 This ORCA versions uses:
   CBLAS   interface :  Fast vector & matrix operations
   LAPACKE interface :  Fast linear algebra routines
   SCALAPACK package :  Parallel linear algebra routines




***************************************
The coordinates will be read from file: init.xyz
***************************************


Your calculation utilizes the atom-pairwise dispersion correction
with the Becke-Johnson damping scheme (D3BJ)
Cite in your paper:
S.Grimme, S.Ehrlich, L.Goerigk, J Comput Chem, (2011), 32, 1456–1465 
S.Grimme, J.Antony, S.Ehrlich and H.Krieg, J.Chem.Phys., 132, (2010), 154104 
   

Your calculation utilizes the SMD solvation module
Please cite in your paper:
A.V. Marenich, C.J. Cramer, D.G. Truhlar J. Phys. Chem. B, 113, (2009), 6378 

----- Orbital basis set information -----
Your calculation utilizes the basis: cc-pVTZ 
       H, B-Ne : Obtained from the ccRepo (grant-hill.group.shef.ac.uk/ccrepo) Feb. 2017
                 T. H. Dunning, Jr., J. Chem. Phys. 90, 1007 (1989)
            He : Obtained from the ccRepo (grant-hill.group.shef.ac.uk/ccrepo) Feb. 2017
                 D. E. Woon, T. H. Dunning, Jr., J. Chem. Phys. 100, 2975 (1994)
  Li-Be, Na-Mg : Obtained from the ccRepo (grant-hill.group.shef.ac.uk/ccrepo) Feb. 2017
                 B. P. Prascher, D. E. Woon, K. A. Peterson, T. H. Dunning, Jr., A. K. Wilson, Theor. Chem. Acc. 128, 69 (2011)
         Al-Ar : Obtained from the ccRepo (grant-hill.group.shef.ac.uk/ccrepo) Feb. 2017
                 D. E. Woon, T. H. Dunning, Jr., J. Chem. Phys. 98, 1358 (1993)
            Ca : Obtained from the Peterson Research Group Website (tyr0.chem.wsu.edu/~kipeters) Feb. 2017
                 J. Koput, K. A. Peterson, J. Phys. Chem. 106, 9595 (2002)
         Sc-Zn : Obtained from the ccRepo (grant-hill.group.shef.ac.uk/ccrepo) Feb. 2017
                 N. B. Balabanov, K. A. Peterson, J. Chem. Phys. 123, 064107 (2005)
                 N. B. Balabanov, K. A. Peterson, J. Chem. Phys. 125, 074110 (2006)
         Ga-Kr : Obtained from the ccRepo (grant-hill.group.shef.ac.uk/ccrepo) Feb. 2017
                 A. K. Wilson, D. E. Woon, K. A. Peterson, T. H. Dunning, Jr., J. Chem. Phys. 110, 7667 (1999)
             Y : Obtained from the ccRepo (grant-hill.group.shef.ac.uk/ccrepo) Feb. 2017
                 K. A. Peterson, D. Figgen, M. Dolg, H. Stoll, J. Chem. Phys. 126, 124101 (2007)
        Ag, Au : Obtained from the Peterson Research Group Website (tyr0.chem.wsu.edu/~kipeters) Feb. 2017
                 K. A. Peterson, C. Puzzarini, Theor. Chem. Acc. 114, 283 (2005)

================================================================================
                                        WARNINGS
                       Please study these warnings very carefully!
================================================================================


WARNING: Geometry Optimization
  ===> : Switching off AutoStart
         For restart on a previous wavefunction, please use MOREAD

INFO   : the flag for use of LIBINT has been found!

================================================================================
                                       INPUT FILE
================================================================================
NAME = /tmp/slurm-scratch/opt+freq.214/opt+freq.inp
|  1> ! B3LYP D3BJ cc-pVTZ NoRI Opt Freq TightSCF Grid4 FinalGrid5 PrintBasis PrintMOs
|  2> %maxcore 1450
|  3> 
|  4> * xyzfile 0 1 init.xyz
|  5> 
|  6> %cpcm
|  7>  smd true
|  8>  smdsolvent "dichloromethane"
|  9> end
| 10> 
| 11> %scf
| 12>  guess pmodel
| 13> end
| 14> 
| 15> %geom
| 16>  maxiter 30
| 17>  trust 0.2
| 18>  inhess read
| 19>  inhessname "freq.hess"
| 20> end
| 21> %pal nprocs 8 end
| 22> 
| 23>                          ****END OF INPUT****
================================================================================

                       *****************************
                       * Geometry Optimization Run *
                       *****************************

Geometry optimization settings:
Update method            Update   .... BFGS
Choice of coordinates    CoordSys .... Z-matrix Internals
Initial Hessian          InHess   .... Read

Convergence Tolerances:
Energy Change            TolE     ....  5.0000e-06 Eh
Max. Gradient            TolMAXG  ....  3.0000e-04 Eh/bohr
RMS Gradient             TolRMSG  ....  1.0000e-04 Eh/bohr
Max. Displacement        TolMAXD  ....  4.0000e-03 bohr
RMS Displacement         TolRMSD  ....  2.0000e-03 bohr
Strict Convergence                ....  False
------------------------------------------------------------------------------
                        ORCA OPTIMIZATION COORDINATE SETUP
------------------------------------------------------------------------------

The optimization will be done in new redundant internal coordinates
Making redundant internal coordinates   ...  (new redundants) done
Evaluating the initial hessian          ... (Reading Exact Hessian)...  
InHessName: freq.hess	The file <freq.hess> is opened as a .hess file
done
done
Diagonalizing the Hessian               .... done
Dimension of the hessian                .... 75
Lowest eigenvalues of the non projected Hessian:
 -0.000000000 -0.000000000 -0.000000000 -0.000000000 -0.000000000
done
Evaluating the coordinates              ...  done
Calculating the B-matrix                .... done
Calculating the G-matrix                .... done
Diagonalizing the G-matrix              .... done
Small eigenvalue found = 2.672e-02
The first mode is                       ....   33
The number of degrees of freedom        ....   42

    -----------------------------------------------------------------
                    Redundant Internal Coordinates


    -----------------------------------------------------------------
         Definition                    Initial Value    d2E/dq (diagonal element)
    -----------------------------------------------------------------
      1. B(H   1,C   0)                  1.0944         0.311354   
      2. B(H   2,C   0)                  1.0942         0.311418   
      3. B(C   3,C   0)                  1.5271         0.306451   
      4. B(H   4,C   3)                  1.0960         0.308077   
      5. B(H   5,C   3)                  1.0942         0.313185   
      6. B(C   6,C   3)                  1.5225         0.310120   
      7. B(H   7,C   6)                  1.0988         0.294084   
      8. B(H   8,C   6)                  1.0931         0.313823   
      9. B(N   9,C   6)                  1.4700         0.323466   
     10. B(H  10,N   9)                  1.0146         0.414214   
     11. B(H  11,N   9)                  1.0155         0.411865   
     12. B(C  12,C   0)                  1.5262         0.310600   
     13. B(H  13,C  12)                  1.0928         0.317290   
     14. B(H  14,C  12)                  1.0919         0.319159   
     15. B(H  15,C  12)                  1.0927         0.317918   
     16. A(H   1,C   0,C  12)          109.4179         0.045761   
     17. A(H   2,C   0,C  12)          109.3995         0.045821   
     18. A(H   2,C   0,C   3)          109.3435         0.045999   
     19. A(H   1,C   0,C   3)          109.1932         0.045624   
     20. A(H   1,C   0,H   2)          106.3369         0.017758   
     21. A(C   3,C   0,C  12)          112.9351         0.122923   
     22. A(C   0,C   3,C   6)          113.3593         0.119270   
     23. A(H   4,C   3,H   5)          106.5408         0.017610   
     24. A(C   0,C   3,H   5)          109.8332         0.044463   
     25. A(H   5,C   3,C   6)          108.7078         0.045189   
     26. A(C   0,C   3,H   4)          109.2142         0.045174   
     27. A(H   4,C   3,C   6)          108.9558         0.045935   
     28. A(H   8,C   6,N   9)          107.7992         0.047011   
     29. A(H   7,C   6,N   9)          112.9052         0.052535   
     30. A(H   7,C   6,H   8)          106.7422         0.020705   
     31. A(C   3,C   6,H   8)          109.3612         0.051578   
     32. A(C   3,C   6,H   7)          109.0993         0.054610   
     33. A(C   3,C   6,N   9)          110.8002         0.133126   
     34. A(H  10,N   9,H  11)          105.5681         0.048800   
     35. A(C   6,N   9,H  11)          109.1836         0.135040   
     36. A(C   6,N   9,H  10)          109.6654         0.131888   
     37. A(H  13,C  12,H  15)          107.5989         0.051888   
     38. A(C   0,C  12,H  15)          111.1023         0.101075   
     39. A(H  13,C  12,H  14)          107.6803         0.051820   
     40. A(C   0,C  12,H  14)          111.4778         0.099707   
     41. A(H  14,C  12,H  15)          107.6243         0.051551   
     42. A(C   0,C  12,H  13)          111.1718         0.102243   
     43. D(C   6,C   3,C   0,H   1)     57.6100         0.013503   
     44. D(C   6,C   3,C   0,H   2)    -58.3574         0.013517   
     45. D(H   4,C   3,C   0,H   1)    179.2942         0.014705   
     46. D(H   4,C   3,C   0,H   2)     63.3267         0.015064   
     47. D(H   4,C   3,C   0,C  12)    -58.7317         0.014081   
     48. D(H   5,C   3,C   0,H   1)    -64.2053         0.014919   
     49. D(H   5,C   3,C   0,H   2)    179.8273         0.014581   
     50. D(C   6,C   3,C   0,C  12)    179.5841         0.013009   
     51. D(H   5,C   3,C   0,C  12)     57.7688         0.013888   
     52. D(H   8,C   6,C   3,H   4)    177.9512         0.014654   
     53. D(H   8,C   6,C   3,C   0)    -60.2201         0.013880   
     54. D(H   7,C   6,C   3,H   5)    178.6320         0.014648   
     55. D(H   8,C   6,C   3,H   5)     62.2217         0.015178   
     56. D(H   7,C   6,C   3,H   4)    -65.6385         0.015293   
     57. D(H   7,C   6,C   3,C   0)     56.1902         0.013956   
     58. D(N   9,C   6,C   3,H   5)    -56.4688         0.015097   
     59. D(N   9,C   6,C   3,H   4)     59.2607         0.015099   
     60. D(N   9,C   6,C   3,C   0)   -178.9107         0.015006   
     61. D(H  11,N   9,C   6,H   8)    174.9271         0.018464   
     62. D(H  11,N   9,C   6,H   7)     57.2753         0.017710   
     63. D(H  11,N   9,C   6,C   3)    -65.4413         0.015031   
     64. D(H  10,N   9,C   6,H   8)     59.7069         0.017596   
     65. D(H  10,N   9,C   6,H   7)    -57.9449         0.017374   
     66. D(H  10,N   9,C   6,C   3)    179.3385         0.015097   
     67. D(H  14,C  12,C   0,C   3)    179.7001         0.014735   
     68. D(H  14,C  12,C   0,H   2)     57.6731         0.014948   
     69. D(H  14,C  12,C   0,H   1)    -58.4522         0.014937   
     70. D(H  13,C  12,C   0,C   3)     59.5422         0.014165   
     71. D(H  13,C  12,C   0,H   2)    -62.4848         0.015289   
     72. D(H  15,C  12,C   0,H   1)     61.5874         0.015319   
     73. D(H  13,C  12,C   0,H   1)   -178.6101         0.015122   
     74. D(H  15,C  12,C   0,C   3)    -60.2602         0.014228   
     75. D(H  15,C  12,C   0,H   2)    177.7127         0.015192   
    -----------------------------------------------------------------

Number of atoms                         .... 16
Number of degrees of freedom            .... 75

         *************************************************************
         *                GEOMETRY OPTIMIZATION CYCLE   1            *
         *************************************************************
---------------------------------
CARTESIAN COORDINATES (ANGSTROEM)
---------------------------------
  C     -3.544924   -1.078929   -0.002021
  H     -3.271354   -2.138613    0.000019
  H     -3.096576   -0.647035   -0.901895
  C     -2.950818   -0.404683    1.232646
  H     -3.213967    0.659212    1.224395
  H     -3.396163   -0.828720    2.137653
  C     -1.437048   -0.539029    1.324227
  H     -0.984303   -0.137181    0.407218
  H     -1.169297   -1.597862    1.369735
  N     -0.928561    0.105853    2.543433
  H      0.078948   -0.003231    2.592606
  H     -1.091811    1.106372    2.484620
  C     -5.063440   -0.947082   -0.078914
  H     -5.367560    0.102142   -0.107402
  H     -5.462137   -1.432278   -0.972140
  H     -5.542690   -1.406537    0.789020

----------------------------
CARTESIAN COORDINATES (A.U.)
----------------------------
  NO LB      ZA    FRAG     MASS         X           Y           Z
   0 C     6.0000    0    12.011   -6.698936   -2.038881   -0.003818
   1 H     1.0000    0     1.008   -6.181964   -4.041392    0.000036
   2 H     1.0000    0     1.008   -5.851680   -1.222719   -1.704335
   3 C     6.0000    0    12.011   -5.576238   -0.764741    2.329363
   4 H     1.0000    0     1.008   -6.073517    1.245731    2.313772
   5 H     1.0000    0     1.008   -6.417818   -1.566054    4.039579
   6 C     6.0000    0    12.011   -2.715627   -1.018618    2.502426
   7 H     1.0000    0     1.008   -1.860062   -0.259235    0.769530
   8 H     1.0000    0     1.008   -2.209652   -3.019521    2.588424
   9 N     7.0000    0    14.007   -1.754727    0.200033    4.806392
  10 H     1.0000    0     1.008    0.149190   -0.006105    4.899316
  11 H     1.0000    0     1.008   -2.063223    2.090740    4.695251
  12 C     6.0000    0    12.011   -9.568514   -1.789725   -0.149126
  13 H     1.0000    0     1.008  -10.143219    0.193021   -0.202960
  14 H     1.0000    0     1.008  -10.321944   -2.706614   -1.837078
  15 H     1.0000    0     1.008  -10.474167   -2.657970    1.491032

--------------------------------
INTERNAL COORDINATES (ANGSTROEM)
--------------------------------
 C      0   0   0     0.000000000000     0.00000000     0.00000000
 H      1   0   0     1.094428145755     0.00000000     0.00000000
 H      1   2   0     1.094222640669   106.33690319     0.00000000
 C      1   2   3     1.527078810138   109.19318276   242.12664716
 H      4   1   2     1.095987664711   109.21421330   179.29418410
 H      4   1   2     1.094156194170   109.83321059   295.79470068
 C      4   1   2     1.522477388625   113.35929101    57.60999301
 H      7   4   1     1.098802019836   109.09931991    56.19015472
 H      7   4   1     1.093108887794   109.36119625   299.77985016
 N      7   4   1     1.469998061272   110.80020811   181.08928665
 H     10   7   4     1.014589711122   109.66541995   179.33847680
 H     10   7   4     1.015454843359   109.18362003   294.55869517
 C      1   2   3     1.526167188080   109.41786355   118.05574164
 H     13   1   2     1.092781471146   111.17180647   181.38989101
 H     13   1   2     1.091891625113   111.47779529   301.54777645
 H     13   1   2     1.092744660490   111.10229225    61.58743587

---------------------------
INTERNAL COORDINATES (A.U.)
---------------------------
 C      0   0   0     0.000000000000     0.00000000     0.00000000
 H      1   0   0     2.068169468732     0.00000000     0.00000000
 H      1   2   0     2.067781120401   106.33690319     0.00000000
 C      1   2   3     2.885760736075   109.19318276   242.12664716
 H      4   1   2     2.071116532460   109.21421330   179.29418410
 H      4   1   2     2.067655554714   109.83321059   295.79470068
 C      4   1   2     2.877065309589   113.35929101    57.60999301
 H      7   4   1     2.076434892889   109.09931991    56.19015472
 H      7   4   1     2.065676432486   109.36119625   299.77985016
 N      7   4   1     2.777893753200   110.80020811   181.08928665
 H     10   7   4     1.917296692315   109.66541995   179.33847680
 H     10   7   4     1.918931555312   109.18362003   294.55869517
 C      1   2   3     2.884038020048   109.41786355   118.05574164
 H     13   1   2     2.065057704689   111.17180647   181.38989101
 H     13   1   2     2.063376139387   111.47779529   301.54777645
 H     13   1   2     2.064988142630   111.10229225    61.58743587

---------------------
BASIS SET INFORMATION
---------------------
There are 3 groups of distinct atoms

 Group   1 Type C   : 18s5p2d1f contracted to 4s3p2d1f pattern {8811/311/11/1}
 Group   2 Type H   : 5s2p1d contracted to 3s2p1d pattern {311/11/1}
 Group   3 Type N   : 18s5p2d1f contracted to 4s3p2d1f pattern {8811/311/11/1}

Atom   0C    basis set group =>   1
Atom   1H    basis set group =>   2
Atom   2H    basis set group =>   2
Atom   3C    basis set group =>   1
Atom   4H    basis set group =>   2
Atom   5H    basis set group =>   2
Atom   6C    basis set group =>   1
Atom   7H    basis set group =>   2
Atom   8H    basis set group =>   2
Atom   9N    basis set group =>   3
Atom  10H    basis set group =>   2
Atom  11H    basis set group =>   2
Atom  12C    basis set group =>   1
Atom  13H    basis set group =>   2
Atom  14H    basis set group =>   2
Atom  15H    basis set group =>   2

-------------------------
BASIS SET IN INPUT FORMAT
-------------------------

 # Basis set for element : H 
 NewGTO H 
 S 3 
   1      33.8700000000      0.0254948632
   2       5.0950000000      0.1903627659
   3       1.1590000000      0.8521620222
 S 1 
   1       0.3258000000      1.0000000000
 S 1 
   1       0.1027000000      1.0000000000
 P 1 
   1       1.4070000000      1.0000000000
 P 1 
   1       0.3880000000      1.0000000000
 D 1 
   1       1.0570000000      1.0000000000
  end;

 # Basis set for element : C 
 NewGTO C 
 S 8 
   1    8236.0000000000      0.0005424302
   2    1235.0000000000      0.0041964279
   3     280.8000000000      0.0215409141
   4      79.2700000000      0.0836149496
   5      25.5900000000      0.2398716189
   6       8.9970000000      0.4437518201
   7       3.3190000000      0.3535796965
   8       0.3643000000     -0.0091763661
 S 8 
   1    8236.0000000000     -0.0001963922
   2    1235.0000000000     -0.0015259503
   3     280.8000000000     -0.0078904490
   4      79.2700000000     -0.0315148705
   5      25.5900000000     -0.0969100083
   6       8.9970000000     -0.2205415263
   7       3.3190000000     -0.2960691129
   8       0.3643000000      1.0405034329
 S 1 
   1       0.9059000000      1.0000000000
 S 1 
   1       0.1285000000      1.0000000000
 P 3 
   1      18.7100000000      0.0394263872
   2       4.1330000000      0.2440889849
   3       1.2000000000      0.8154920089
 P 1 
   1       0.3827000000      1.0000000000
 P 1 
   1       0.1209000000      1.0000000000
 D 1 
   1       1.0970000000      1.0000000000
 D 1 
   1       0.3180000000      1.0000000000
 F 1 
   1       0.7610000000      1.0000000000
  end;

 # Basis set for element : N 
 NewGTO N 
 S 8 
   1   11420.0000000000      0.0005349809
   2    1712.0000000000      0.0041376631
   3     389.3000000000      0.0212509149
   4     110.0000000000      0.0825762988
   5      35.5700000000      0.2384132727
   6      12.5400000000      0.4434316661
   7       4.6440000000      0.3554319088
   8       0.5118000000     -0.0087029018
 S 8 
   1   11420.0000000000     -0.0001987770
   2    1712.0000000000     -0.0015470035
   3     389.3000000000     -0.0079925633
   4     110.0000000000     -0.0320255651
   5      35.5700000000     -0.0991102048
   6      12.5400000000     -0.2282927747
   7       4.6440000000     -0.2981827627
   8       0.5118000000      1.0370005182
 S 1 
   1       1.2930000000      1.0000000000
 S 1 
   1       0.1787000000      1.0000000000
 P 3 
   1      26.6300000000      0.0398072123
   2       5.9480000000      0.2490026605
   3       1.7420000000      0.8104797267
 P 1 
   1       0.5550000000      1.0000000000
 P 1 
   1       0.1725000000      1.0000000000
 D 1 
   1       1.6540000000      1.0000000000
 D 1 
   1       0.4690000000      1.0000000000
 F 1 
   1       1.0930000000      1.0000000000
  end;



           ************************************************************
           *        Program running with 8 parallel MPI-processes     *
           *              working on a common directory               *
           ************************************************************
------------------------------------------------------------------------------
                           ORCA GTO INTEGRAL CALCULATION
------------------------------------------------------------------------------

                         BASIS SET STATISTICS AND STARTUP INFO

 # of primitive gaussian shells          ...  218
 # of primitive gaussian functions       ...  426
 # of contracted shells                  ...  116
 # of contracted basis functions         ...  304
 Highest angular momentum                ...    3
 Maximum contraction depth               ...    8
 Integral package used                   ... LIBINT
 Integral threshhold            Thresh   ...  2.500e-11
 Primitive cut-off              TCut     ...  2.500e-12


------------------------------ INTEGRAL EVALUATION ----------------------------


 * One electron integrals 
 Pre-screening matrix                    ... done
 Shell pair data                         ... done (   0.005 sec)



           ************************************************************
           *        Program running with 8 parallel MPI-processes     *
           *              working on a common directory               *
           ************************************************************
-------------------------------------------------------------------------------
                                 ORCA SCF
-------------------------------------------------------------------------------

------------
SCF SETTINGS
------------
Hamiltonian:
 Density Functional     Method          .... DFT(GTOs)
 Exchange Functional    Exchange        .... B88
   X-Alpha parameter    XAlpha          ....  0.666667
   Becke's b parameter  XBeta           ....  0.004200
 Correlation Functional Correlation     .... LYP
 LDA part of GGA corr.  LDAOpt          .... VWN-5
 Gradients option       PostSCFGGA      .... off
 Hybrid DFT is turned on
   Fraction HF Exchange ScalHFX         ....  0.200000
   Scaling of DF-GGA-X  ScalDFX         ....  0.720000
   Scaling of DF-GGA-C  ScalDFC         ....  0.810000
   Scaling of DF-LDA-C  ScalLDAC        ....  1.000000
   Perturbative correction              ....  0.000000
   Density functional embedding theory  .... OFF
   NL short-range parameter             ....  4.800000


General Settings:
 Integral files         IntName         .... /tmp/slurm-scratch/opt+freq.214/opt+freq
 Hartree-Fock type      HFTyp           .... RHF
 Total Charge           Charge          ....    0
 Multiplicity           Mult            ....    1
 Number of Electrons    NEL             ....   42
 Basis Dimension        Dim             ....  304
 Nuclear Repulsion      ENuc            ....    185.7516647352 Eh

Convergence Acceleration:
 DIIS                   CNVDIIS         .... on
   Start iteration      DIISMaxIt       ....    12
   Startup error        DIISStart       ....  0.200000
   # of expansion vecs  DIISMaxEq       ....     5
   Bias factor          DIISBfac        ....   1.050
   Max. coefficient     DIISMaxC        ....  10.000
 Newton-Raphson         CNVNR           .... off
 SOSCF                  CNVSOSCF        .... on
   Start iteration      SOSCFMaxIt      ....   150
   Startup grad/error   SOSCFStart      ....  0.003300
 Level Shifting         CNVShift        .... on
   Level shift para.    LevelShift      ....    0.2500
   Turn off err/grad.   ShiftErr        ....    0.0010
 Zerner damping         CNVZerner       .... off
 Static damping         CNVDamp         .... on
   Fraction old density DampFac         ....    0.7000
   Max. Damping (<1)    DampMax         ....    0.9800
   Min. Damping (>=0)   DampMin         ....    0.0000
   Turn off err/grad.   DampErr         ....    0.1000
 Fernandez-Rico         CNVRico         .... off

SCF Procedure:
 Maximum # iterations   MaxIter         ....   125
 SCF integral mode      SCFMode         .... Direct
   Integral package                     .... LIBINT
 Reset frequency        DirectResetFreq ....    20
 Integral Threshold     Thresh          ....  2.500e-11 Eh
 Primitive CutOff       TCut            ....  2.500e-12 Eh

Convergence Tolerance:
 Convergence Check Mode ConvCheckMode   .... Total+1el-Energy
 Convergence forced     ConvForced      .... 0
 Energy Change          TolE            ....  1.000e-08 Eh
 1-El. energy change                    ....  1.000e-05 Eh
 Orbital Gradient       TolG            ....  1.000e-05
 Orbital Rotation angle TolX            ....  1.000e-05
 DIIS Error             TolErr          ....  5.000e-07


Diagonalization of the overlap matrix:
Smallest eigenvalue                        ... 4.308e-04
Time for diagonalization                   ...    0.026 sec
Threshold for overlap eigenvalues          ... 1.000e-08
Number of eigenvalues below threshold      ... 0
Time for construction of square roots      ...    0.019 sec
Total time needed                          ...    0.046 sec

-------------------
DFT GRID GENERATION
-------------------

General Integration Accuracy     IntAcc      ...  4.670
Radial Grid Type                 RadialGrid  ... Gauss-Chebyshev
Angular Grid (max. acc.)         AngularGrid ... Lebedev-302
Angular grid pruning method      GridPruning ... 3 (G Style)
Weight generation scheme         WeightScheme... Becke
Basis function cutoff            BFCut       ...    1.0000e-11
Integration weight cutoff        WCut        ...    1.0000e-14
Grids for H and He will be reduced by one unit

# of grid points (after initial pruning)     ...  68394 (   0.0 sec)
# of grid points (after weights+screening)   ...  62763 (   0.1 sec)
nearest neighbour list constructed           ...    0.0 sec
Grid point re-assignment to atoms done       ...    0.0 sec
Grid point division into batches done        ...    0.4 sec
Reduced shell lists constructed in    0.6 sec

Total number of grid points                  ...    62763
Total number of batches                      ...      989
Average number of points per batch           ...       63
Average number of grid points per atom       ...     3923
Average number of shells per batch           ...    81.33 (70.11%)
Average number of basis functions per batch  ...   204.61 (67.31%)
Average number of large shells per batch     ...    63.30 (77.83%)
Average number of large basis fcns per batch ...   156.14 (76.31%)
Maximum spatial batch extension              ...  15.02, 16.30, 16.05 au
Average spatial batch extension              ...   0.30,  0.30,  0.32 au

Time for grid setup =    0.691 sec

------------------------------
INITIAL GUESS: MODEL POTENTIAL
------------------------------
Loading Hartree-Fock densities                     ... done
Calculating cut-offs                               ... done
Setting up the integral package                    ... done
Initializing the effective Hamiltonian             ... done
Starting the Coulomb interaction                   ... done (   0.1 sec)
Reading the grid                                   ... done
Mapping shells                                     ... done
Starting the XC term evaluation                    ... done (   0.6 sec)
  promolecular density results
     # of electrons  =     41.994284091
     EX              =    -30.409948272
     EC              =     -1.339177173
     EX+EC           =    -31.749125444
Transforming the Hamiltonian                       ... done (   0.0 sec)
Diagonalizing the Hamiltonian                      ... done (   0.0 sec)
Back transforming the eigenvectors                 ... done (   0.0 sec)
Now organizing SCF variables                       ... done
                      ------------------
                      INITIAL GUESS DONE (   1.6 sec)
                      ------------------

--------------------
CPCM SOLVATION MODEL
--------------------
CPCM parameters:
  Epsilon                                         ...       8.9300
  Refrac                                          ...       1.0000
  Rsolv                                           ...       1.3000
  Surface type                                    ...    GEPOL SES
  Epsilon function type                           ...         CPCM
Solvent:                                     ... DICHLOROMETHANE
SMD-CDS solvent descriptors:
  Soln                                       ...    1.4242
  Soln25                                     ...    1.4212
  Sola                                       ...    0.1000
  Solb                                       ...    0.0500
  Solg                                       ...   39.1500
  Solc                                       ...    0.0000
  Solh                                       ...    0.6670
Radii:
 Radius for C  used is    3.4960 Bohr (=   1.8500 Ang.)
 Radius for H  used is    2.2677 Bohr (=   1.2000 Ang.)
 Radius for N  used is    3.5716 Bohr (=   1.8900 Ang.)
Calculating surface                               ...        done! (  0.1s)
GEPOL surface points                              ...          611
GEPOL Volume                                      ...     695.2137
GEPOL Surface-area                                ...     453.7388
Calculating surface distance matrix               ...        done! (  0.0s)
Performing Cholesky decomposition & store         ...        done! (  0.0s)
Overall time for CPCM initialization              ...                 0.1s
--------------
SCF ITERATIONS
--------------
ITER       Energy         Delta-E        Max-DP      RMS-DP      [F,P]     Damp
               ***  Starting incremental Fock matrix formation  ***
  0   -213.4873602281   0.000000000000 0.08174411  0.00099032  0.2899790 0.7000
  1   -213.6065831758  -0.119222947648 0.05950217  0.00076282  0.1291227 0.7000
                               ***Turning on DIIS***
  2   -213.6531105543  -0.046527378521 0.07400794  0.00118649  0.0407410 0.0000
  3   -213.7192801831  -0.066169628858 0.04456911  0.00054466  0.0729894 0.0000
  4   -213.7387643570  -0.019484173886 0.01037026  0.00016241  0.0143632 0.0000
  5   -213.7397478186  -0.000983461565 0.00521609  0.00006970  0.0071137 0.0000
                      *** Initiating the SOSCF procedure ***
                           *** Shutting down DIIS ***
                      *** Re-Reading the Fockian *** 
                      *** Removing any level shift *** 
ITER      Energy       Delta-E        Grad      Rot      Max-DP    RMS-DP
  6   -213.73983744  -0.0000896245  0.000323  0.000323  0.001873  0.000036
               *** Restarting incremental Fock matrix formation ***
  7   -213.73984284  -0.0000053929  0.000066  0.000110  0.000255  0.000004
  8   -213.73984274   0.0000001010  0.000081  0.000076  0.000095  0.000002
                  ***Gradient check signals convergence***
              ***Rediagonalizing the Fockian in SOSCF/NRSCF***

               *****************************************************
               *                     SUCCESS                       *
               *           SCF CONVERGED AFTER   9 CYCLES          *
               *****************************************************

Setting up the final grid:

General Integration Accuracy     IntAcc      ...  5.010
Radial Grid Type                 RadialGrid  ... Gauss-Chebyshev
Angular Grid (max. acc.)         AngularGrid ... Lebedev-434
Angular grid pruning method      GridPruning ... 3 (G Style)
Weight generation scheme         WeightScheme... Becke
Basis function cutoff            BFCut       ...    1.0000e-11
Integration weight cutoff        WCut        ...    1.0000e-14
Grids for H and He will be reduced by one unit

# of grid points (after initial pruning)     ... 126994 (   0.0 sec)
# of grid points (after weights+screening)   ... 116305 (   0.1 sec)
nearest neighbour list constructed           ...    0.0 sec
Grid point re-assignment to atoms done       ...    0.0 sec
Grid point division into batches done        ...    1.5 sec
Reduced shell lists constructed in    1.8 sec

Total number of grid points                  ...   116305
Total number of batches                      ...     1823
Average number of points per batch           ...       63
Average number of grid points per atom       ...     7269
Average number of shells per batch           ...    79.18 (68.26%)
Average number of basis functions per batch  ...   198.24 (65.21%)
Average number of large shells per batch     ...    61.47 (77.64%)
Average number of large basis fcns per batch ...   150.94 (76.14%)
Maximum spatial batch extension              ...  12.85, 14.30, 13.61 au
Average spatial batch extension              ...   0.24,  0.25,  0.25 au

Final grid set up in    2.0 sec
Final integration                            ... done (   0.9 sec)
Change in XC energy                          ...    -0.000004876
Integrated number of electrons               ...    41.999983057
Previous integrated no of electrons          ...    41.999912134

SMD CDS free energy correction energy :                -1.45450     Kcal/mol
Total Energy after SMD CDS correction =              -213.742165885 Eh

----------------
TOTAL SCF ENERGY
----------------

Total Energy       :         -213.74216588 Eh           -5816.22002 eV

Components:
Nuclear Repulsion  :          185.75166474 Eh            5054.55977 eV
Electronic Energy  :         -399.49383062 Eh          -10870.77979 eV
One Electron Energy:         -654.75789909 Eh          -17816.86823 eV
Two Electron Energy:          255.26406847 Eh            6946.08844 eV
CPCM Dielectric    :           -0.00749220 Eh              -0.20387 eV
SMD CDS (Gcds)     :           -0.00231789 Eh              -0.06307 eV

Virial components:
Potential Energy   :         -426.08861838 Eh          -11594.46076 eV
Kinetic Energy     :          212.34645249 Eh            5778.24073 eV
Virial Ratio       :            2.00657281


DFT components:
N(Alpha)           :       20.999991528374 electrons
N(Beta)            :       20.999991528374 electrons
N(Total)           :       41.999983056747 electrons
E(X)               :      -24.799406113801 Eh       
E(C)               :       -1.593173602049 Eh       
E(XC)              :      -26.392579715850 Eh       
DFET-embed. en.    :        0.000000000000 Eh       
CPCM Solvation Model Properties:
Surface-charge          :           -0.04386691
Charge-correction       :           -0.00012491 Eh              -0.00340 eV
Free-energy (cav+disp)  :            0.00347473 Eh               0.09455 eV
Corrected G(solv)       :         -213.73881607 Eh           -5816.12887 eV

---------------
SCF CONVERGENCE
---------------

  Last Energy change         ...   -3.8695e-07  Tolerance :   1.0000e-08
  Last MAX-Density change    ...    1.4890e-05  Tolerance :   1.0000e-07
  Last RMS-Density change    ...    2.2954e-07  Tolerance :   5.0000e-09
  Last Orbital Gradient      ...    2.0611e-06  Tolerance :   1.0000e-05
  Last Orbital Rotation      ...    7.0698e-06  Tolerance :   1.0000e-05

             **** THE GBW FILE WAS UPDATED (/tmp/slurm-scratch/opt+freq.214/opt+freq.gbw) ****
             **** DENSITY FILE WAS UPDATED (/tmp/slurm-scratch/opt+freq.214/opt+freq.scfp) ****
             **** ENERGY FILE WAS UPDATED (/tmp/slurm-scratch/opt+freq.214/opt+freq.en.tmp) ****
             **** THE GBW FILE WAS UPDATED (/tmp/slurm-scratch/opt+freq.214/opt+freq.gbw) ****
             **** DENSITY FILE WAS UPDATED (/tmp/slurm-scratch/opt+freq.214/opt+freq.scfp) ****
----------------
ORBITAL ENERGIES
----------------

  NO   OCC          E(Eh)            E(eV) 
   0   2.0000     -14.283236      -388.6666 
   1   2.0000     -10.179541      -276.9994 
   2   2.0000     -10.156354      -276.3684 
   3   2.0000     -10.152663      -276.2680 
   4   2.0000     -10.148959      -276.1672 
   5   2.0000      -0.869838       -23.6695 
   6   2.0000      -0.777955       -21.1692 
   7   2.0000      -0.698332       -19.0026 
   8   2.0000      -0.607552       -16.5323 
   9   2.0000      -0.570028       -15.5112 
  10   2.0000      -0.478647       -13.0246 
  11   2.0000      -0.458659       -12.4808 
  12   2.0000      -0.434670       -11.8280 
  13   2.0000      -0.410402       -11.1676 
  14   2.0000      -0.398929       -10.8554 
  15   2.0000      -0.368933       -10.0392 
  16   2.0000      -0.345250        -9.3947 
  17   2.0000      -0.325190        -8.8489 
  18   2.0000      -0.320984        -8.7344 
  19   2.0000      -0.315679        -8.5901 
  20   2.0000      -0.237233        -6.4554 
  21   0.0000       0.046381         1.2621 
  22   0.0000       0.055233         1.5030 
  23   0.0000       0.075196         2.0462 
  24   0.0000       0.082726         2.2511 
  25   0.0000       0.091770         2.4972 
  26   0.0000       0.117597         3.2000 
  27   0.0000       0.133855         3.6424 
  28   0.0000       0.140152         3.8137 
  29   0.0000       0.141170         3.8414 
  30   0.0000       0.151571         4.1245 
  31   0.0000       0.163384         4.4459 
  32   0.0000       0.186569         5.0768 
  33   0.0000       0.204131         5.5547 
  34   0.0000       0.211308         5.7500 
  35   0.0000       0.246609         6.7106 
  36   0.0000       0.265407         7.2221 
  37   0.0000       0.275704         7.5023 
  38   0.0000       0.314577         8.5601 
  39   0.0000       0.319461         8.6930 
  40   0.0000       0.323024         8.7899 
  41   0.0000       0.338395         9.2082 
  42   0.0000       0.349725         9.5165 
  43   0.0000       0.386857        10.5269 
  44   0.0000       0.412802        11.2329 
  45   0.0000       0.422310        11.4916 
  46   0.0000       0.425392        11.5755 
  47   0.0000       0.436339        11.8734 
  48   0.0000       0.447291        12.1714 
  49   0.0000       0.466156        12.6848 
  50   0.0000       0.476638        12.9700 
  51   0.0000       0.481066        13.0905 
  52   0.0000       0.484523        13.1845 
  53   0.0000       0.490156        13.3378 
  54   0.0000       0.494797        13.4641 
  55   0.0000       0.501598        13.6492 
  56   0.0000       0.507332        13.8052 
  57   0.0000       0.515264        14.0210 
  58   0.0000       0.519352        14.1323 
  59   0.0000       0.548937        14.9373 
  60   0.0000       0.563744        15.3403 
  61   0.0000       0.578801        15.7500 
  62   0.0000       0.607463        16.5299 
  63   0.0000       0.625333        17.0162 
  64   0.0000       0.678925        18.4745 
  65   0.0000       0.718921        19.5628 
  66   0.0000       0.733270        19.9533 
  67   0.0000       0.749980        20.4080 
  68   0.0000       0.768268        20.9056 
  69   0.0000       0.769715        20.9450 
  70   0.0000       0.811506        22.0822 
  71   0.0000       0.822881        22.3917 
  72   0.0000       0.850697        23.1486 
  73   0.0000       0.866692        23.5839 
  74   0.0000       0.892145        24.2765 
  75   0.0000       0.908461        24.7205 
  76   0.0000       0.936105        25.4727 
  77   0.0000       0.945862        25.7382 
  78   0.0000       0.983196        26.7541 
  79   0.0000       1.008010        27.4293 
  80   0.0000       1.021186        27.7879 
  81   0.0000       1.034163        28.1410 
  82   0.0000       1.039178        28.2775 
  83   0.0000       1.075505        29.2660 
  84   0.0000       1.081110        29.4185 
  85   0.0000       1.093530        29.7565 
  86   0.0000       1.104129        30.0449 
  87   0.0000       1.111479        30.2449 
  88   0.0000       1.127394        30.6780 
  89   0.0000       1.141845        31.0712 
  90   0.0000       1.171089        31.8669 
  91   0.0000       1.185728        32.2653 
  92   0.0000       1.196493        32.5582 
  93   0.0000       1.203427        32.7469 
  94   0.0000       1.205600        32.8060 
  95   0.0000       1.227962        33.4145 
  96   0.0000       1.248273        33.9672 
  97   0.0000       1.262181        34.3457 
  98   0.0000       1.266889        34.4738 
  99   0.0000       1.285043        34.9678 
 100   0.0000       1.291419        35.1413 
 101   0.0000       1.326088        36.0847 
 102   0.0000       1.337427        36.3932 
 103   0.0000       1.341836        36.5132 
 104   0.0000       1.367633        37.2152 
 105   0.0000       1.389701        37.8157 
 106   0.0000       1.404309        38.2132 
 107   0.0000       1.406951        38.2851 
 108   0.0000       1.443256        39.2730 
 109   0.0000       1.456576        39.6354 
 110   0.0000       1.470342        40.0100 
 111   0.0000       1.489000        40.5177 
 112   0.0000       1.511043        41.1176 
 113   0.0000       1.553514        42.2733 
 114   0.0000       1.560205        42.4553 
 115   0.0000       1.580297        43.0021 
 116   0.0000       1.583040        43.0767 
 117   0.0000       1.628407        44.3112 
 118   0.0000       1.642690        44.6999 
 119   0.0000       1.676806        45.6282 
 120   0.0000       1.695587        46.1393 
 121   0.0000       1.706368        46.4326 
 122   0.0000       1.782604        48.5071 
 123   0.0000       1.806169        49.1484 
 124   0.0000       1.852542        50.4102 
 125   0.0000       2.217352        60.3372 
 126   0.0000       2.266109        61.6640 
 127   0.0000       2.298848        62.5548 
 128   0.0000       2.318615        63.0927 
 129   0.0000       2.344204        63.7890 
 130   0.0000       2.379278        64.7434 
 131   0.0000       2.395648        65.1889 
 132   0.0000       2.430237        66.1301 
 133   0.0000       2.434060        66.2341 
 134   0.0000       2.480524        67.4985 
 135   0.0000       2.486678        67.6659 
 136   0.0000       2.490943        67.7820 
 137   0.0000       2.512244        68.3616 
 138   0.0000       2.547258        69.3144 
 139   0.0000       2.582784        70.2811 
 140   0.0000       2.592453        70.5442 
 141   0.0000       2.614197        71.1359 
 142   0.0000       2.641921        71.8903 
 143   0.0000       2.680141        72.9303 
 144   0.0000       2.695522        73.3489 
 145   0.0000       2.697966        73.4154 
 146   0.0000       2.725433        74.1628 
 147   0.0000       2.740933        74.5846 
 148   0.0000       2.789125        75.8959 
 149   0.0000       2.802030        76.2471 
 150   0.0000       2.824923        76.8701 
 151   0.0000       2.827670        76.9448 
 152   0.0000       2.853536        77.6487 
 153   0.0000       2.862021        77.8796 
 154   0.0000       2.884173        78.4823 
 155   0.0000       2.918929        79.4281 
 156   0.0000       2.958507        80.5051 
 157   0.0000       2.965488        80.6950 
 158   0.0000       3.003197        81.7211 
 159   0.0000       3.012205        81.9663 
 160   0.0000       3.027864        82.3924 
 161   0.0000       3.043543        82.8190 
 162   0.0000       3.063660        83.3664 
 163   0.0000       3.077850        83.7526 
 164   0.0000       3.084301        83.9281 
 165   0.0000       3.091422        84.1219 
 166   0.0000       3.102120        84.4130 
 167   0.0000       3.114473        84.7491 
 168   0.0000       3.123048        84.9825 
 169   0.0000       3.133245        85.2599 
 170   0.0000       3.152453        85.7826 
 171   0.0000       3.174019        86.3695 
 172   0.0000       3.203811        87.1801 
 173   0.0000       3.210789        87.3700 
 174   0.0000       3.222125        87.6785 
 175   0.0000       3.255300        88.5812 
 176   0.0000       3.274673        89.1084 
 177   0.0000       3.283128        89.3385 
 178   0.0000       3.288852        89.4942 
 179   0.0000       3.310504        90.0834 
 180   0.0000       3.352094        91.2151 
 181   0.0000       3.355032        91.2951 
 182   0.0000       3.381105        92.0046 
 183   0.0000       3.410929        92.8161 
 184   0.0000       3.423850        93.1677 
 185   0.0000       3.445041        93.7443 
 186   0.0000       3.461087        94.1810 
 187   0.0000       3.474707        94.5516 
 188   0.0000       3.486452        94.8712 
 189   0.0000       3.499038        95.2137 
 190   0.0000       3.525325        95.9290 
 191   0.0000       3.541625        96.3725 
 192   0.0000       3.563383        96.9646 
 193   0.0000       3.569840        97.1403 
 194   0.0000       3.580899        97.4412 
 195   0.0000       3.599848        97.9568 
 196   0.0000       3.613667        98.3329 
 197   0.0000       3.631902        98.8291 
 198   0.0000       3.691102       100.4400 
 199   0.0000       3.715274       101.0977 
 200   0.0000       3.724513       101.3492 
 201   0.0000       3.740187       101.7757 
 202   0.0000       3.764441       102.4356 
 203   0.0000       3.771505       102.6279 
 204   0.0000       3.785617       103.0119 
 205   0.0000       3.791579       103.1741 
 206   0.0000       3.809178       103.6530 
 207   0.0000       3.813249       103.7638 
 208   0.0000       3.828350       104.1747 
 209   0.0000       3.868646       105.2712 
 210   0.0000       3.876011       105.4716 
 211   0.0000       3.896775       106.0367 
 212   0.0000       3.915415       106.5439 
 213   0.0000       3.918433       106.6260 
 214   0.0000       3.941990       107.2670 
 215   0.0000       3.958728       107.7225 
 216   0.0000       3.964723       107.8856 
 217   0.0000       3.989754       108.5667 
 218   0.0000       4.006584       109.0247 
 219   0.0000       4.028596       109.6237 
 220   0.0000       4.036362       109.8350 
 221   0.0000       4.040332       109.9430 
 222   0.0000       4.083521       111.1182 
 223   0.0000       4.101973       111.6204 
 224   0.0000       4.118072       112.0584 
 225   0.0000       4.129452       112.3681 
 226   0.0000       4.147602       112.8620 
 227   0.0000       4.154319       113.0448 
 228   0.0000       4.176524       113.6490 
 229   0.0000       4.190499       114.0293 
 230   0.0000       4.219963       114.8310 
 231   0.0000       4.227218       115.0284 
 232   0.0000       4.243359       115.4677 
 233   0.0000       4.258732       115.8860 
 234   0.0000       4.280477       116.4777 
 235   0.0000       4.302069       117.0653 
 236   0.0000       4.319518       117.5401 
 237   0.0000       4.336276       117.9961 
 238   0.0000       4.357017       118.5604 
 239   0.0000       4.382228       119.2465 
 240   0.0000       4.407989       119.9475 
 241   0.0000       4.417769       120.2136 
 242   0.0000       4.428600       120.5083 
 243   0.0000       4.454371       121.2096 
 244   0.0000       4.468194       121.5857 
 245   0.0000       4.510540       122.7380 
 246   0.0000       4.598739       125.1381 
 247   0.0000       4.634218       126.1035 
 248   0.0000       4.669504       127.0637 
 249   0.0000       4.678901       127.3194 
 250   0.0000       4.687365       127.5497 
 251   0.0000       4.734145       128.8226 
 252   0.0000       4.759251       129.5058 
 253   0.0000       4.788126       130.2915 
 254   0.0000       4.831189       131.4633 
 255   0.0000       4.864440       132.3682 
 256   0.0000       4.872484       132.5870 
 257   0.0000       4.890890       133.0879 
 258   0.0000       4.925343       134.0254 
 259   0.0000       4.942311       134.4871 
 260   0.0000       4.944300       134.5412 
 261   0.0000       4.968962       135.2123 
 262   0.0000       4.991806       135.8340 
 263   0.0000       5.011656       136.3741 
 264   0.0000       5.027409       136.8028 
 265   0.0000       5.062213       137.7498 
 266   0.0000       5.092576       138.5760 
 267   0.0000       5.146628       140.0469 
 268   0.0000       5.176969       140.8725 
 269   0.0000       5.194615       141.3527 
 270   0.0000       5.230935       142.3410 
 271   0.0000       5.251179       142.8919 
 272   0.0000       5.326401       144.9388 
 273   0.0000       5.337365       145.2371 
 274   0.0000       5.372565       146.1949 
 275   0.0000       5.376012       146.2887 
 276   0.0000       5.407738       147.1520 
 277   0.0000       5.440252       148.0368 
 278   0.0000       5.462401       148.6395 
 279   0.0000       5.497209       149.5867 
 280   0.0000       5.515249       150.0776 
 281   0.0000       5.551732       151.0703 
 282   0.0000       5.554984       151.1588 
 283   0.0000       5.560677       151.3137 
 284   0.0000       5.592536       152.1806 
 285   0.0000       5.644220       153.5870 
 286   0.0000       5.662983       154.0976 
 287   0.0000       5.693577       154.9301 
 288   0.0000       5.818167       158.3204 
 289   0.0000       5.875731       159.8868 
 290   0.0000       5.909805       160.8140 
 291   0.0000       5.926086       161.2570 
 292   0.0000       5.927451       161.2942 
 293   0.0000       5.964636       162.3060 
 294   0.0000       6.025403       163.9596 
 295   0.0000       6.056647       164.8097 
 296   0.0000       6.127485       166.7374 
 297   0.0000       6.210170       168.9873 
 298   0.0000       6.884666       187.3413 
 299   0.0000      12.140359       330.3560 
 300   0.0000      12.496204       340.0390 
 301   0.0000      12.745623       346.8260 
 302   0.0000      13.093939       356.3042 
 303   0.0000      13.381322       364.1243 
------------------
MOLECULAR ORBITALS
------------------
                      0         1         2         3         4         5   
                 -14.28324 -10.17954 -10.15635 -10.15266 -10.14896  -0.86984
                   2.00000   2.00000   2.00000   2.00000   2.00000   2.00000
                  --------  --------  --------  --------  --------  --------
  0C   1s         0.000029 -0.000118  0.979425  0.030676 -0.015119 -0.003074
  0C   2s         0.000058 -0.000231  0.013533 -0.000073  0.000239  0.035288
  0C   3s         0.000018  0.000011  0.050551  0.000995 -0.000211  0.008414
  0C   4s         0.001009 -0.000201  0.024204  0.001792 -0.003390  0.007468
  0C   1pz        0.000010  0.000020  0.000185 -0.000349  0.000016  0.005599
  0C   1px        0.000006 -0.000137 -0.000227 -0.000151 -0.000416  0.003825
  0C   1py        0.000013  0.000024  0.000143 -0.000194  0.000060  0.002951
  0C   2pz       -0.000039  0.000076 -0.006228  0.000831 -0.000549  0.005030
  0C   2px       -0.000003  0.000788  0.005657 -0.000253  0.001091  0.003647
  0C   2py       -0.000079  0.000053 -0.004479  0.000572 -0.000486  0.002724
  0C   3pz        0.000243 -0.000718 -0.001365  0.000533  0.000301 -0.001444
  0C   3px       -0.000147  0.000861  0.001597  0.000815  0.001897 -0.000473
  0C   3py       -0.000406 -0.000333 -0.001195  0.000267 -0.000080  0.001469
  0C   1dz2      -0.000009  0.000005 -0.000001  0.000050  0.000014  0.000230
  0C   1dxz       0.000003  0.000033 -0.000468 -0.000050  0.000025  0.000564
  0C   1dyz       0.000003  0.000036 -0.000563  0.000113 -0.000061  0.000355
  0C   1dx2y2    -0.000017  0.000058 -0.000693  0.000012 -0.000084  0.000182
  0C   1dxy      -0.000001  0.000011 -0.000087 -0.000039  0.000037  0.000284
  0C   2dz2      -0.000006 -0.000131  0.000361  0.000782  0.001216  0.000189
  0C   2dxz      -0.000074  0.000155 -0.002756  0.001626 -0.000287 -0.000089
  0C   2dyz      -0.000171 -0.000455 -0.001747  0.001037 -0.000042  0.000696
  0C   2dx2y2     0.000099 -0.000215 -0.003118  0.000280 -0.002178  0.000225
  0C   2dxy      -0.000036  0.000221 -0.000818  0.000852  0.000348 -0.000212
  0C   1f0       -0.000001 -0.000122 -0.000145  0.000111 -0.000110 -0.000060
  0C   1f+1      -0.000000 -0.000032  0.000863  0.000552 -0.000599  0.000392
  0C   1f-1      -0.000044 -0.000049  0.001649  0.000538  0.000315  0.000468
  0C   1f+2       0.000013  0.000155 -0.000080 -0.000016  0.000123  0.000043
  0C   1f-2      -0.000019 -0.000023 -0.000501  0.000702 -0.000010  0.000051
  0C   1f+3       0.000010 -0.000089  0.001043  0.000014 -0.000835  0.000266
  0C   1f-3      -0.000002 -0.000086 -0.000939 -0.000032  0.000130 -0.000267
  1H   1s         0.000038 -0.000138  0.000315 -0.000117  0.000108  0.005056
  1H   2s        -0.000238  0.000247 -0.014976  0.001425 -0.001402  0.004761
  1H   3s        -0.000282 -0.000284 -0.003722 -0.000022 -0.000175  0.001116
  1H   1pz        0.000003 -0.000062  0.000031  0.000009  0.000027  0.000139
  1H   1px       -0.000002 -0.000027  0.000343  0.000076  0.000033 -0.000001
  1H   1py        0.000002 -0.000038 -0.001315 -0.000034  0.000032  0.000517
  1H   2pz       -0.000058  0.000122  0.000010  0.000622 -0.000001  0.000612
  1H   2px       -0.000001  0.000215  0.001758  0.000127  0.000985  0.000119
  1H   2py       -0.000073  0.000273 -0.007160  0.000619 -0.000317  0.000047
  1H   1dz2       0.000007 -0.000022  0.000947  0.000059  0.000008 -0.000024
  1H   1dxz       0.000005  0.000031  0.000072 -0.000056 -0.000007  0.000039
  1H   1dyz      -0.000011  0.000017  0.000011  0.000176  0.000023  0.000180
  1H   1dx2y2     0.000009 -0.000042  0.001525 -0.000054 -0.000153 -0.000056
  1H   1dxy      -0.000007  0.000054  0.000841  0.000115  0.000220  0.000040
  2H   1s         0.000005 -0.000117  0.000304 -0.000123  0.000103  0.005135
  2H   2s        -0.000149  0.000045 -0.014861  0.001333 -0.001346  0.004062
  2H   3s         0.000021 -0.000471 -0.003614 -0.000054 -0.000140 -0.000306
  2H   1pz        0.000008 -0.000064 -0.001103 -0.000021  0.000045  0.000511
  2H   1px       -0.000006 -0.000013  0.000561  0.000084  0.000028 -0.000086
  2H   1py       -0.000004 -0.000030  0.000559  0.000010  0.000004 -0.000085
  2H   2pz       -0.000084  0.000217 -0.006066  0.000837 -0.000157  0.000239
  2H   2px        0.000019  0.000157  0.002912  0.000115  0.001007  0.000326
  2H   2py        0.000040 -0.000035  0.002919  0.000271 -0.000035  0.000388
  2H   1dz2      -0.000009  0.000042 -0.001016  0.000169  0.000150  0.000166
  2H   1dxz      -0.000006  0.000047  0.001197  0.000069  0.000143  0.000051
  2H   1dyz       0.000002 -0.000024  0.001088  0.000103 -0.000085  0.000057
  2H   1dx2y2     0.000001 -0.000010  0.000041 -0.000048 -0.000135  0.000047
  2H   1dxy       0.000003  0.000005 -0.000509 -0.000105 -0.000060 -0.000004
  3C   1s         0.000107 -0.004370  0.031012 -0.979518  0.000685 -0.008252
  3C   2s         0.000215 -0.000317  0.000911 -0.013552  0.000273  0.092872
  3C   3s         0.000017 -0.000889  0.002235 -0.050580  0.000075  0.022124
  3C   4s         0.000512  0.004067 -0.002040 -0.023456 -0.001854  0.029325
  3C   1pz        0.000057  0.000015 -0.000381  0.000194  0.000016  0.003376
  3C   1px        0.000023 -0.000498 -0.000136 -0.000160 -0.000116  0.018849
  3C   1py        0.000036  0.000075 -0.000218  0.000101  0.000024  0.000223
  3C   2pz       -0.000213 -0.000682  0.001474 -0.006529  0.000028  0.005152
  3C   2px       -0.000154  0.001708 -0.000568  0.005184  0.000641  0.016811
  3C   2py       -0.000158 -0.000731  0.000978 -0.004500 -0.000090  0.000928
  3C   3pz        0.000061  0.000303  0.000830 -0.001820 -0.000276  0.000483
  3C   3px        0.001101  0.001537  0.000860  0.001774  0.001567 -0.001919
  3C   3py        0.000703 -0.000323  0.000609 -0.001416 -0.000396 -0.002345
  3C   1dz2       0.000009  0.000005 -0.000043 -0.000019 -0.000018 -0.000780
  3C   1dxz       0.000010 -0.000040  0.000037  0.000458 -0.000005  0.001006
  3C   1dyz       0.000015  0.000092 -0.000140  0.000569 -0.000032  0.000165
  3C   1dx2y2    -0.000018  0.000100 -0.000052  0.000676  0.000002  0.001696
  3C   1dxy       0.000016 -0.000056  0.000051  0.000075  0.000004  0.000202
  3C   2dz2       0.000055 -0.001355 -0.000873 -0.000308  0.000275  0.000649
  3C   2dxz      -0.000245  0.000614 -0.001990  0.002879 -0.000228  0.000048
  3C   2dyz      -0.000091 -0.000020 -0.001366  0.001802  0.000417  0.000278
  3C   2dx2y2     0.000079  0.002387 -0.000467  0.002941 -0.000083  0.000466
  3C   2dxy      -0.000359 -0.000164 -0.001053  0.000816 -0.000179  0.000874
  3C   1f0        0.000084 -0.000143  0.000127 -0.000185 -0.000119 -0.000428
  3C   1f+1      -0.000053 -0.000604  0.000506  0.000936 -0.000011 -0.000752
  3C   1f-1       0.000015  0.000316  0.000453  0.001658 -0.000056 -0.001115
  3C   1f+2      -0.000105  0.000149 -0.000014 -0.000092  0.000154  0.000665
  3C   1f-2      -0.000081 -0.000051  0.000754 -0.000463 -0.000026  0.000270
  3C   1f+3      -0.000012 -0.000812 -0.000047  0.001054 -0.000045 -0.001050
  3C   1f-3       0.000075  0.000109  0.000038 -0.000971 -0.000093  0.000106
  4H   1s         0.000058 -0.000101  0.000121 -0.000333  0.000057  0.013765
  4H   2s        -0.000360  0.001790 -0.002324  0.014825  0.000330  0.011969
  4H   3s         0.000161  0.000050 -0.000049  0.003754  0.000725  0.000947
  4H   1pz        0.000002  0.000057 -0.000000  0.000032 -0.000060  0.000101
  4H   1px        0.000025  0.000045  0.000053  0.000321 -0.000013  0.000772
  4H   1py        0.000016  0.000000  0.000057 -0.001315 -0.000036 -0.001244
  4H   2pz       -0.000014 -0.000058  0.000687  0.000151  0.000084  0.000141
  4H   2px       -0.000010  0.000903  0.000078  0.001689  0.000072  0.001546
  4H   2py        0.000031 -0.000562  0.001051 -0.007107  0.000017  0.000514
  4H   1dz2      -0.000003 -0.000017  0.000003 -0.000956 -0.000005 -0.000212
  4H   1dxz       0.000009 -0.000022  0.000069 -0.000073 -0.000027  0.000162
  4H   1dyz       0.000011 -0.000030 -0.000186 -0.000050 -0.000017  0.000037
  4H   1dx2y2     0.000007  0.000080  0.000154 -0.001541  0.000024  0.000215
  4H   1dxy       0.000002 -0.000220 -0.000077 -0.000811 -0.000033 -0.000376
  5H   1s         0.000007 -0.000076  0.000117 -0.000315  0.000059  0.013481
  5H   2s        -0.000034  0.001563 -0.002160  0.015063  0.000300  0.008049
  5H   3s         0.000129 -0.000084 -0.000072  0.003718  0.000646  0.000526
  5H   1pz        0.000004  0.000039  0.000044 -0.001128 -0.000062 -0.000866
  5H   1px        0.000040  0.000054  0.000049  0.000550 -0.000014  0.000910
  5H   1py        0.000023  0.000034 -0.000025  0.000539 -0.000033  0.000455
  5H   2pz       -0.000027 -0.000344  0.001258 -0.006114  0.000079  0.001158
  5H   2px       -0.000192  0.000958 -0.000050  0.002952  0.000056  0.001033
  5H   2py       -0.000175  0.000027  0.000097  0.003003  0.000032 -0.000582
  5H   1dz2       0.000036 -0.000124 -0.000240  0.001030 -0.000035 -0.000169
  5H   1dxz       0.000034 -0.000173  0.000010 -0.001207 -0.000032 -0.000236
  5H   1dyz       0.000022  0.000052 -0.000027 -0.001101  0.000009  0.000025
  5H   1dx2y2     0.000001  0.000093  0.000052 -0.000036  0.000010  0.000354
  5H   1dxy      -0.000013  0.000047  0.000082  0.000501 -0.000014  0.000134
  6C   1s         0.000257 -0.979961  0.000006  0.004252  0.000015 -0.018155
  6C   2s         0.000542 -0.013238  0.000289 -0.000256  0.000018  0.220985
  6C   3s        -0.000049 -0.050194  0.000023 -0.000385 -0.000005  0.053348
  6C   4s        -0.002231 -0.024148 -0.001256  0.001599  0.000310  0.069269
  6C   1pz        0.000053 -0.000529 -0.000102  0.000011 -0.000007  0.040072
  6C   1px        0.000023 -0.000055 -0.000007  0.000419 -0.000016  0.013197
  6C   1py        0.000056 -0.000328 -0.000066 -0.000060 -0.000002  0.024389
  6C   2pz        0.000806  0.006206  0.000292  0.000588  0.000100  0.041898
  6C   2px        0.000440 -0.004048  0.000103 -0.000902  0.000197  0.013113
  6C   2py        0.000219  0.005035  0.000260  0.000646  0.000031  0.025026
  6C   3pz        0.000447  0.002042  0.000054 -0.000193 -0.000097  0.003026
  6C   3px        0.000122 -0.000049 -0.000728 -0.000602  0.000445  0.002429
  6C   3py       -0.000921  0.001864  0.000014  0.000025 -0.000089  0.004368
  6C   1dz2       0.000156 -0.000056 -0.000008 -0.000025 -0.000004  0.002799
  6C   1dxz       0.000129  0.000452 -0.000033 -0.000072 -0.000029  0.003730
  6C   1dyz       0.000105  0.000528 -0.000055  0.000100 -0.000006  0.004653
  6C   1dx2y2    -0.000002  0.000647 -0.000038  0.000090 -0.000016  0.000191
  6C   1dxy       0.000105  0.000142  0.000001 -0.000062 -0.000010  0.001721
  6C   2dz2      -0.000458  0.000073  0.000080 -0.000790  0.000241  0.000559
  6C   2dxz      -0.000030  0.002362 -0.000536  0.000991  0.000187  0.003983
  6C   2dyz      -0.000014  0.002053  0.000384 -0.000077  0.000082  0.006351
  6C   2dx2y2    -0.000151  0.002337  0.000253  0.001741 -0.000178  0.000045
  6C   2dxy      -0.000231  0.000862 -0.000392  0.000068  0.000119  0.001916
  6C   1f0       -0.000105  0.000184 -0.000081  0.000153  0.000016 -0.000161
  6C   1f+1      -0.000169 -0.000955  0.000109  0.000598 -0.000015  0.003353
  6C   1f-1      -0.000209 -0.001600 -0.000030 -0.000256  0.000032  0.003233
  6C   1f+2      -0.000003  0.000227  0.000150 -0.000186 -0.000008 -0.000613
  6C   1f-2      -0.000197  0.000460  0.000116  0.000064  0.000046  0.001085
  6C   1f+3       0.000065 -0.001077 -0.000011  0.000786 -0.000059  0.002465
  6C   1f-3      -0.000045  0.000971 -0.000094 -0.000064  0.000029 -0.001476
  7H   1s         0.000133 -0.000317  0.000146 -0.000122  0.000045  0.027127
  7H   2s         0.000268  0.013922 -0.000417  0.001477 -0.000287  0.024202
  7H   3s         0.000336  0.003483  0.000308 -0.000071 -0.000355  0.001206
  7H   1pz        0.000071  0.001099  0.000007 -0.000055  0.000003  0.002420
  7H   1px       -0.000009 -0.000511 -0.000076 -0.000025 -0.000009 -0.000770
  7H   1py       -0.000013 -0.000476 -0.000003 -0.000019 -0.000009 -0.000416
  7H   2pz       -0.000467  0.005749 -0.000046  0.000330  0.000009  0.001921
  7H   2px       -0.000321 -0.002894  0.000373 -0.000775  0.000181 -0.000549
  7H   2py       -0.000308 -0.002570  0.000311 -0.000030  0.000080  0.000929
  7H   1dz2      -0.000190  0.001046  0.000049 -0.000118  0.000021  0.000827
  7H   1dxz      -0.000078 -0.001173  0.000018 -0.000137  0.000007 -0.000124
  7H   1dyz      -0.000102 -0.000987  0.000041  0.000046 -0.000006  0.000182
  7H   1dx2y2     0.000011  0.000027 -0.000020  0.000081 -0.000012  0.000241
  7H   1dxy       0.000013  0.000438 -0.000052 -0.000001 -0.000026  0.000034
  8H   1s         0.000036 -0.000257  0.000138 -0.000115  0.000048  0.027745
  8H   2s        -0.000631  0.014560 -0.000168  0.001656 -0.000244  0.021406
  8H   3s        -0.000026  0.003604  0.000335 -0.000122 -0.000344  0.001862
  8H   1pz       -0.000036 -0.000043 -0.000014 -0.000045 -0.000015  0.000615
  8H   1px       -0.000031 -0.000304 -0.000078 -0.000037 -0.000009 -0.000345
  8H   1py       -0.000031  0.001348  0.000018 -0.000018  0.000010  0.002738
  8H   2pz       -0.000333 -0.000471  0.000316 -0.000105  0.000095  0.001963
  8H   2px       -0.000150 -0.001875  0.000283 -0.000840  0.000140  0.000386
  8H   2py       -0.000204  0.006811 -0.000089  0.000458 -0.000059 -0.000281
  8H   1dz2      -0.000008 -0.000947  0.000016 -0.000026 -0.000008 -0.000205
  8H   1dxz      -0.000014 -0.000031 -0.000033 -0.000030 -0.000024  0.000044
  8H   1dyz      -0.000177 -0.000169  0.000070 -0.000064  0.000009  0.000732
  8H   1dx2y2     0.000037 -0.001456 -0.000023  0.000114 -0.000009 -0.000428
  8H   1dxy      -0.000099 -0.000824  0.000042 -0.000196  0.000021  0.000045
  9N   1s         0.974346 -0.000053 -0.000075 -0.000038 -0.000021 -0.022713
  9N   2s         0.002553 -0.000288 -0.000131 -0.000083 -0.000040  0.397004
  9N   3s         0.050823 -0.000368  0.000013 -0.000006  0.000008  0.107684
  9N   4s         0.013441  0.000748  0.002125 -0.000537 -0.000244  0.184136
  9N   1pz       -0.001321  0.000256 -0.000020 -0.000035 -0.000015 -0.044575
  9N   1px        0.000487  0.000168 -0.000039  0.000049 -0.000007  0.013101
  9N   1py        0.000393  0.000220 -0.000042  0.000034 -0.000002  0.011465
  9N   2pz        0.000954 -0.000141  0.000150  0.000161  0.000119 -0.058712
  9N   2px        0.002990 -0.000155  0.000337 -0.000014  0.000086  0.014455
  9N   2py        0.003238 -0.000543  0.000352 -0.000493  0.000034  0.011573
  9N   3pz       -0.001266 -0.000392 -0.000615  0.000456  0.000175 -0.009030
  9N   3px        0.002287 -0.001268 -0.000046 -0.000124  0.000122  0.000531
  9N   3py        0.002312 -0.001204  0.000435 -0.000126  0.000154 -0.000154
  9N   1dz2      -0.000573 -0.000077 -0.000006  0.000046  0.000003 -0.000632
  9N   1dxz       0.000166 -0.000077 -0.000035 -0.000005 -0.000004  0.002503
  9N   1dyz       0.000040 -0.000044 -0.000005  0.000037  0.000004  0.002342
  9N   1dx2y2     0.000011  0.000028 -0.000007  0.000014 -0.000010 -0.000161
  9N   1dxy      -0.000278 -0.000091 -0.000002 -0.000019  0.000002 -0.000401
  9N   2dz2      -0.001695  0.000744 -0.000183 -0.000295 -0.000067  0.000041
  9N   2dxz      -0.000103  0.000839  0.000116  0.000096 -0.000015  0.005108
  9N   2dyz      -0.000393  0.000801 -0.000093 -0.000262 -0.000079  0.004969
  9N   2dx2y2     0.000047 -0.000008 -0.000022  0.000505  0.000103  0.000001
  9N   2dxy      -0.000829  0.000787 -0.000103  0.000244 -0.000045  0.000486
  9N   1f0        0.000045 -0.000276  0.000019  0.000051  0.000004 -0.000541
  9N   1f+1      -0.000227 -0.000357 -0.000017 -0.000006  0.000002 -0.002342
  9N   1f-1      -0.000243 -0.000455  0.000016  0.000093  0.000009 -0.002674
  9N   1f+2       0.000101  0.000059  0.000006 -0.000112 -0.000002  0.000403
  9N   1f-2      -0.000003 -0.000379 -0.000004  0.000008  0.000009 -0.001066
  9N   1f+3      -0.000627 -0.000015 -0.000039  0.000043 -0.000005 -0.001257
  9N   1f-3       0.000527 -0.000035  0.000014  0.000037 -0.000002  0.001055
 10H   1s         0.000279  0.000024 -0.000019  0.000018 -0.000014  0.074349
 10H   2s        -0.007874  0.001000 -0.000611 -0.000519 -0.000166  0.068834
 10H   3s        -0.001196  0.000316  0.000126  0.000054  0.000016  0.008404
 10H   1pz       -0.000028 -0.000106 -0.000014 -0.000016  0.000001 -0.001465
 10H   1px        0.001064 -0.000041  0.000053 -0.000006  0.000018 -0.008756
 10H   1py       -0.000061 -0.000123  0.000017 -0.000028  0.000001  0.000819
 10H   2pz        0.000505 -0.000396 -0.000008  0.000116 -0.000006 -0.003770
 10H   2px        0.003718  0.000060  0.000220  0.000377  0.000057 -0.008352
 10H   2py       -0.000435 -0.000080 -0.000134 -0.000007 -0.000016  0.001430
 10H   1dz2       0.000806  0.000056  0.000033  0.000003  0.000002 -0.000895
 10H   1dxz      -0.000144  0.000107  0.000027 -0.000070  0.000003  0.000799
 10H   1dyz       0.000027 -0.000080  0.000016 -0.000015  0.000001 -0.000017
 10H   1dx2y2    -0.001453 -0.000104 -0.000032 -0.000024 -0.000008  0.001692
 10H   1dxy       0.000233  0.000117  0.000017 -0.000004  0.000002 -0.000232
 11H   1s         0.000277 -0.000017  0.000050 -0.000136  0.000003  0.075232
 11H   2s        -0.007848  0.001576 -0.001140  0.001445  0.000049  0.070935
 11H   3s        -0.001280  0.000131 -0.000334 -0.000060 -0.000162  0.009099
 11H   1pz       -0.000140 -0.000064 -0.000005  0.000054 -0.000001 -0.000539
 11H   1px       -0.000120 -0.000119 -0.000004  0.000020  0.000004  0.001399
 11H   1py        0.001036 -0.000093  0.000029 -0.000041 -0.000009 -0.008915
 11H   2pz        0.000048 -0.000445  0.000104 -0.000193  0.000025 -0.003002
 11H   2px       -0.000643  0.000086  0.000007 -0.000083  0.000017  0.001845
 11H   2py        0.003773 -0.000426  0.000438 -0.000767  0.000011 -0.009265
 11H   1dz2       0.000811  0.000007  0.000032 -0.000032  0.000001 -0.001047
 11H   1dxz      -0.000002 -0.000083 -0.000008  0.000033  0.000000  0.000011
 11H   1dyz       0.000171  0.000128 -0.000018  0.000032 -0.000010  0.000507
 11H   1dx2y2     0.001419 -0.000001  0.000033 -0.000114  0.000003 -0.001750
 11H   1dxy       0.000385  0.000088 -0.000008  0.000021 -0.000010 -0.000416
 12C   1s        -0.000028  0.000007  0.015390  0.000873  0.980887 -0.001043
 12C   2s        -0.000053  0.000000  0.000652 -0.000299  0.015590  0.012380
 12C   3s        -0.000000 -0.000038  0.001350  0.000042  0.050569  0.002989
 12C   4s        -0.000013 -0.000551 -0.001773  0.000638  0.026723  0.003132
 12C   1pz        0.000009 -0.000013  0.000052 -0.000121  0.000006  0.000740
 12C   1px        0.000005 -0.000041  0.000386  0.000021  0.000110  0.002917
 12C   1py        0.000004 -0.000004 -0.000013 -0.000074 -0.000007  0.000103
 12C   2pz       -0.000103  0.000264  0.000122  0.000631 -0.000178  0.000717
 12C   2px       -0.000115  0.000652 -0.000529  0.000085 -0.006384  0.002630
 12C   2py       -0.000035  0.000101  0.000142  0.000355  0.000617  0.000180
 12C   3pz        0.000055 -0.000166 -0.000174  0.000614  0.000814 -0.000326
 12C   3px        0.000004  0.000419 -0.000934 -0.000177 -0.000230 -0.000554
 12C   3py        0.000251 -0.000175  0.000066  0.000376  0.000510 -0.000823
 12C   1dz2      -0.000001 -0.000017  0.000049  0.000010  0.000383 -0.000121
 12C   1dxz      -0.000008  0.000039  0.000021  0.000018 -0.000074  0.000121
 12C   1dyz      -0.000006  0.000009 -0.000044  0.000038 -0.000005  0.000011
 12C   1dx2y2    -0.000011  0.000047 -0.000130  0.000031 -0.000672  0.000266
 12C   1dxy      -0.000010  0.000013  0.000044  0.000003  0.000114  0.000027
 12C   2dz2       0.000062 -0.000309  0.000892 -0.000036  0.001105 -0.000162
 12C   2dxz       0.000036 -0.000290 -0.000826  0.000420 -0.000192 -0.000048
 12C   2dyz       0.000109 -0.000157  0.000181 -0.000455  0.000074 -0.000036
 12C   2dx2y2     0.000008  0.000258 -0.001512 -0.000304 -0.001828 -0.000043
 12C   2dxy       0.000086 -0.000244 -0.000137  0.000353  0.000324 -0.000231
 12C   1f0       -0.000003  0.000018  0.000103 -0.000068 -0.000073 -0.000023
 12C   1f+1      -0.000007 -0.000011  0.000575  0.000134 -0.001225 -0.000080
 12C   1f-1      -0.000001  0.000041 -0.000294 -0.000049 -0.001934 -0.000121
 12C   1f+2       0.000003 -0.000011 -0.000109  0.000122  0.000216  0.000046
 12C   1f-2       0.000004  0.000057  0.000071  0.000111  0.000069  0.000020
 12C   1f+3       0.000006 -0.000067  0.000751  0.000039 -0.001165 -0.000136
 12C   1f-3      -0.000003  0.000033 -0.000110 -0.000079  0.000858  0.000059
 13H   1s         0.000015 -0.000069  0.000143 -0.000130  0.000246  0.001760
 13H   2s        -0.000003  0.000340 -0.001246  0.000080 -0.011782  0.001294
 13H   3s        -0.000149  0.000425  0.000002 -0.000304 -0.003354  0.000340
 13H   1pz        0.000004 -0.000013 -0.000022 -0.000007 -0.000016  0.000024
 13H   1px        0.000001 -0.000018 -0.000015 -0.000071 -0.000328  0.000122
 13H   1py       -0.000005  0.000013 -0.000027  0.000029  0.001269 -0.000140
 13H   2pz       -0.000039  0.000099 -0.000108  0.000241 -0.000298  0.000060
 13H   2px       -0.000018  0.000198 -0.000771  0.000168 -0.001792  0.000136
 13H   2py        0.000001 -0.000100  0.000317 -0.000100  0.005518  0.000152
 13H   1dz2       0.000000  0.000001  0.000055 -0.000017  0.000860 -0.000027
 13H   1dxz      -0.000004  0.000031  0.000031  0.000033 -0.000018  0.000015
 13H   1dyz       0.000005 -0.000007  0.000043 -0.000058  0.000098 -0.000011
 13H   1dx2y2    -0.000000  0.000007 -0.000122  0.000015  0.001289  0.000029
 13H   1dxy       0.000005 -0.000024  0.000170 -0.000022  0.000866 -0.000055
 14H   1s        -0.000010  0.000030  0.000087  0.000090  0.000156  0.001421
 14H   2s        -0.000170  0.000774 -0.000475  0.000352 -0.011292  0.000922
 14H   3s         0.000090 -0.000021 -0.000183  0.000343 -0.002500 -0.000621
 14H   1pz       -0.000007  0.000018  0.000011  0.000064 -0.001099  0.000102
 14H   1px       -0.000001  0.000026 -0.000019  0.000009 -0.000461  0.000082
 14H   1py        0.000001  0.000007  0.000009  0.000037 -0.000601  0.000042
 14H   2pz       -0.000053  0.000290  0.000237  0.000079 -0.004560 -0.000066
 14H   2px       -0.000034  0.000003 -0.000939  0.000124 -0.002184 -0.000033
 14H   2py       -0.000041  0.000175  0.000247  0.000032 -0.002457  0.000044
 14H   1dz2      -0.000001  0.000026  0.000126  0.000036 -0.000875 -0.000007
 14H   1dxz      -0.000001  0.000003 -0.000131 -0.000024 -0.000942  0.000007
 14H   1dyz      -0.000004  0.000017  0.000086  0.000043 -0.001081  0.000013
 14H   1dx2y2    -0.000003 -0.000027 -0.000155 -0.000021  0.000098  0.000015
 14H   1dxy      -0.000002  0.000008 -0.000049 -0.000012 -0.000516  0.000007
 15H   1s         0.000003 -0.000066  0.000137 -0.000128  0.000247  0.001777
 15H   2s         0.000006  0.000377 -0.001245  0.000058 -0.011816  0.001514
 15H   3s         0.000075  0.000405  0.000070 -0.000310 -0.003343 -0.000360
 15H   1pz       -0.000001  0.000001 -0.000034  0.000016  0.001064 -0.000106
 15H   1px       -0.000001 -0.000021 -0.000015 -0.000075 -0.000539  0.000153
 15H   1py       -0.000003 -0.000013 -0.000005 -0.000008 -0.000547  0.000082
 15H   2pz       -0.000004 -0.000034  0.000137  0.000050  0.004482  0.000110
 15H   2px        0.000022  0.000224 -0.000811  0.000196 -0.002728  0.000097
 15H   2py       -0.000015  0.000105 -0.000105  0.000216 -0.002517 -0.000020
 15H   1dz2      -0.000001 -0.000009  0.000132 -0.000049 -0.000761 -0.000027
 15H   1dxz      -0.000002 -0.000003  0.000130 -0.000000  0.001105 -0.000027
 15H   1dyz       0.000003  0.000002 -0.000018 -0.000031  0.001008 -0.000012
 15H   1dx2y2     0.000005  0.000013 -0.000121  0.000011 -0.000014  0.000044
 15H   1dxy       0.000001  0.000036 -0.000015  0.000040 -0.000589  0.000020
                      6         7         8         9        10        11   
                  -0.77796  -0.69833  -0.60755  -0.57003  -0.47865  -0.45866
                   2.00000   2.00000   2.00000   2.00000   2.00000   2.00000
                  --------  --------  --------  --------  --------  --------
  0C   1s         0.023131 -0.005969  0.012031 -0.013046  0.001185 -0.001792
  0C   2s        -0.294844  0.092091 -0.195923  0.211812 -0.008773  0.024077
  0C   3s        -0.070203  0.022223 -0.047389  0.051957 -0.002448  0.006592
  0C   4s        -0.106093  0.034379 -0.112311  0.124319 -0.012994  0.018529
  0C   1pz       -0.017241 -0.030246 -0.012184 -0.059911  0.071904 -0.001621
  0C   1px        0.007717 -0.057252 -0.047009  0.032145 -0.014892 -0.014632
  0C   1py       -0.011308 -0.011399 -0.002743 -0.041302 -0.040301 -0.122384
  0C   2pz       -0.018592 -0.030501 -0.015427 -0.061239  0.078566 -0.005185
  0C   2px        0.008186 -0.059743 -0.047064  0.032859 -0.016516 -0.016265
  0C   2py       -0.012125 -0.011273 -0.004618 -0.042106 -0.040435 -0.132410
  0C   3pz       -0.000947 -0.005757 -0.004992 -0.020794  0.030288 -0.002978
  0C   3px       -0.001666 -0.002696 -0.017751  0.012264 -0.006447 -0.006934
  0C   3py        0.000504 -0.002088 -0.001698 -0.013892 -0.017069 -0.053809
  0C   1dz2      -0.000164 -0.003195 -0.003007 -0.001356  0.000894 -0.002777
  0C   1dxz      -0.001562 -0.001695  0.000203 -0.001453  0.001254  0.000014
  0C   1dyz      -0.001704 -0.001729 -0.001390 -0.003509  0.002017 -0.002166
  0C   1dx2y2    -0.001864  0.003191  0.003754 -0.001564 -0.000357 -0.001424
  0C   1dxy      -0.000370 -0.001643 -0.000704 -0.000292 -0.001384 -0.001846
  0C   2dz2       0.000342 -0.001482 -0.003563 -0.002113  0.006931  0.002287
  0C   2dxz      -0.001659 -0.002458 -0.000463  0.001224 -0.001964 -0.001521
  0C   2dyz      -0.001843 -0.000987 -0.002366 -0.003042 -0.000122 -0.005365
[...]
     30       0.039105   0.000336  -0.000133  -0.000424  -0.002745   0.003595
     31       0.086563  -0.002554  -0.005245  -0.002948  -0.010259   0.011313
     32       0.260959   0.004208   0.001650  -0.002079  -0.009943   0.015564
     33      -0.140823  -0.008049  -0.010689  -0.001698  -0.006620   0.012270
     34      -0.069458  -0.000873  -0.000942   0.000087   0.001437  -0.000438
     35      -0.182251  -0.002918  -0.008216   0.000581  -0.005760   0.018404
     36      -0.009039  -0.000135  -0.000172   0.005501   0.002254   0.000470
     37       0.001086  -0.009006   0.014756   0.042691  -0.018114  -0.004064
     38      -0.000468  -0.015343   0.028447  -0.024682  -0.027977  -0.006653
     39       0.051408  -0.087970   0.128663   0.314936  -0.152752  -0.037745
     40       0.016416  -0.020341   0.027714   0.125000  -0.040601  -0.010157
     41      -0.012958   0.243234  -0.426484   0.352750   0.362883   0.083367
     42       0.032716   0.139349  -0.253668  -0.083869   0.209521   0.044161
     43      -0.013727  -0.047347   0.110484  -0.597739  -0.061915  -0.016845
     44      -0.009383  -0.042664   0.070454   0.365547  -0.083188  -0.016904
     45       0.042848  -0.059563   0.103476  -0.319946  -0.091117  -0.027366
     46      -0.030300   0.235640  -0.390918  -0.220218   0.370449   0.083843
     47       0.010973   0.084017  -0.135203  -0.320390   0.130050   0.025328
                 36         37         38         39         40         41    
      0      -0.001828   0.001507   0.007652  -0.036225   0.000594  -0.002519
      1       0.001291  -0.000435  -0.015689   0.028315  -0.005416  -0.050388
      2      -0.000391  -0.002165  -0.007016   0.045970   0.002727   0.024871
      3       0.002760  -0.005586  -0.058538   0.148771  -0.015712  -0.121290
      4       0.002497   0.022223   0.240744  -0.630303   0.053911   0.473005
      5       0.005270  -0.001125  -0.004137   0.018517  -0.000005   0.000541
      6       0.000815  -0.014010  -0.040492   0.283496   0.013588   0.155972
      7       0.000395  -0.014579  -0.046959   0.292901   0.013949   0.140584
      8       0.000671   0.024754   0.085929  -0.571700  -0.029822  -0.303286
      9       0.005570   0.001213  -0.030161  -0.006370  -0.001011   0.018930
     10       0.000295   0.005774   0.053152   0.018167   0.008855   0.034946
     11      -0.001502  -0.003480   0.026861   0.002176  -0.001557  -0.045373
     12      -0.015745   0.013391   0.200975   0.058990   0.023706   0.047215
     13      -0.009845  -0.052475  -0.826501  -0.235648  -0.096758  -0.159977
     14      -0.003967  -0.002243   0.017739   0.003669  -0.000307  -0.008569
     15       0.010200  -0.026542   0.160985   0.012232  -0.012089  -0.273934
     16       0.001949  -0.025147   0.183556   0.017681  -0.009754  -0.270387
     17       0.002134   0.056143  -0.339467  -0.025340   0.021460   0.559298
     18      -0.017438  -0.036787   0.003413   0.000716   0.001173   0.007005
     19      -0.013103  -0.021896  -0.008195  -0.009349  -0.002156  -0.024199
     20       0.013539   0.063236   0.000381   0.003076  -0.000673  -0.000422
     21       0.028176   0.403599  -0.005940   0.017920  -0.003644  -0.003575
     22       0.005421   0.386837  -0.007926   0.012555  -0.004514  -0.012612
     23       0.051464  -0.807945   0.009743  -0.031329   0.007971   0.012093
     24       0.016022   0.019470  -0.029506  -0.024849  -0.007367  -0.078070
     25      -0.007737  -0.136723   0.115784   0.102470   0.030623   0.307982
     26      -0.043680   0.023223  -0.005951  -0.004215  -0.001428  -0.014566
     27      -0.042731   0.001050  -0.000280   0.000207  -0.000172  -0.000296
     28      -0.045887   0.001027   0.000024   0.000084   0.000028   0.000377
     29      -0.039553   0.001856  -0.000278  -0.000042  -0.000079  -0.000063
     30       0.054356  -0.006006   0.000473  -0.000877   0.000155   0.000471
     31       0.672187   0.007610  -0.002493   0.000346  -0.000714  -0.000793
     32       0.166407  -0.000443  -0.002089  -0.000243  -0.000401  -0.000020
     33       0.659631   0.007068  -0.002144  -0.000512  -0.000275   0.000534
     34       0.114352  -0.003991  -0.003428  -0.003263  -0.000634  -0.005930
     35       0.238559  -0.001755  -0.000884  -0.000215   0.000046   0.001139
     36       0.000237  -0.000353   0.004713   0.000661  -0.048460   0.005958
     37      -0.000288  -0.000214   0.001101  -0.004408   0.009610   0.010050
     38      -0.000530  -0.000167   0.000931  -0.007870   0.002937  -0.005444
     39       0.000970   0.000748  -0.007773  -0.010524   0.153697   0.011978
     40      -0.000094  -0.002041   0.039392   0.039666  -0.595727  -0.040613
     41       0.000135   0.000272  -0.000827  -0.004404   0.022512  -0.000469
     42      -0.003031   0.000477  -0.019748   0.024628   0.169621  -0.020238
     43      -0.000210   0.001590  -0.030736   0.034756   0.229393  -0.023936
     44       0.001121   0.003214  -0.055110   0.062678   0.414193  -0.050801
     45      -0.000001   0.002942  -0.023028  -0.021019   0.249141  -0.064952
     46      -0.000604   0.002270  -0.023632  -0.022259   0.250035  -0.059976
     47      -0.000957  -0.004120   0.046836   0.036596  -0.474054   0.119712
                 42         43         44         45         46         47    
      0       0.008202  -0.004248  -0.003211  -0.004361   0.000070  -0.000032
      1       0.043284  -0.033311  -0.026343   0.003089  -0.000126   0.000010
      2      -0.030631   0.020177   0.015819   0.006425  -0.000099   0.000131
      3       0.089361  -0.070030  -0.056338   0.015783  -0.000380  -0.000165
      4      -0.344185   0.284321   0.218901  -0.063354   0.000522  -0.000307
      5      -0.001565   0.002749  -0.001054   0.000726  -0.000209  -0.000256
      6      -0.186127   0.120662   0.094034   0.033815  -0.000252   0.000225
      7      -0.175497   0.114298   0.088788   0.032789  -0.000233   0.000219
      8       0.370424  -0.244979  -0.184436  -0.067097   0.000621  -0.000499
      9       0.005361  -0.010967  -0.001747  -0.000280  -0.000108   0.000329
     10       0.008643  -0.050582  -0.009286  -0.000415   0.000032  -0.000237
     11      -0.012472   0.038772   0.006732   0.000092   0.000137  -0.000160
     12       0.006993  -0.099263  -0.017360  -0.000584   0.001134   0.001503
     13      -0.031488   0.378062   0.073197  -0.001333   0.000531   0.000488
     14      -0.003091   0.002122   0.001698  -0.000635  -0.000051   0.000423
     15      -0.071570   0.227881   0.038008   0.002079  -0.000468   0.000091
     16      -0.072696   0.222542   0.037721   0.002610  -0.000167  -0.000017
     17       0.151758  -0.463929  -0.081680  -0.006893   0.000168   0.000552
     18       0.013303   0.006229   0.000226  -0.000413   0.000595  -0.000955
     19      -0.063417  -0.045919  -0.003323   0.000461   0.002018   0.001713
     20       0.007976   0.011093   0.001135   0.000232  -0.002673   0.000344
     21       0.034367   0.057198   0.007500   0.002187  -0.005881   0.000761
     22       0.015046   0.042049   0.005483   0.001629  -0.006735  -0.000086
     23      -0.058099  -0.101853  -0.012018  -0.003198   0.004902   0.000047
     24      -0.188522  -0.130335  -0.010142   0.002159   0.003245   0.003372
     25       0.742463   0.499926   0.034792  -0.006997  -0.012583  -0.014147
     26      -0.036864  -0.025899  -0.002063   0.000482   0.002398   0.000639
     27      -0.000642  -0.000332  -0.000015   0.000062   0.033313  -0.061985
     28       0.001125   0.001050   0.000105  -0.000016   0.046543   0.050665
     29      -0.000279  -0.000330  -0.000051   0.000010   0.002917  -0.005538
     30       0.001393   0.000470  -0.000070   0.000033  -0.625522   0.765636
     31      -0.000357   0.001121   0.000168   0.000240   0.101700  -0.085045
     32      -0.002676  -0.002686  -0.000214   0.000141  -0.045208   0.038547
     33       0.003137   0.004261   0.000529  -0.000084   0.158386   0.097845
     34      -0.015864  -0.010854  -0.000581  -0.000001  -0.752922  -0.622650
     35       0.003693   0.004117   0.000528  -0.000049   0.027924   0.034003
     36      -0.002184   0.002115  -0.009604   0.004542  -0.000002   0.000011
     37      -0.013696   0.020460  -0.075449   0.044230   0.000015  -0.000031
     38       0.009973  -0.011902   0.041781   0.080158   0.000035  -0.000032
     39      -0.032707   0.048523  -0.181678   0.088755   0.000019  -0.000052
     40       0.117999  -0.180455   0.644237  -0.316717  -0.000019   0.000166
     41      -0.001273   0.003031  -0.014220   0.029912  -0.000007   0.000016
     42      -0.003054   0.001932   0.009829  -0.306549   0.000158  -0.000144
     43      -0.008367   0.007156  -0.001243  -0.384275  -0.000023   0.000043
     44      -0.003274  -0.002193   0.036718  -0.698413   0.000005   0.000031
     45       0.061556  -0.074827   0.286728   0.167631   0.000033  -0.000031
     46       0.057413  -0.069757   0.260238   0.171243   0.000074  -0.000033
     47      -0.115422   0.141324  -0.522637  -0.290662  -0.000112   0.000075


-----------
IR SPECTRUM
-----------

 Mode    freq (cm**-1)   T**2         TX         TY         TZ
-------------------------------------------------------------------
   6:        98.63   10.190988  (  2.037350  -2.453879  -0.136632)
   7:       113.14    1.768349  (  0.226738   1.035403   0.803045)
   8:       176.44    4.496495  ( -1.337247   1.624968   0.260275)
   9:       223.90   55.953097  ( -5.912616   4.278749  -1.639018)
  10:       250.84    0.387250  ( -0.538816   0.136622  -0.279753)
  11:       395.67    0.112077  (  0.034151  -0.036351  -0.331043)
  12:       433.73   12.001221  ( -2.514266   0.581915  -2.311074)
  13:       741.14   10.492796  (  0.762080   2.405441  -2.031228)
  14:       801.06   18.918356  (  0.721510  -0.700088  -4.231744)
  15:       863.52  177.390276  ( -0.809894  -0.328432  13.290090)
  16:       901.38    4.862254  (  1.256593   1.052915  -1.474652)
  17:       954.26   11.764943  ( -0.982804  -0.451011   3.255093)
  18:       973.74   13.660278  (  0.589343   0.826315   3.553893)
  19:      1052.34    0.411711  ( -0.595228  -0.235886   0.042101)
  20:      1065.66    8.313278  (  1.915404   1.049527   1.882286)
  21:      1091.03   10.631997  ( -2.318149  -1.767025  -1.461440)
  22:      1158.78   15.673870  (  1.813419   0.696982  -3.449579)
  23:      1221.36    0.987037  ( -0.054048   0.988040  -0.088847)
  24:      1269.44    2.597219  (  0.798057   1.331976  -0.431468)
  25:      1308.12    0.463803  ( -0.562480   0.064722  -0.378458)
  26:      1322.40    0.509048  ( -0.524303  -0.483834   0.007658)
  27:      1330.78    1.508340  ( -0.491517  -1.113544  -0.163619)
  28:      1382.01    0.316009  ( -0.496651  -0.201147  -0.169962)
  29:      1401.67    3.575592  (  1.873643  -0.241321  -0.082565)
  30:      1420.52   14.291466  ( -2.742726  -1.626398  -2.030701)
  31:      1465.71    0.733315  (  0.252239   0.371352   0.729238)
  32:      1478.46    0.560057  ( -0.610845  -0.099130  -0.420830)
  33:      1482.49    9.490652  ( -0.361801  -2.594542   1.621142)
  34:      1494.34    7.261623  ( -0.246752   1.333688   2.328522)
  35:      1508.20    5.575981  ( -1.984726   1.031950   0.756255)
  36:      1623.61   41.453544  (  4.030760   5.002409   0.427111)
  37:      2944.26  124.536466  ( -4.105129  -0.314709  10.372335)
  38:      2991.60   21.991101  ( -1.470567   3.543081   2.697241)
  39:      3002.59   78.006973  ( -5.055960   4.307689   5.821345)
  40:      3010.41   47.777572  ( -6.819102   1.130220  -0.004644)
  41:      3015.88   34.306220  (  3.576938  -3.359311  -3.197931)
  42:      3026.48   24.757427  (  2.812510  -2.791900  -3.008739)
  43:      3042.26  132.295060  ( -0.675702 -10.197727   5.276822)
  44:      3066.92  129.577091  ( -1.291644  -9.819786   5.610752)
  45:      3070.89   73.138783  (  0.221653   4.081482   7.512068)
  46:      3469.31    0.076646  ( -0.053532   0.266211  -0.053962)
  47:      3540.21    1.371949  (  0.837667  -0.818690  -0.003186)

The first frequency considered to be a vibration is 6
The total number of vibrations considered is 42


--------------------------
THERMOCHEMISTRY AT 298.15K
--------------------------

Temperature         ... 298.15 K
Pressure            ... 1.00 atm
Total Mass          ... 73.14 AMU

Throughout the following assumptions are being made:
  (1) The electronic state is orbitally nondegenerate
  (2) There are no thermally accessible electronically excited states
  (3) Hindered rotations indicated by low frequency modes are not
      treated as such but are treated as vibrations and this may
      cause some error
  (4) All equations used are the standard statistical mechanics
      equations for an ideal gas
  (5) All vibrations are strictly harmonic

freq.      98.63  E(vib)   ...       0.46 
freq.     113.14  E(vib)   ...       0.45 
freq.     176.44  E(vib)   ...       0.38 
freq.     223.90  E(vib)   ...       0.33 
freq.     250.84  E(vib)   ...       0.30 
freq.     395.67  E(vib)   ...       0.20 
freq.     433.73  E(vib)   ...       0.17 
freq.     741.14  E(vib)   ...       0.06 
freq.     801.06  E(vib)   ...       0.05 
freq.     863.52  E(vib)   ...       0.04 
freq.     901.38  E(vib)   ...       0.03 
freq.     954.26  E(vib)   ...       0.03 
freq.     973.74  E(vib)   ...       0.03 
freq.    1052.34  E(vib)   ...       0.02 
freq.    1065.66  E(vib)   ...       0.02 
freq.    1091.03  E(vib)   ...       0.02 
freq.    1158.78  E(vib)   ...       0.01 
freq.    1221.36  E(vib)   ...       0.01 
freq.    1269.44  E(vib)   ...       0.01 
freq.    1308.12  E(vib)   ...       0.01 
freq.    1322.40  E(vib)   ...       0.01 
freq.    1330.78  E(vib)   ...       0.01 
freq.    1382.01  E(vib)   ...       0.01 
freq.    1401.67  E(vib)   ...       0.00 
freq.    1420.52  E(vib)   ...       0.00 
freq.    1465.71  E(vib)   ...       0.00 
freq.    1478.46  E(vib)   ...       0.00 
freq.    1482.49  E(vib)   ...       0.00 
freq.    1494.34  E(vib)   ...       0.00 
freq.    1508.20  E(vib)   ...       0.00 
freq.    1623.61  E(vib)   ...       0.00 
freq.    2944.26  E(vib)   ...       0.00 
freq.    2991.60  E(vib)   ...       0.00 
freq.    3002.59  E(vib)   ...       0.00 
freq.    3010.41  E(vib)   ...       0.00 
freq.    3015.88  E(vib)   ...       0.00 
freq.    3026.48  E(vib)   ...       0.00 
freq.    3042.26  E(vib)   ...       0.00 
freq.    3066.92  E(vib)   ...       0.00 
freq.    3070.89  E(vib)   ...       0.00 
freq.    3469.31  E(vib)   ...       0.00 
freq.    3540.21  E(vib)   ...       0.00 

------------
INNER ENERGY
------------

The inner energy is: U= E(el) + E(ZPE) + E(vib) + E(rot) + E(trans)
    E(el)   - is the total energy from the electronic structure calculation
              = E(kin-el) + E(nuc-el) + E(el-el) + E(nuc-nuc)
    E(ZPE)  - the the zero temperature vibrational energy from the frequency calculation
    E(vib)  - the the finite temperature correction to E(ZPE) due to population
              of excited vibrational states
    E(rot)  - is the rotational thermal energy
    E(trans)- is the translational thermal energy

Summary of contributions to the inner energy U:
Electronic energy                ...   -213.76017757 Eh
Zero point energy                ...      0.14850274 Eh      93.19 kcal/mol
Thermal vibrational correction   ...      0.00423697 Eh       2.66 kcal/mol
Thermal rotational correction    ...      0.00141627 Eh       0.89 kcal/mol
Thermal translational correction ...      0.00141627 Eh       0.89 kcal/mol
-----------------------------------------------------------------------
Total thermal energy                   -213.60460532 Eh


Summary of corrections to the electronic energy:
(perhaps to be used in another calculation)
Total thermal correction                  0.00706952 Eh       4.44 kcal/mol
Non-thermal (ZPE) correction              0.14850274 Eh      93.19 kcal/mol
-----------------------------------------------------------------------
Total correction                          0.15557225 Eh      97.62 kcal/mol


--------
ENTHALPY
--------

The enthalpy is H = U + kB*T
                kB is Boltzmann's constant
Total free energy                 ...   -213.60460532 Eh 
Thermal Enthalpy correction       ...      0.00094421 Eh       0.59 kcal/mol
-----------------------------------------------------------------------
Total Enthalpy                    ...   -213.60366111 Eh


Note: Only C1 symmetry has been detected, increase convergence thresholds 
      if your molecule has a higher symmetry. Symmetry factor of 1.0 is   
      used for the rotational entropy correction. 
 

Note: Rotational entropy computed according to Herzberg 
Infrared and Raman Spectra, Chapter V,1, Van Nostrand Reinhold, 1945 
Point Group:  C1, Symmetry Number:   1  
Rotational constants in cm-1:     0.606377     0.065303     0.061946 

Vibrational entropy computed according to the QRRHO of S. Grimme
Chem.Eur.J. 2012 18 9955


-------
ENTROPY
-------

The entropy contributions are T*S = T*(S(el)+S(vib)+S(rot)+S(trans))
     S(el)   - electronic entropy
     S(vib)  - vibrational entropy
     S(rot)  - rotational entropy
     S(trans)- translational entropy
The entropies will be listed as mutliplied by the temperature to get
units of energy

Electronic entropy                ...      0.00000000 Eh      0.00 kcal/mol
Vibrational entropy               ...      0.00739396 Eh      4.64 kcal/mol
Rotational entropy                ...      0.01234829 Eh      7.75 kcal/mol
Translational entropy             ...      0.01842822 Eh     11.56 kcal/mol
-----------------------------------------------------------------------
Final entropy term                ...      0.03817048 Eh     23.95 kcal/mol

In case the symmetry of your molecule has not been determined correctly
or in case you have a reason to use a different symmetry number we print 
out the resulting rotational entropy values for sn=1,12 :
 --------------------------------------------------------
|  sn= 1 | S(rot)=       0.01234829 Eh      7.75 kcal/mol|
|  sn= 2 | S(rot)=       0.01169383 Eh      7.34 kcal/mol|
|  sn= 3 | S(rot)=       0.01131100 Eh      7.10 kcal/mol|
|  sn= 4 | S(rot)=       0.01103938 Eh      6.93 kcal/mol|
|  sn= 5 | S(rot)=       0.01082869 Eh      6.80 kcal/mol|
|  sn= 6 | S(rot)=       0.01065655 Eh      6.69 kcal/mol|
|  sn= 7 | S(rot)=       0.01051100 Eh      6.60 kcal/mol|
|  sn= 8 | S(rot)=       0.01038492 Eh      6.52 kcal/mol|
|  sn= 9 | S(rot)=       0.01027371 Eh      6.45 kcal/mol|
|  sn=10 | S(rot)=       0.01017423 Eh      6.38 kcal/mol|
|  sn=11 | S(rot)=       0.01008424 Eh      6.33 kcal/mol|
|  sn=12 | S(rot)=       0.01000209 Eh      6.28 kcal/mol|
 --------------------------------------------------------


-------------------
GIBBS FREE ENERGY
-------------------

The Gibbs free energy is G = H - T*S

Total enthalpy                    ...   -213.60366111 Eh 
Total entropy correction          ...     -0.03817048 Eh    -23.95 kcal/mol
-----------------------------------------------------------------------
Final Gibbs free energy         ...   -213.64183158 Eh

For completeness - the Gibbs free energy minus the electronic energy
G-E(el)                           ...      0.11834599 Eh     74.26 kcal/mol


Timings for individual modules:

Sum of individual times         ...     3539.553 sec (=  58.993 min)
GTO integral calculation        ...        2.837 sec (=   0.047 min)   0.1 %
SCF iterations                  ...      226.885 sec (=   3.781 min)   6.4 %
SCF Gradient evaluation         ...      102.788 sec (=   1.713 min)   2.9 %
Geometry relaxation             ...        0.981 sec (=   0.016 min)   0.0 %
Analytical frequency calculation...     3206.061 sec (=  53.434 min)  90.6 %
                             ****ORCA TERMINATED NORMALLY****
TOTAL RUN TIME: 0 days 0 hours 59 minutes 5 seconds 191 msec
(SLURM) EXECUTION TIME: 3545.232808872 seconds.
