(SLURM) JOB ID:         782

                                 *****************
                                 * O   R   C   A *
                                 *****************

           --- An Ab Initio, DFT and Semiempirical electronic structure package ---

                  #######################################################
                  #                        -***-                        #
                  #          Department of theory and spectroscopy      #
                  #               Directorship: Frank Neese             #
                  #        Max Planck Institute fuer Kohlenforschung    #
                  #                Kaiser Wilhelm Platz 1               #
                  #                 D-45470 Muelheim/Ruhr               #
                  #                      Germany                        #
                  #                                                     #
                  #                  All rights reserved                #
                  #                        -***-                        #
                  #######################################################


                         Program Version 4.2.1 -  RELEASE  -


 With contributions from (in alphabetic order):
   Daniel Aravena         : Magnetic Suceptibility
   Michael Atanasov       : Ab Initio Ligand Field Theory (pilot matlab implementation)
   Alexander A. Auer      : GIAO ZORA, VPT2
   Ute Becker             : Parallelization
   Giovanni Bistoni       : ED, misc. LED, open-shell LED, HFLD
   Martin Brehm           : Molecular dynamics
   Dmytro Bykov           : SCF Hessian
   Vijay G. Chilkuri      : MRCI spin determinant printing, contributions to CSF-ICE
   Dipayan Datta          : RHF DLPNO-CCSD density
   Achintya Kumar Dutta   : EOM-CC, STEOM-CC
   Dmitry Ganyushin       : Spin-Orbit,Spin-Spin,Magnetic field MRCI
   Miquel Garcia          : C-PCM Hessian, Gaussian charge scheme
   Yang Guo               : DLPNO-NEVPT2, CIM, IAO-localization
   Andreas Hansen         : Spin unrestricted coupled pair/coupled cluster methods
   Benjamin Helmich-Paris : CASSCF linear response (MC-RPA)
   Lee Huntington         : MR-EOM, pCC
   Robert Izsak           : Overlap fitted RIJCOSX, COSX-SCS-MP3, EOM
   Christian Kollmar      : KDIIS, OOCD, Brueckner-CCSD(T), CCSD density
   Simone Kossmann        : Meta GGA functionals, TD-DFT gradient, OOMP2, MP2 Hessian
   Martin Krupicka        : AUTO-CI
   Lucas Lang             : DCDCAS
   Dagmar Lenk            : GEPOL surface, SMD
   Dimitrios Liakos       : Extrapolation schemes; Compound Job, initial MDCI parallelization
   Dimitrios Manganas     : Further ROCIS development; embedding schemes
   Dimitrios Pantazis     : SARC Basis sets
   Taras Petrenko         : DFT Hessian,TD-DFT gradient, ASA, ECA, R-Raman, ABS, FL, XAS/XES, NRVS
   Peter Pinski           : DLPNO-MP2, DLPNO-MP2 Gradient
   Christoph Reimann      : Effective Core Potentials
   Marius Retegan         : Local ZFS, SOC
   Christoph Riplinger    : Optimizer, TS searches, QM/MM, DLPNO-CCSD(T), (RO)-DLPNO pert. Triples
   Tobias Risthaus        : Range-separated hybrids, TD-DFT gradient, RPA, STAB
   Michael Roemelt        : Original ROCIS implementation
   Masaaki Saitow         : Open-shell DLPNO-CCSD energy and density
   Barbara Sandhoefer     : DKH picture change effects
   Avijit Sen             : IP-ROCIS
   Kantharuban Sivalingam : CASSCF convergence, NEVPT2, FIC-MRCI
   Bernardo de Souza      : ESD, SOC TD-DFT
   Georgi Stoychev        : AutoAux, RI-MP2 NMR
   Willem Van den Heuvel  : Paramagnetic NMR
   Boris Wezisla          : Elementary symmetry handling
   Frank Wennmohs         : Technical directorship


 We gratefully acknowledge several colleagues who have allowed us to
 interface, adapt or use parts of their codes:
   Stefan Grimme, W. Hujo, H. Kruse,             : VdW corrections, initial TS optimization,
                  C. Bannwarth                     DFT functionals, gCP, sTDA/sTD-DF
   Ed Valeev, F. Pavosevic, A. Kumar             : LibInt (2-el integral package), F12 methods
   Garnet Chan, S. Sharma, J. Yang, R. Olivares  : DMRG
   Ulf Ekstrom                                   : XCFun DFT Library
   Mihaly Kallay                                 : mrcc  (arbitrary order and MRCC methods)
   Andreas Klamt, Michael Diedenhofen            : otool_cosmo (COSMO solvation model)
   Jiri Pittner, Ondrej Demel                    : Mk-CCSD
   Frank Weinhold                                : gennbo (NPA and NBO analysis)
   Christopher J. Cramer and Donald G. Truhlar   : smd solvation model
   Lars Goerigk                                  : TD-DFT with DH, B97 family of functionals
   V. Asgeirsson, H. Jonsson                     : NEB implementation
   FAccTs GmbH                                   : IRC, NEB, NEB-TS, Multilevel, MM, QM/MM, CI optimization
   S Lehtola, MJT Oliveira, MAL Marques          : LibXC Library


 Your calculation uses the libint2 library for the computation of 2-el integrals
 For citations please refer to: http://libint.valeyev.net

 Your ORCA version has been built with support for libXC version: 4.2.3
 For citations please refer to: https://tddft.org/programs/libxc/

 This ORCA versions uses:
   CBLAS   interface :  Fast vector & matrix operations
   LAPACKE interface :  Fast linear algebra routines
   SCALAPACK package :  Parallel linear algebra routines




***************************************
The coordinates will be read from file: init.xyz
***************************************


Your calculation utilizes the SMD solvation module
Please cite in your paper:
A.V. Marenich, C.J. Cramer, D.G. Truhlar J. Phys. Chem. B, 113, (2009), 6378 

Your calculation utilizes the semiempirical GFN2-xTB method
Please cite in your paper:
C. Bannwarth, Ehlert S., S. Grimme,  J. Chem. Theory Comput., 15, (2019), 1652.
   

----- Orbital basis set information -----
Your calculation utilizes the basis: def2-SVP
   F. Weigend and R. Ahlrichs, Phys. Chem. Chem. Phys. 7, 3297 (2005).

================================================================================
                                        WARNINGS
                       Please study these warnings very carefully!
================================================================================

WARNING: Gradients needed for Numerical Frequencies
  ===> : Setting RunTyp to EnGrad

WARNING: The environment variable RSH_COMMAND is not set!
  ===> : All Displacements for the Numerical Hessian calculation
         will be started on localhost

WARNING: Found dipole moment calculation with XTB calculation
  ===> : Switching off dipole moment calculation


INFO   : the flag for use of LIBINT has been found!

================================================================================
                                       INPUT FILE
================================================================================
NAME = /tmp/slurm-scratch/freq.782/freq.inp
|  1> ! XTB2 NumFreq
|  2> %maxcore 1450
|  3> 
|  4> * xyzfile 0 1 init.xyz
|  5> 
|  6> %cpcm
|  7>  smd true
|  8>  smdsolvent "ch2cl2"
|  9> end
| 10> %pal nprocs 9 end
| 11> 
| 12>                          ****END OF INPUT****
================================================================================

                     *******************************
                     * Energy+Gradient Calculation *
                     *******************************

      -----------------------------------------------------------      
     |                   =====================                   |     
     |                           x T B                           |     
     |                   =====================                   |     
     |                         S. Grimme                         |     
     |          Mulliken Center for Theoretical Chemistry        |     
     |                    University of Bonn                     |     
      -----------------------------------------------------------      

   * xtb version 6.3.2 (30e43eb) compiled by 'schneider@apollo14' on 2020-08-08

   xtb is free software: you can redistribute it and/or modify it under
   the terms of the GNU Lesser General Public License as published by
   the Free Software Foundation, either version 3 of the License, or
   (at your option) any later version.
   
   xtb is distributed in the hope that it will be useful,
   but WITHOUT ANY WARRANTY; without even the implied warranty of
   MERCHANTABILITY or FITNESS FOR A PARTICULAR PURPOSE.  See the
   GNU Lesser General Public License for more details.
   
   Cite this work as:
   * S. Grimme, C. Bannwarth, P. Shushkov, J. Chem. Theory Comput., 2017,
     13, 1989-2009. DOI: 10.1021/acs.jctc.7b00118
   * C. Bannwarth, S. Ehlert and S. Grimme., J. Chem. Theory Comput., 2019,
     15, 1652-1671. DOI: 10.1021/acs.jctc.8b01176
   * P. Pracht, E. Caldeweyher, S. Ehlert, S. Grimme, ChemRxiv, 2019, preprint.
     DOI: 10.26434/chemrxiv.8326202.v1
   
   for GFN-FF:
   * S. Spicher and S. Grimme, Angew. Chem. Int. Ed., 2020,
     DOI: 10.1002/anie.202004239
   
   for DFT-D4:
   * E. Caldeweyher, C. Bannwarth and S. Grimme, J. Chem. Phys., 2017,
     147, 034112. DOI: 10.1063/1.4993215
   * E. Caldeweyher, S. Ehlert, A. Hansen, H. Neugebauer, S. Spicher,
     C. Bannwarth and S. Grimme, J. Chem. Phys., 2019, 150, 154122.
     DOI: 10.1063/1.5090222
   
   for sTDA-xTB:
   * S. Grimme and C. Bannwarth, J. Chem. Phys., 2016, 145, 054103.
     DOI: 10.1063/1.4959605
   
   in the mass-spec context:
   * V. Asgeirsson, C. Bauer and S. Grimme, Chem. Sci., 2017, 8, 4879.
     DOI: 10.1039/c7sc00601b
   * J. Koopman and S. Grimme, ACS Omega 2019, 4, 12, 15120-15133.
     DOI: 10.1021/acsomega.9b02011
   
   for metadynamics refer to:
   * S. Grimme, J. Chem. Theory Comput., 2019, 155, 2847-2862
     DOI: 10.1021/acs.jctc.9b00143
   
   with help from (in alphabetical order)
   C. Bannwarth, F. Bohle, G. Brandenburg, E. Caldeweyher, M. Checinski,
   S. Dohm, S. Ehlert, S. Ehrlich, F. März, H. Neugebauer, J. Pisarek,
   P. Pracht, P. Shushkov, and S. Spicher.
   
 * started run on 2021/03/16 at 12:07:02.936     

           -------------------------------------------------
          |                Calculation Setup                |
           -------------------------------------------------

          program call               : /opt/orca/otool_xtb /tmp/slurm-scratch/freq.782/freq_XTB.xyz --grad -c 0 -u 0 -P 9 --namespace /tmp/slurm-scratch/freq.782/freq --gbsa CH2Cl2
          hostname                   : apollo14
          calculation namespace      : /tmp/slurm-scratch/freq.782/freq
          coordinate file            : /tmp/slurm-scratch/freq.782/freq_XTB.xyz
          omp threads                :                     9
          number of atoms            :                    46
          number of electrons        :                   104
          charge                     :                     0
          spin                       :                   0.0
          first test random number   :      0.11469617017375

   ID    Z sym.   atoms
    1    6 C      1-6, 12, 18, 21, 25, 28, 33, 36, 39, 43
    2    1 H      7-9, 11, 13-15, 17, 19, 20, 22, 24, 26, 27, 29-32, 34, 35,
                  37, 38, 40-42, 44-46
    3    7 N      10, 16
    4    8 O      23

molecular fragmentation (1/2 indicates fragments):
1111111111211122122211121112221111122222221111
# atoms in fragment 1/2:    29    17
 fragment masses (1/2) :      178.25       74.14
CMA distance (Bohr)    :   9.603
constraining FC (au)   :  0.0500
########################################################################
[WARNING] Please study the warnings concerning your input carefully
-1- prog_main_parseArguments: Process number higher than OMP_NUM_THREADS, I hope you know what you are doing.
########################################################################

           -------------------------------------------------
          |                 G F N 2 - x T B                 |
           -------------------------------------------------

        Reference                      10.1021/acs.jctc.8b01176
      * Hamiltonian:
        H0-scaling (s, p, d)           1.850000    2.230000    2.230000
        zeta-weighting                 0.500000
      * Dispersion:
        s8                             2.700000
        a1                             0.520000
        a2                             5.000000
        s9                             5.000000
      * Repulsion:
        kExp                           1.500000    1.000000
        rExp                           1.000000
      * Coulomb:
        alpha                          2.000000
        third order                    shell-resolved
        anisotropic                    true
        a3                             3.000000
        a5                             4.000000
        cn-shift                       1.200000
        cn-exp                         4.000000
        max-rad                        5.000000

      * Solvation model:               GBSA
        Solvent                        CH2Cl2
        Parameter file                 internal GFN2-xTB/GBSA
        Dielectric constant                8.9300E+00
        Reference state                gsolv [1 M gas/solution]
        Free energy shift                  4.4408E-03 Eh       2.7867E+00 kcal/mol
        Temperature                        2.9815E+02 K
        Density                            1.3300E+00 kg/L
        Solvent mass                       8.4930E+01 g/mol
        Interaction kernel             Still
        Born radius scaling (c1)           1.4917E+00
        Born radii integrator          GBOBC
        Born offset                        0.0000E+00 a0       0.0000E+00 AA
        H-bond correction              false
        Ion screening                  false
        Surface tension                    1.0000E-05 Eh       1.5569E+01 dyn/cm
        Grid points                               230 per atom

          ...................................................
          :                      SETUP                      :
          :.................................................:
          :  # basis functions                 100          :
          :  # atomic orbitals                 100          :
          :  # shells                           64          :
          :  # electrons                       104          :
          :  max. iterations                   250          :
          :  Hamiltonian                  GFN2-xTB          :
          :  restarted?                      false          :
          :  GBSA solvation                   true          :
          :  PC potential                    false          :
          :  electronic temp.          300.0000000     K    :
          :  accuracy                    1.0000000          :
          :  -> integral cutoff          0.2500000E+02      :
          :  -> integral neglect         0.1000000E-07      :
          :  -> SCF convergence          0.1000000E-05 Eh   :
          :  -> wf. convergence          0.1000000E-03 e    :
          :  Broyden damping             0.4000000          :
          ...................................................

 iter      E             dE          RMSdq      gap      omega  full diag
   1    -56.9382214 -0.569382E+02  0.366E+00    3.21       0.0  T
   2    -57.0555533 -0.117332E+00  0.201E+00    2.95       1.0  T
   3    -57.0567323 -0.117900E-02  0.856E-01    2.72       1.0  T
   4    -57.0562997  0.432670E-03  0.324E-01    2.81       1.0  T
   5    -57.0607876 -0.448798E-02  0.705E-02    2.80       1.0  T
   6    -57.0608045 -0.168784E-04  0.345E-02    2.81       1.0  T
   7    -57.0608112 -0.667864E-05  0.136E-02    2.81       1.1  T
   8    -57.0608142 -0.298524E-05  0.448E-03    2.80       3.3  T
   9    -57.0608143 -0.150329E-06  0.242E-03    2.81       6.1  T
  10    -57.0608144 -0.219075E-07  0.680E-04    2.81      21.7  T
  11    -57.0608144 -0.687479E-08  0.333E-04    2.81      44.3  T

   *** convergence criteria satisfied after 11 iterations ***

         #    Occupation            Energy/Eh            Energy/eV
      -------------------------------------------------------------
         1        2.0000           -0.6798111             -18.4986
       ...           ...                  ...                  ...
        46        2.0000           -0.4206916             -11.4476
        47        2.0000           -0.4197113             -11.4209
        48        2.0000           -0.4075344             -11.0896
        49        2.0000           -0.3987164             -10.8496
        50        2.0000           -0.3936814             -10.7126
        51        2.0000           -0.3670498              -9.9879
        52        2.0000           -0.3425869              -9.3223 (HOMO)
        53                         -0.2394968              -6.5170 (LUMO)
        54                         -0.2281838              -6.2092
        55                         -0.1549573              -4.2166
        56                         -0.0849739              -2.3123
        57                         -0.0475257              -1.2932
       ...                                ...                  ...
       100                          0.6443727              17.5343
      -------------------------------------------------------------
                  HL-Gap            0.1030900 Eh            2.8052 eV
             Fermi-level           -0.2910418 Eh           -7.9197 eV

 SCC (total)                   0 d,  0 h,  0 min,  0.128 sec
 SCC setup                      ...        0 min,  0.006 sec (  4.331%)
 Dispersion                     ...        0 min,  0.003 sec (  2.436%)
 classical contributions        ...        0 min,  0.002 sec (  1.633%)
 integral evaluation            ...        0 min,  0.018 sec ( 13.729%)
 iterations                     ...        0 min,  0.059 sec ( 46.348%)
 molecular gradient             ...        0 min,  0.039 sec ( 30.559%)
 printout                       ...        0 min,  0.001 sec (  0.945%)

         :::::::::::::::::::::::::::::::::::::::::::::::::::::
         ::                     SUMMARY                     ::
         :::::::::::::::::::::::::::::::::::::::::::::::::::::
         :: total energy             -56.260469552038 Eh    ::
         :: total w/o Gsasa/hb       -56.237373818726 Eh    ::
         :: gradient norm              0.038740856484 Eh/a0 ::
         :: HOMO-LUMO gap              2.805222750429 eV    ::
         ::.................................................::
         :: SCC energy               -57.060814365079 Eh    ::
         :: -> isotropic ES            0.104364045981 Eh    ::
         :: -> anisotropic ES         -0.003686764248 Eh    ::
         :: -> anisotropic XC          0.034775132679 Eh    ::
         :: -> dispersion             -0.037854944428 Eh    ::
         :: -> Gsolv                  -0.038827687199 Eh    ::
         ::    -> Gborn               -0.015731953886 Eh    ::
         ::    -> Gsasa               -0.027536562486 Eh    ::
         ::    -> Ghb                  0.000000000000 Eh    ::
         ::    -> Gshift               0.004440829173 Eh    ::
         :: repulsion energy           0.800136679272 Eh    ::
         :: add. restraining           0.000000000000 Eh    ::
         :: total charge               0.000000000000 e     ::
         :::::::::::::::::::::::::::::::::::::::::::::::::::::

           -------------------------------------------------
          |                Property Printout                |
           -------------------------------------------------

    * Orbital Energies and Occupations

         #    Occupation            Energy/Eh            Energy/eV
      -------------------------------------------------------------
         1        2.0000           -0.6798111             -18.4986
       ...           ...                  ...                  ...
        40        2.0000           -0.4428976             -12.0519
        41        2.0000           -0.4416916             -12.0190
        42        2.0000           -0.4391973             -11.9512
        43        2.0000           -0.4336859             -11.8012
        44        2.0000           -0.4294881             -11.6870
        45        2.0000           -0.4261475             -11.5961
        46        2.0000           -0.4206916             -11.4476
        47        2.0000           -0.4197113             -11.4209
        48        2.0000           -0.4075344             -11.0896
        49        2.0000           -0.3987164             -10.8496
        50        2.0000           -0.3936814             -10.7126
        51        2.0000           -0.3670498              -9.9879
        52        2.0000           -0.3425869              -9.3223 (HOMO)
        53                         -0.2394968              -6.5170 (LUMO)
        54                         -0.2281838              -6.2092
        55                         -0.1549573              -4.2166
        56                         -0.0849739              -2.3123
        57                         -0.0475257              -1.2932
        58                          0.0372990               1.0150
        59                          0.0558082               1.5186
        60                          0.0829540               2.2573
        61                          0.0909323               2.4744
        62                          0.1002178               2.7271
        63                          0.1067152               2.9039
       ...                                ...                  ...
       100                          0.6443727              17.5343
      -------------------------------------------------------------
                  HL-Gap            0.1030900 Eh            2.8052 eV
             Fermi-level           -0.2910418 Eh           -7.9197 eV

     #   Z          covCN         q      C6AA      α(0)
     1   6 C        2.914    -0.033    28.812     8.802
     2   6 C        2.921    -0.036    28.907     8.817
     3   6 C        2.966     0.000    28.018     8.682
     4   6 C        2.919    -0.043    29.069     8.841
     5   6 C        2.914    -0.032    28.810     8.802
     6   6 C        2.915    -0.033    28.825     8.804
     7   1 H        0.925     0.022     2.704     2.572
     8   1 H        0.926     0.044     2.400     2.423
     9   1 H        0.925     0.040     2.442     2.444
    10   7 N        1.997    -0.407    31.502     8.324
    11   1 H        0.858     0.254     0.868     1.460
    12   6 C        3.759     0.034    20.047     6.383
    13   1 H        0.923    -0.004     3.127     2.766
    14   1 H        0.923    -0.012     3.266     2.826
    15   1 H        0.991     0.269     0.805     1.402
    16   7 N        3.443    -0.218    25.735     7.535
    17   1 H        0.805     0.221     1.017     1.584
    18   6 C        3.732    -0.009    20.830     6.514
    19   1 H        0.925     0.075     2.032     2.229
    20   1 H        0.925     0.071     2.076     2.253
    21   6 C        3.290     0.145    23.408     7.766
    22   1 H        0.924    -0.011     3.256     2.822
    23   8 O        1.248    -0.701    28.381     7.158
    24   1 H        0.860     0.212     1.046     1.602
    25   6 C        3.802    -0.067    21.784     6.645
    26   1 H        0.924     0.035     2.520     2.483
    27   1 H        0.924     0.034     2.537     2.491
    28   6 C        3.802    -0.072    21.884     6.660
    29   1 H        0.924     0.053     2.286     2.364
    30   1 H        0.924     0.048     2.351     2.398
    31   1 H        0.925     0.036     2.508     2.476
    32   1 H        0.925     0.044     2.402     2.424
    33   6 C        3.800    -0.052    21.510     6.603
    34   1 H        0.924     0.028     2.616     2.530
    35   1 H        0.924     0.025     2.662     2.551
    36   6 C        3.800    -0.056    21.590     6.616
    37   1 H        0.924     0.043     2.408     2.427
    38   1 H        0.924     0.038     2.471     2.458
    39   6 C        3.750    -0.106    22.589     6.778
    40   1 H        0.924     0.040     2.446     2.446
    41   1 H        0.924     0.040     2.446     2.446
    42   1 H        0.924     0.037     2.488     2.467
    43   6 C        3.749    -0.103    22.529     6.769
    44   1 H        0.924     0.036     2.498     2.472
    45   1 H        0.924     0.035     2.518     2.481
    46   1 H        0.924     0.038     2.475     2.460

 Mol. C6AA /au·bohr⁶  :      17420.603420
 Mol. C8AA /au·bohr⁸  :     382039.618400
 Mol. α(0) /au        :        202.255448


Wiberg/Mayer (AO) data.
largest (>0.10) Wiberg bond orders for each atom

 ---------------------------------------------------------------------------
     #   Z sym  total        # sym  WBO       # sym  WBO       # sym  WBO
 ---------------------------------------------------------------------------
     1   6 C    3.991 --     2 C    1.451     6 C    1.434    31 H    0.971
                             4 C    0.109
     2   6 C    3.992 --     1 C    1.451     3 C    1.398     7 H    0.969
                             5 C    0.109
     3   6 C    3.987 --     4 C    1.400     2 C    1.398    21 C    1.022
                             6 C    0.108
     4   6 C    3.990 --     5 C    1.448     3 C    1.400     8 H    0.966
                             1 C    0.109
     5   6 C    3.991 --     4 C    1.448     6 C    1.436    32 H    0.970
                             2 C    0.109
     6   6 C    3.990 --     5 C    1.436     1 C    1.434     9 H    0.971
                             3 C    0.108
     7   1 H    1.000 --     2 C    0.969
     8   1 H    0.998 --     4 C    0.966
     9   1 H    0.998 --     6 C    0.971
    10   7 N    3.030 --    21 C    1.394    12 C    1.015    15 H    0.270
                            23 O    0.150
    11   1 H    0.935 --    16 N    0.853
    12   6 C    3.991 --    10 N    1.015    25 C    1.003    14 H    0.966
                            13 H    0.964
    13   1 H    1.000 --    12 C    0.964
    14   1 H    1.000 --    12 C    0.966
    15   1 H    0.927 --    16 N    0.624    10 N    0.270
    16   7 N    3.572 --    18 C    0.975    24 H    0.939    11 H    0.853
                            15 H    0.624
    17   1 H    0.951 --    23 O    0.940
    18   6 C    3.945 --    28 C    1.006    16 N    0.975    19 H    0.971
                            20 H    0.971
    19   1 H    0.994 --    18 C    0.971
    20   1 H    0.995 --    18 C    0.971
    21   6 C    3.956 --    10 N    1.394     3 C    1.022    22 H    0.950
                            23 O    0.512
    22   1 H    0.999 --    21 C    0.950
    23   8 O    1.771 --    17 H    0.940    21 C    0.512    10 N    0.150
    24   1 H    0.955 --    16 N    0.939
    25   6 C    3.996 --    33 C    1.008    12 C    1.003    27 H    0.977
                            26 H    0.976
    26   1 H    0.999 --    25 C    0.976
    27   1 H    0.999 --    25 C    0.977
    28   6 C    3.991 --    18 C    1.006    36 C    1.005    30 H    0.975
                            29 H    0.974
    29   1 H    0.997 --    28 C    0.974
    30   1 H    0.998 --    28 C    0.975
    31   1 H    0.998 --     1 C    0.971
    32   1 H    0.998 --     5 C    0.970
    33   6 C    3.997 --    43 C    1.019    25 C    1.008    35 H    0.978
                            34 H    0.978
    34   1 H    0.999 --    33 C    0.978
    35   1 H    0.999 --    33 C    0.978
    36   6 C    3.995 --    39 C    1.020    28 C    1.005    38 H    0.977
                            37 H    0.977
    37   1 H    0.998 --    36 C    0.977
    38   1 H    0.999 --    36 C    0.977
    39   6 C    3.995 --    36 C    1.020    42 H    0.987    41 H    0.987
                            40 H    0.986
    40   1 H    0.998 --    39 C    0.986
    41   1 H    0.998 --    39 C    0.987
    42   1 H    0.999 --    39 C    0.987
    43   6 C    3.996 --    33 C    1.019    45 H    0.988    46 H    0.987
                            44 H    0.987
    44   1 H    0.998 --    43 C    0.987
    45   1 H    0.999 --    43 C    0.988
    46   1 H    0.999 --    43 C    0.987
 ---------------------------------------------------------------------------

Topologies differ in total number of bonds
Writing topology from bond orders to xtbtopo.mol

molecular dipole:
                 x           y           z       tot (Debye)
 q only:       -0.119      -2.277      -2.005
   full:        0.148      -2.056      -1.334       6.241
molecular quadrupole (traceless):
                xx          xy          yy          xz          yz          zz
 q only:        1.743      12.607       8.000       7.856       7.949      -9.742
  q+dip:        0.441       9.716       4.174       5.583      10.944      -4.614
   full:        0.045       9.797       6.651       6.085       9.372      -6.696


           -------------------------------------------------
          | TOTAL ENERGY              -56.260469552038 Eh   |
          | GRADIENT NORM               0.038740856484 Eh/α |
          | HOMO-LUMO GAP               2.805222750429 eV   |
           -------------------------------------------------

------------------------------------------------------------------------
 * finished run on 2021/03/16 at 12:07:03.113     
------------------------------------------------------------------------
 total:
 * wall-time:     0 d,  0 h,  0 min,  0.178 sec
 *  cpu-time:     0 d,  0 h,  0 min,  2.082 sec
 * ratio c/w:    11.709 speedup
 SCF:
 * wall-time:     0 d,  0 h,  0 min,  0.133 sec
 *  cpu-time:     0 d,  0 h,  0 min,  1.566 sec
 * ratio c/w:    11.769 speedup


-------------------------   --------------------
FINAL SINGLE POINT ENERGY       -56.260469552040
-------------------------   --------------------


----------------------------------------------------------------------------
                           ORCA NUMERICAL FREQUENCIES
                              (9-process run)
----------------------------------------------------------------------------

Number of atoms                ... 46
Central differences            ... used
Number of displacements        ... 276
Numerical increment            ... 5.000e-03 bohr
IR-spectrum generation         ... on
Raman-spectrum generation      ... off
Surface Crossing Hessian       ... off
List of participating nodes    ...  /tmp/slurm-scratch/freq.782/freq.hostnames

The output will be reduced. Please look at the following files:
SCF program output             ... >/tmp/slurm-scratch/freq.782/freq.lastscf
Integral program output        ... >/tmp/slurm-scratch/freq.782/freq.lastint
Gradient program output        ... >/tmp/slurm-scratch/freq.782/freq.lastgrad
Dipole moment program output   ... >/tmp/slurm-scratch/freq.782/freq.lastmom
AutoCI program output          ... >/tmp/slurm-scratch/freq.782/freq.lastautoci


         <<< Energy and Gradient at the input geometry >>>

        <<< Energy and Gradient at displaced geometries >>>
             <<<Displacing   1/coordinate 1 (+)>>>
             <<<Displacing   3/coordinate 3 (+)>>>
             <<<Displacing   3/coordinate 1 (+)>>>
             <<<Displacing   3/coordinate 2 (+)>>>
             <<<Displacing   1/coordinate 1 (-)>>>
             <<<Displacing   3/coordinate 3 (-)>>>
             <<<Displacing   3/coordinate 1 (-)>>>
             <<<Displacing   3/coordinate 2 (-)>>>
             <<<Displacing   2/coordinate 1 (+)>>>
             <<<Displacing   2/coordinate 2 (+)>>>
             <<<Displacing   1/coordinate 3 (+)>>>
             <<<Displacing   1/coordinate 2 (+)>>>
             <<<Displacing   2/coordinate 3 (+)>>>
             <<<Displacing   2/coordinate 2 (-)>>>
             <<<Displacing   2/coordinate 1 (-)>>>
             <<<Displacing   1/coordinate 3 (-)>>>
             <<<Displacing   1/coordinate 2 (-)>>>
             <<<Displacing   2/coordinate 3 (-)>>>
             <<<Displacing   4/coordinate 2 (+)>>>
             <<<Displacing   4/coordinate 1 (+)>>>
             <<<Displacing   6/coordinate 2 (+)>>>
             <<<Displacing   5/coordinate 1 (+)>>>
             <<<Displacing   4/coordinate 2 (-)>>>
             <<<Displacing   6/coordinate 2 (-)>>>
             <<<Displacing   5/coordinate 2 (+)>>>
             <<<Displacing   4/coordinate 1 (-)>>>
             <<<Displacing   4/coordinate 3 (+)>>>
             <<<Displacing   6/coordinate 1 (+)>>>
             <<<Displacing   5/coordinate 1 (-)>>>
             <<<Displacing   5/coordinate 2 (-)>>>
             <<<Displacing   4/coordinate 3 (-)>>>
             <<<Displacing   6/coordinate 1 (-)>>>
             <<<Displacing   5/coordinate 3 (+)>>>
             <<<Displacing   6/coordinate 3 (+)>>>
             <<<Displacing   5/coordinate 3 (-)>>>
             <<<Displacing   6/coordinate 3 (-)>>>
             <<<Displacing   7/coordinate 1 (+)>>>
             <<<Displacing   7/coordinate 1 (-)>>>
             <<<Displacing   8/coordinate 3 (+)>>>
             <<<Displacing   9/coordinate 3 (+)>>>
             <<<Displacing   8/coordinate 3 (-)>>>
             <<<Displacing   9/coordinate 3 (-)>>>
             <<<Displacing   8/coordinate 1 (+)>>>
             <<<Displacing   7/coordinate 2 (+)>>>
             <<<Displacing   8/coordinate 2 (+)>>>
             <<<Displacing   8/coordinate 1 (-)>>>
             <<<Displacing   7/coordinate 3 (+)>>>
             <<<Displacing   9/coordinate 2 (+)>>>
             <<<Displacing   7/coordinate 2 (-)>>>
             <<<Displacing   7/coordinate 3 (-)>>>
             <<<Displacing   8/coordinate 2 (-)>>>
             <<<Displacing   9/coordinate 2 (-)>>>
             <<<Displacing   9/coordinate 1 (+)>>>
             <<<Displacing   9/coordinate 1 (-)>>>
             <<<Displacing  10/coordinate 2 (+)>>>
             <<<Displacing  10/coordinate 1 (+)>>>
             <<<Displacing  10/coordinate 1 (-)>>>
             <<<Displacing  11/coordinate 2 (+)>>>
             <<<Displacing  10/coordinate 2 (-)>>>
             <<<Displacing  11/coordinate 2 (-)>>>
             <<<Displacing  10/coordinate 3 (+)>>>
             <<<Displacing  11/coordinate 1 (+)>>>
             <<<Displacing  12/coordinate 1 (+)>>>
             <<<Displacing  10/coordinate 3 (-)>>>
             <<<Displacing  12/coordinate 1 (-)>>>
             <<<Displacing  11/coordinate 1 (-)>>>
             <<<Displacing  11/coordinate 3 (+)>>>
             <<<Displacing  12/coordinate 2 (+)>>>
             <<<Displacing  11/coordinate 3 (-)>>>
             <<<Displacing  12/coordinate 2 (-)>>>
             <<<Displacing  12/coordinate 3 (+)>>>
             <<<Displacing  12/coordinate 3 (-)>>>
             <<<Displacing  13/coordinate 1 (+)>>>
             <<<Displacing  13/coordinate 1 (-)>>>
             <<<Displacing  13/coordinate 2 (+)>>>
             <<<Displacing  13/coordinate 2 (-)>>>
             <<<Displacing  13/coordinate 3 (+)>>>
             <<<Displacing  14/coordinate 2 (+)>>>
             <<<Displacing  14/coordinate 1 (+)>>>
             <<<Displacing  14/coordinate 1 (-)>>>
             <<<Displacing  14/coordinate 2 (-)>>>
             <<<Displacing  13/coordinate 3 (-)>>>
             <<<Displacing  14/coordinate 3 (+)>>>
             <<<Displacing  15/coordinate 1 (+)>>>
             <<<Displacing  14/coordinate 3 (-)>>>
             <<<Displacing  15/coordinate 1 (-)>>>
             <<<Displacing  15/coordinate 2 (+)>>>
             <<<Displacing  15/coordinate 2 (-)>>>
             <<<Displacing  15/coordinate 3 (+)>>>
             <<<Displacing  15/coordinate 3 (-)>>>
             <<<Displacing  16/coordinate 1 (+)>>>
             <<<Displacing  16/coordinate 1 (-)>>>
             <<<Displacing  16/coordinate 2 (+)>>>
             <<<Displacing  16/coordinate 2 (-)>>>
             <<<Displacing  16/coordinate 3 (+)>>>
             <<<Displacing  17/coordinate 1 (+)>>>
             <<<Displacing  16/coordinate 3 (-)>>>
             <<<Displacing  17/coordinate 1 (-)>>>
             <<<Displacing  17/coordinate 2 (+)>>>
             <<<Displacing  17/coordinate 3 (+)>>>
             <<<Displacing  17/coordinate 2 (-)>>>
             <<<Displacing  17/coordinate 3 (-)>>>
             <<<Displacing  18/coordinate 1 (+)>>>
             <<<Displacing  18/coordinate 2 (+)>>>
             <<<Displacing  18/coordinate 1 (-)>>>
             <<<Displacing  18/coordinate 2 (-)>>>
             <<<Displacing  18/coordinate 3 (+)>>>
             <<<Displacing  18/coordinate 3 (-)>>>
             <<<Displacing  19/coordinate 3 (+)>>>
             <<<Displacing  19/coordinate 2 (+)>>>
             <<<Displacing  19/coordinate 3 (-)>>>
             <<<Displacing  19/coordinate 2 (-)>>>
             <<<Displacing  19/coordinate 1 (+)>>>
             <<<Displacing  20/coordinate 1 (+)>>>
             <<<Displacing  20/coordinate 2 (+)>>>
             <<<Displacing  19/coordinate 1 (-)>>>
             <<<Displacing  20/coordinate 3 (+)>>>
             <<<Displacing  20/coordinate 1 (-)>>>
             <<<Displacing  20/coordinate 2 (-)>>>
             <<<Displacing  20/coordinate 3 (-)>>>
             <<<Displacing  21/coordinate 2 (+)>>>
             <<<Displacing  21/coordinate 1 (+)>>>
             <<<Displacing  21/coordinate 2 (-)>>>
             <<<Displacing  21/coordinate 1 (-)>>>
             <<<Displacing  21/coordinate 3 (+)>>>
             <<<Displacing  21/coordinate 3 (-)>>>
             <<<Displacing  22/coordinate 2 (+)>>>
             <<<Displacing  22/coordinate 1 (+)>>>
             <<<Displacing  22/coordinate 2 (-)>>>
             <<<Displacing  22/coordinate 3 (+)>>>
             <<<Displacing  23/coordinate 1 (+)>>>
             <<<Displacing  22/coordinate 1 (-)>>>
             <<<Displacing  22/coordinate 3 (-)>>>
             <<<Displacing  23/coordinate 1 (-)>>>
             <<<Displacing  23/coordinate 2 (+)>>>
             <<<Displacing  23/coordinate 2 (-)>>>
             <<<Displacing  23/coordinate 3 (+)>>>
             <<<Displacing  23/coordinate 3 (-)>>>
             <<<Displacing  24/coordinate 2 (+)>>>
             <<<Displacing  24/coordinate 1 (+)>>>
             <<<Displacing  24/coordinate 2 (-)>>>
             <<<Displacing  24/coordinate 1 (-)>>>
             <<<Displacing  24/coordinate 3 (+)>>>
             <<<Displacing  24/coordinate 3 (-)>>>
             <<<Displacing  25/coordinate 1 (+)>>>
             <<<Displacing  25/coordinate 1 (-)>>>
             <<<Displacing  25/coordinate 2 (+)>>>
             <<<Displacing  26/coordinate 1 (+)>>>
             <<<Displacing  26/coordinate 1 (-)>>>
             <<<Displacing  25/coordinate 2 (-)>>>
             <<<Displacing  26/coordinate 2 (+)>>>
             <<<Displacing  25/coordinate 3 (+)>>>
             <<<Displacing  26/coordinate 2 (-)>>>
             <<<Displacing  25/coordinate 3 (-)>>>
             <<<Displacing  26/coordinate 3 (+)>>>
             <<<Displacing  27/coordinate 1 (+)>>>
             <<<Displacing  26/coordinate 3 (-)>>>
             <<<Displacing  27/coordinate 1 (-)>>>
             <<<Displacing  27/coordinate 2 (+)>>>
             <<<Displacing  27/coordinate 2 (-)>>>
             <<<Displacing  27/coordinate 3 (+)>>>
             <<<Displacing  27/coordinate 3 (-)>>>
             <<<Displacing  28/coordinate 1 (+)>>>
             <<<Displacing  28/coordinate 3 (+)>>>
             <<<Displacing  28/coordinate 1 (-)>>>
             <<<Displacing  28/coordinate 3 (-)>>>
             <<<Displacing  28/coordinate 2 (+)>>>
             <<<Displacing  29/coordinate 2 (+)>>>
             <<<Displacing  29/coordinate 1 (+)>>>
             <<<Displacing  28/coordinate 2 (-)>>>
             <<<Displacing  29/coordinate 2 (-)>>>
             <<<Displacing  29/coordinate 1 (-)>>>
             <<<Displacing  29/coordinate 3 (+)>>>
             <<<Displacing  29/coordinate 3 (-)>>>
             <<<Displacing  30/coordinate 1 (+)>>>
             <<<Displacing  30/coordinate 1 (-)>>>
             <<<Displacing  30/coordinate 2 (+)>>>
             <<<Displacing  30/coordinate 2 (-)>>>
             <<<Displacing  30/coordinate 3 (+)>>>
             <<<Displacing  30/coordinate 3 (-)>>>
             <<<Displacing  31/coordinate 1 (+)>>>
             <<<Displacing  31/coordinate 3 (+)>>>
             <<<Displacing  31/coordinate 2 (+)>>>
             <<<Displacing  31/coordinate 3 (-)>>>
             <<<Displacing  31/coordinate 1 (-)>>>
             <<<Displacing  31/coordinate 2 (-)>>>
             <<<Displacing  32/coordinate 1 (+)>>>
             <<<Displacing  32/coordinate 2 (+)>>>
             <<<Displacing  32/coordinate 1 (-)>>>
             <<<Displacing  32/coordinate 2 (-)>>>
             <<<Displacing  32/coordinate 3 (+)>>>
             <<<Displacing  32/coordinate 3 (-)>>>
             <<<Displacing  33/coordinate 1 (+)>>>
             <<<Displacing  33/coordinate 1 (-)>>>
             <<<Displacing  33/coordinate 2 (+)>>>
             <<<Displacing  33/coordinate 2 (-)>>>
             <<<Displacing  33/coordinate 3 (+)>>>
             <<<Displacing  33/coordinate 3 (-)>>>
             <<<Displacing  34/coordinate 1 (+)>>>
             <<<Displacing  34/coordinate 1 (-)>>>
             <<<Displacing  34/coordinate 2 (+)>>>
             <<<Displacing  34/coordinate 2 (-)>>>
             <<<Displacing  34/coordinate 3 (+)>>>
             <<<Displacing  35/coordinate 1 (+)>>>
             <<<Displacing  34/coordinate 3 (-)>>>
             <<<Displacing  35/coordinate 1 (-)>>>
             <<<Displacing  35/coordinate 3 (+)>>>
             <<<Displacing  35/coordinate 2 (+)>>>
             <<<Displacing  35/coordinate 3 (-)>>>
             <<<Displacing  35/coordinate 2 (-)>>>
             <<<Displacing  36/coordinate 1 (+)>>>
             <<<Displacing  36/coordinate 1 (-)>>>
             <<<Displacing  36/coordinate 2 (+)>>>
             <<<Displacing  36/coordinate 2 (-)>>>
             <<<Displacing  36/coordinate 3 (+)>>>
             <<<Displacing  36/coordinate 3 (-)>>>
             <<<Displacing  37/coordinate 1 (+)>>>
             <<<Displacing  37/coordinate 3 (+)>>>
             <<<Displacing  37/coordinate 3 (-)>>>
             <<<Displacing  37/coordinate 1 (-)>>>
             <<<Displacing  38/coordinate 1 (+)>>>
             <<<Displacing  37/coordinate 2 (+)>>>
             <<<Displacing  37/coordinate 2 (-)>>>
             <<<Displacing  38/coordinate 1 (-)>>>
             <<<Displacing  38/coordinate 2 (+)>>>
             <<<Displacing  38/coordinate 3 (+)>>>
             <<<Displacing  38/coordinate 2 (-)>>>
             <<<Displacing  38/coordinate 3 (-)>>>
             <<<Displacing  39/coordinate 1 (+)>>>
             <<<Displacing  39/coordinate 1 (-)>>>
             <<<Displacing  39/coordinate 2 (+)>>>
             <<<Displacing  39/coordinate 2 (-)>>>
             <<<Displacing  39/coordinate 3 (+)>>>
             <<<Displacing  40/coordinate 1 (+)>>>
             <<<Displacing  40/coordinate 2 (+)>>>
             <<<Displacing  40/coordinate 1 (-)>>>
             <<<Displacing  39/coordinate 3 (-)>>>
             <<<Displacing  40/coordinate 3 (+)>>>
             <<<Displacing  40/coordinate 2 (-)>>>
             <<<Displacing  40/coordinate 3 (-)>>>
             <<<Displacing  41/coordinate 1 (+)>>>
             <<<Displacing  41/coordinate 1 (-)>>>
             <<<Displacing  41/coordinate 2 (+)>>>
             <<<Displacing  41/coordinate 3 (+)>>>
             <<<Displacing  41/coordinate 3 (-)>>>
             <<<Displacing  41/coordinate 2 (-)>>>
             <<<Displacing  42/coordinate 1 (+)>>>
             <<<Displacing  42/coordinate 1 (-)>>>
             <<<Displacing  42/coordinate 2 (+)>>>
             <<<Displacing  42/coordinate 2 (-)>>>
             <<<Displacing  43/coordinate 1 (+)>>>
             <<<Displacing  43/coordinate 1 (-)>>>
             <<<Displacing  42/coordinate 3 (+)>>>
             <<<Displacing  43/coordinate 3 (+)>>>
             <<<Displacing  42/coordinate 3 (-)>>>
             <<<Displacing  44/coordinate 1 (+)>>>
             <<<Displacing  43/coordinate 2 (+)>>>
             <<<Displacing  43/coordinate 3 (-)>>>
             <<<Displacing  44/coordinate 1 (-)>>>
             <<<Displacing  43/coordinate 2 (-)>>>
             <<<Displacing  44/coordinate 3 (+)>>>
             <<<Displacing  44/coordinate 2 (+)>>>
             <<<Displacing  44/coordinate 3 (-)>>>
             <<<Displacing  44/coordinate 2 (-)>>>
             <<<Displacing  45/coordinate 1 (+)>>>
             <<<Displacing  45/coordinate 1 (-)>>>
             <<<Displacing  45/coordinate 2 (+)>>>
             <<<Displacing  45/coordinate 2 (-)>>>
             <<<Displacing  45/coordinate 3 (+)>>>
             <<<Displacing  46/coordinate 1 (+)>>>
             <<<Displacing  45/coordinate 3 (-)>>>
             <<<Displacing  46/coordinate 1 (-)>>>
             <<<Displacing  46/coordinate 2 (+)>>>
             <<<Displacing  46/coordinate 2 (-)>>>
             <<<Displacing  46/coordinate 3 (+)>>>
             <<<Displacing  46/coordinate 3 (-)>>>

-----------------------
VIBRATIONAL FREQUENCIES
-----------------------

Scaling factor for frequencies =  1.000000000 (already applied!)

   0:         0.00 cm**-1
   1:         0.00 cm**-1
   2:         0.00 cm**-1
   3:         0.00 cm**-1
   4:         0.00 cm**-1
   5:         0.00 cm**-1
   6:      -684.58 cm**-1 ***imaginary mode***
   7:        27.02 cm**-1
   8:        36.20 cm**-1
   9:        44.71 cm**-1
  10:        59.60 cm**-1
  11:        67.35 cm**-1
  12:        72.39 cm**-1
  13:        89.26 cm**-1
  14:        92.07 cm**-1
  15:       111.45 cm**-1
  16:       118.90 cm**-1
  17:       127.10 cm**-1
  18:       142.17 cm**-1
  19:       166.16 cm**-1
  20:       180.60 cm**-1
  21:       204.57 cm**-1
  22:       233.50 cm**-1
  23:       252.38 cm**-1
  24:       271.68 cm**-1
  25:       274.71 cm**-1
  26:       284.50 cm**-1
  27:       289.04 cm**-1
  28:       341.36 cm**-1
  29:       365.28 cm**-1
  30:       384.30 cm**-1
  31:       394.00 cm**-1
  32:       419.34 cm**-1
  33:       426.82 cm**-1
  34:       457.55 cm**-1
  35:       483.59 cm**-1
  36:       534.29 cm**-1
  37:       555.49 cm**-1
  38:       590.93 cm**-1
  39:       630.05 cm**-1
  40:       677.33 cm**-1
  41:       761.95 cm**-1
  42:       764.97 cm**-1
  43:       770.61 cm**-1
  44:       774.51 cm**-1
  45:       822.32 cm**-1
  46:       825.62 cm**-1
  47:       841.24 cm**-1
  48:       878.65 cm**-1
  49:       885.25 cm**-1
  50:       909.53 cm**-1
  51:       921.47 cm**-1
  52:       933.72 cm**-1
  53:       935.43 cm**-1
  54:       943.58 cm**-1
  55:       946.37 cm**-1
  56:       949.63 cm**-1
  57:       983.44 cm**-1
  58:       993.42 cm**-1
  59:      1029.95 cm**-1
  60:      1052.23 cm**-1
  61:      1057.31 cm**-1
  62:      1068.38 cm**-1
  63:      1082.58 cm**-1
  64:      1090.15 cm**-1
  65:      1099.87 cm**-1
  66:      1109.20 cm**-1
  67:      1110.77 cm**-1
  68:      1115.24 cm**-1
  69:      1131.18 cm**-1
  70:      1134.74 cm**-1
  71:      1162.65 cm**-1
  72:      1176.33 cm**-1
  73:      1183.87 cm**-1
  74:      1196.02 cm**-1
  75:      1207.88 cm**-1
  76:      1216.19 cm**-1
  77:      1239.08 cm**-1
  78:      1258.06 cm**-1
  79:      1268.85 cm**-1
  80:      1270.68 cm**-1
  81:      1275.43 cm**-1
  82:      1276.02 cm**-1
  83:      1278.06 cm**-1
  84:      1282.12 cm**-1
  85:      1284.79 cm**-1
  86:      1307.72 cm**-1
  87:      1330.06 cm**-1
  88:      1341.42 cm**-1
  89:      1369.62 cm**-1
  90:      1373.35 cm**-1
  91:      1391.97 cm**-1
  92:      1409.29 cm**-1
  93:      1428.17 cm**-1
  94:      1429.68 cm**-1
  95:      1435.13 cm**-1
  96:      1460.80 cm**-1
  97:      1466.00 cm**-1
  98:      1477.13 cm**-1
  99:      1497.42 cm**-1
 100:      1502.33 cm**-1
 101:      1504.45 cm**-1
 102:      1506.47 cm**-1
 103:      1507.39 cm**-1
 104:      1507.91 cm**-1
 105:      1509.40 cm**-1
 106:      1509.95 cm**-1
 107:      1513.23 cm**-1
 108:      1550.21 cm**-1
 109:      1564.76 cm**-1
 110:      1573.77 cm**-1
 111:      2824.09 cm**-1
 112:      2870.63 cm**-1
 113:      2891.22 cm**-1
 114:      2931.54 cm**-1
 115:      2939.20 cm**-1
 116:      2942.11 cm**-1
 117:      2944.65 cm**-1
 118:      2955.33 cm**-1
 119:      2958.83 cm**-1
 120:      2963.68 cm**-1
 121:      2968.52 cm**-1
 122:      2972.67 cm**-1
 123:      2978.50 cm**-1
 124:      2982.44 cm**-1
 125:      2983.73 cm**-1
 126:      2988.93 cm**-1
 127:      2996.61 cm**-1
 128:      3001.44 cm**-1
 129:      3009.47 cm**-1
 130:      3023.45 cm**-1
 131:      3042.22 cm**-1
 132:      3051.15 cm**-1
 133:      3055.73 cm**-1
 134:      3067.27 cm**-1
 135:      3079.73 cm**-1
 136:      3398.92 cm**-1
 137:      3590.15 cm**-1


------------
NORMAL MODES
------------

These modes are the cartesian displacements weighted by the diagonal matrix
M(i,i)=1/sqrt(m[i]) where m[i] is the mass of the displaced atom
Thus, these vectors are normalized but *not* orthogonal

                  0          1          2          3          4          5    
      0       0.000000   0.000000   0.000000   0.000000   0.000000   0.000000
      1       0.000000   0.000000   0.000000   0.000000   0.000000   0.000000
      2       0.000000   0.000000   0.000000   0.000000   0.000000   0.000000
      3       0.000000   0.000000   0.000000   0.000000   0.000000   0.000000
      4       0.000000   0.000000   0.000000   0.000000   0.000000   0.000000
      5       0.000000   0.000000   0.000000   0.000000   0.000000   0.000000
      6       0.000000   0.000000   0.000000   0.000000   0.000000   0.000000
      7       0.000000   0.000000   0.000000   0.000000   0.000000   0.000000
      8       0.000000   0.000000   0.000000   0.000000   0.000000   0.000000
      9       0.000000   0.000000   0.000000   0.000000   0.000000   0.000000
     10       0.000000   0.000000   0.000000   0.000000   0.000000   0.000000
     11       0.000000   0.000000   0.000000   0.000000   0.000000   0.000000
     12       0.000000   0.000000   0.000000   0.000000   0.000000   0.000000
     13       0.000000   0.000000   0.000000   0.000000   0.000000   0.000000
     14       0.000000   0.000000   0.000000   0.000000   0.000000   0.000000
     15       0.000000   0.000000   0.000000   0.000000   0.000000   0.000000
     16       0.000000   0.000000   0.000000   0.000000   0.000000   0.000000
     17       0.000000   0.000000   0.000000   0.000000   0.000000   0.000000
     18       0.000000   0.000000   0.000000   0.000000   0.000000   0.000000
     19       0.000000   0.000000   0.000000   0.000000   0.000000   0.000000
     20       0.000000   0.000000   0.000000   0.000000   0.000000   0.000000
     21       0.000000   0.000000   0.000000   0.000000   0.000000   0.000000
     22       0.000000   0.000000   0.000000   0.000000   0.000000   0.000000
     23       0.000000   0.000000   0.000000   0.000000   0.000000   0.000000
     24       0.000000   0.000000   0.000000   0.000000   0.000000   0.000000
     25       0.000000   0.000000   0.000000   0.000000   0.000000   0.000000
     26       0.000000   0.000000   0.000000   0.000000   0.000000   0.000000
     27       0.000000   0.000000   0.000000   0.000000   0.000000   0.000000
     28       0.000000   0.000000   0.000000   0.000000   0.000000   0.000000
     29       0.000000   0.000000   0.000000   0.000000   0.000000   0.000000
     30       0.000000   0.000000   0.000000   0.000000   0.000000   0.000000
     31       0.000000   0.000000   0.000000   0.000000   0.000000   0.000000
     32       0.000000   0.000000   0.000000   0.000000   0.000000   0.000000
     33       0.000000   0.000000   0.000000   0.000000   0.000000   0.000000
     34       0.000000   0.000000   0.000000   0.000000   0.000000   0.000000
     35       0.000000   0.000000   0.000000   0.000000   0.000000   0.000000
     36       0.000000   0.000000   0.000000   0.000000   0.000000   0.000000
     37       0.000000   0.000000   0.000000   0.000000   0.000000   0.000000
     38       0.000000   0.000000   0.000000   0.000000   0.000000   0.000000
     39       0.000000   0.000000   0.000000   0.000000   0.000000   0.000000
     40       0.000000   0.000000   0.000000   0.000000   0.000000   0.000000
     41       0.000000   0.000000   0.000000   0.000000   0.000000   0.000000
     42       0.000000   0.000000   0.000000   0.000000   0.000000   0.000000
     43       0.000000   0.000000   0.000000   0.000000   0.000000   0.000000
     44       0.000000   0.000000   0.000000   0.000000   0.000000   0.000000
     45       0.000000   0.000000   0.000000   0.000000   0.000000   0.000000
     46       0.000000   0.000000   0.000000   0.000000   0.000000   0.000000
     47       0.000000   0.000000   0.000000   0.000000   0.000000   0.000000
     48       0.000000   0.000000   0.000000   0.000000   0.000000   0.000000
     49       0.000000   0.000000   0.000000   0.000000   0.000000   0.000000
     50       0.000000   0.000000   0.000000   0.000000   0.000000   0.000000
     51       0.000000   0.000000   0.000000   0.000000   0.000000   0.000000
     52       0.000000   0.000000   0.000000   0.000000   0.000000   0.000000
     53       0.000000   0.000000   0.000000   0.000000   0.000000   0.000000
     54       0.000000   0.000000   0.000000   0.000000   0.000000   0.000000
     55       0.000000   0.000000   0.000000   0.000000   0.000000   0.000000
     56       0.000000   0.000000   0.000000   0.000000   0.000000   0.000000
     57       0.000000   0.000000   0.000000   0.000000   0.000000   0.000000
     58       0.000000   0.000000   0.000000   0.000000   0.000000   0.000000
     59       0.000000   0.000000   0.000000   0.000000   0.000000   0.000000
     60       0.000000   0.000000   0.000000   0.000000   0.000000   0.000000
     61       0.000000   0.000000   0.000000   0.000000   0.000000   0.000000
     62       0.000000   0.000000   0.000000   0.000000   0.000000   0.000000
     63       0.000000   0.000000   0.000000   0.000000   0.000000   0.000000
     64       0.000000   0.000000   0.000000   0.000000   0.000000   0.000000
     65       0.000000   0.000000   0.000000   0.000000   0.000000   0.000000
     66       0.000000   0.000000   0.000000   0.000000   0.000000   0.000000
     67       0.000000   0.000000   0.000000   0.000000   0.000000   0.000000
     68       0.000000   0.000000   0.000000   0.000000   0.000000   0.000000
     69       0.000000   0.000000   0.000000   0.000000   0.000000   0.000000
     70       0.000000   0.000000   0.000000   0.000000   0.000000   0.000000
     71       0.000000   0.000000   0.000000   0.000000   0.000000   0.000000
     72       0.000000   0.000000   0.000000   0.000000   0.000000   0.000000
     73       0.000000   0.000000   0.000000   0.000000   0.000000   0.000000
     74       0.000000   0.000000   0.000000   0.000000   0.000000   0.000000
     75       0.000000   0.000000   0.000000   0.000000   0.000000   0.000000
     76       0.000000   0.000000   0.000000   0.000000   0.000000   0.000000
     77       0.000000   0.000000   0.000000   0.000000   0.000000   0.000000
     78       0.000000   0.000000   0.000000   0.000000   0.000000   0.000000
     79       0.000000   0.000000   0.000000   0.000000   0.000000   0.000000
     80       0.000000   0.000000   0.000000   0.000000   0.000000   0.000000
     81       0.000000   0.000000   0.000000   0.000000   0.000000   0.000000
     82       0.000000   0.000000   0.000000   0.000000   0.000000   0.000000
     83       0.000000   0.000000   0.000000   0.000000   0.000000   0.000000
     84       0.000000   0.000000   0.000000   0.000000   0.000000   0.000000
     85       0.000000   0.000000   0.000000   0.000000   0.000000   0.000000
     86       0.000000   0.000000   0.000000   0.000000   0.000000   0.000000
     87       0.000000   0.000000   0.000000   0.000000   0.000000   0.000000
     88       0.000000   0.000000   0.000000   0.000000   0.000000   0.000000
     89       0.000000   0.000000   0.000000   0.000000   0.000000   0.000000
     90       0.000000   0.000000   0.000000   0.000000   0.000000   0.000000
     91       0.000000   0.000000   0.000000   0.000000   0.000000   0.000000
     92       0.000000   0.000000   0.000000   0.000000   0.000000   0.000000
     93       0.000000   0.000000   0.000000   0.000000   0.000000   0.000000
     94       0.000000   0.000000   0.000000   0.000000   0.000000   0.000000
     95       0.000000   0.000000   0.000000   0.000000   0.000000   0.000000
     96       0.000000   0.000000   0.000000   0.000000   0.000000   0.000000
     97       0.000000   0.000000   0.000000   0.000000   0.000000   0.000000
     98       0.000000   0.000000   0.000000   0.000000   0.000000   0.000000
     99       0.000000   0.000000   0.000000   0.000000   0.000000   0.000000
    100       0.000000   0.000000   0.000000   0.000000   0.000000   0.000000
    101       0.000000   0.000000   0.000000   0.000000   0.000000   0.000000
    102       0.000000   0.000000   0.000000   0.000000   0.000000   0.000000
    103       0.000000   0.000000   0.000000   0.000000   0.000000   0.000000
    104       0.000000   0.000000   0.000000   0.000000   0.000000   0.000000
    105       0.000000   0.000000   0.000000   0.000000   0.000000   0.000000
    106       0.000000   0.000000   0.000000   0.000000   0.000000   0.000000
    107       0.000000   0.000000   0.000000   0.000000   0.000000   0.000000
    108       0.000000   0.000000   0.000000   0.000000   0.000000   0.000000
    109       0.000000   0.000000   0.000000   0.000000   0.000000   0.000000
    110       0.000000   0.000000   0.000000   0.000000   0.000000   0.000000
    111       0.000000   0.000000   0.000000   0.000000   0.000000   0.000000
    112       0.000000   0.000000   0.000000   0.000000   0.000000   0.000000
    113       0.000000   0.000000   0.000000   0.000000   0.000000   0.000000
    114       0.000000   0.000000   0.000000   0.000000   0.000000   0.000000
    115       0.000000   0.000000   0.000000   0.000000   0.000000   0.000000
    116       0.000000   0.000000   0.000000   0.000000   0.000000   0.000000
    117       0.000000   0.000000   0.000000   0.000000   0.000000   0.000000
    118       0.000000   0.000000   0.000000   0.000000   0.000000   0.000000
    119       0.000000   0.000000   0.000000   0.000000   0.000000   0.000000
    120       0.000000   0.000000   0.000000   0.000000   0.000000   0.000000
    121       0.000000   0.000000   0.000000   0.000000   0.000000   0.000000
    122       0.000000   0.000000   0.000000   0.000000   0.000000   0.000000
    123       0.000000   0.000000   0.000000   0.000000   0.000000   0.000000
    124       0.000000   0.000000   0.000000   0.000000   0.000000   0.000000
    125       0.000000   0.000000   0.000000   0.000000   0.000000   0.000000
    126       0.000000   0.000000   0.000000   0.000000   0.000000   0.000000
    127       0.000000   0.000000   0.000000   0.000000   0.000000   0.000000
    128       0.000000   0.000000   0.000000   0.000000   0.000000   0.000000
    129       0.000000   0.000000   0.000000   0.000000   0.000000   0.000000
    130       0.000000   0.000000   0.000000   0.000000   0.000000   0.000000
    131       0.000000   0.000000   0.000000   0.000000   0.000000   0.000000
    132       0.000000   0.000000   0.000000   0.000000   0.000000   0.000000
    133       0.000000   0.000000   0.000000   0.000000   0.000000   0.000000
    134       0.000000   0.000000   0.000000   0.000000   0.000000   0.000000
    135       0.000000   0.000000   0.000000   0.000000   0.000000   0.000000
    136       0.000000   0.000000   0.000000   0.000000   0.000000   0.000000
    137       0.000000   0.000000   0.000000   0.000000   0.000000   0.000000
                  6          7          8          9         10         11    
      0      -0.004378   0.041507  -0.005673   0.009813   0.016724   0.008985
      1      -0.002321   0.040882  -0.055512  -0.154701   0.026999  -0.087955
      2      -0.000386   0.016753   0.021278  -0.015785  -0.072540  -0.034578
      3      -0.006297   0.039736  -0.008412   0.012132   0.028178   0.020601
      4       0.000675   0.034677  -0.044417  -0.057600   0.017362  -0.080622
      5      -0.003216   0.010687   0.010734  -0.012473  -0.028772   0.008599
      6      -0.011170   0.045371  -0.004520  -0.010208   0.001052  -0.012785
      7       0.009688   0.027333  -0.016250  -0.002169   0.010477  -0.006483
      8      -0.005118   0.006676  -0.002071  -0.005124   0.003334   0.023233
      9       0.002392   0.052950   0.002660  -0.032032  -0.039095  -0.059465
     10      -0.001375   0.025449  -0.000488  -0.050480   0.013277   0.062814
     11      -0.000816   0.009234  -0.003416  -0.001495  -0.009359  -0.005328
     12       0.000592   0.054651   0.005436  -0.034693  -0.050924  -0.071624
     13      -0.002474   0.032287  -0.013004  -0.147580   0.023201   0.053146
     14      -0.000564   0.015238   0.007514  -0.004865  -0.053007  -0.048181
     15      -0.000222   0.048992   0.001150  -0.013920  -0.022939  -0.037432
     16      -0.000490   0.040152  -0.040124  -0.198972   0.030955  -0.022335
     17       0.000078   0.018978   0.019635  -0.012166  -0.084401  -0.062529
     18      -0.009449   0.033699  -0.013740   0.031549   0.059299   0.057335
     19       0.004563   0.035054  -0.056934  -0.022559   0.016879  -0.132426
     20      -0.003708   0.008962   0.012048  -0.015255  -0.020253   0.030450
     21      -0.000259   0.057199   0.007573  -0.044993  -0.062805  -0.087617
     22       0.017156   0.017611   0.022494  -0.006775   0.009205   0.123726
     23      -0.004569   0.006665  -0.013852   0.001735   0.015983   0.009469
     24       0.000579   0.050347   0.003172  -0.015819  -0.031898  -0.046275
     25       0.003904   0.045179  -0.048838  -0.272004   0.040299  -0.028989
     26       0.001473   0.023620   0.027691  -0.014898  -0.117705  -0.094606
     27       0.008677   0.047158  -0.002849  -0.013296   0.005621  -0.006728
     28       0.100619   0.023366   0.010899   0.098623  -0.029929   0.009880
     29       0.013679  -0.003124  -0.020846   0.006865   0.041162   0.059715
     30      -0.029905   0.010437  -0.077747  -0.013762  -0.097650   0.032562
     31       0.244245   0.005950   0.049886   0.121012   0.015288   0.005164
     32       0.174205  -0.005824  -0.000814   0.059751   0.218367   0.002435
     33       0.007879   0.045825  -0.004465  -0.006415   0.003218  -0.016643
     34       0.025044   0.011346  -0.011476   0.134364  -0.019267  -0.022431
     35       0.006700   0.003636  -0.008257   0.005598   0.022663   0.042288
     36       0.050681   0.099996   0.015863   0.027126  -0.007261  -0.058748
     37      -0.019711   0.059708  -0.024106   0.206643  -0.006795  -0.099464
     38      -0.019196   0.104091  -0.012181   0.124842   0.032635  -0.089242
     39      -0.076075   0.026420  -0.007615  -0.002638  -0.000578  -0.037939
     40       0.002788   0.080462  -0.019706   0.220090  -0.007643  -0.110476
     41       0.056372  -0.091964   0.002562  -0.112478   0.006452   0.162104
     42       0.052141   0.038339   0.020619  -0.026926   0.029861   0.015617
     43      -0.792130   0.017886   0.047013   0.092462  -0.036650   0.024225
     44      -0.389687  -0.005442  -0.052044   0.035060   0.090783   0.032568
     45       0.026910   0.004892   0.032085  -0.010309   0.023982   0.025022
     46      -0.028440   0.017789   0.035266   0.095838  -0.040994   0.025460
     47       0.029337  -0.003867  -0.048487   0.057766   0.167065   0.005676
     48       0.014442   0.046948  -0.033867  -0.082576   0.028577   0.000451
     49      -0.128282   0.000426  -0.026614   0.119792   0.077298  -0.021490
     50      -0.025348  -0.015872  -0.030993   0.071044   0.076633   0.039689
     51      -0.012485  -0.027451   0.063225   0.005527   0.040460   0.022030
     52      -0.008577   0.069284   0.004744   0.070898  -0.047920   0.030924
     53       0.003742   0.001266  -0.198955   0.071287   0.003523   0.006835
     54       0.001914  -0.033738   0.279344  -0.044193   0.218899   0.011568
     55      -0.010773   0.099498  -0.157762   0.117702  -0.106203   0.044980
     56      -0.000636   0.007307  -0.304295   0.096391  -0.074800   0.012846
     57      -0.012384  -0.000363  -0.094757   0.026684  -0.083281   0.030677
     58      -0.002773   0.089823   0.100899   0.012678  -0.005446   0.025018
     59      -0.004182   0.015251  -0.420886   0.130488  -0.149268   0.019179
     60      -0.022006   0.044013  -0.007848  -0.008228   0.008963  -0.003839
     61       0.113705   0.020969  -0.003026   0.092524   0.022391  -0.004359
     62      -0.074591  -0.000480  -0.012826   0.001073   0.033540   0.055263
     63       0.009264   0.038472  -0.007838   0.028139   0.017154   0.008275
     64      -0.066240   0.010067  -0.001451   0.128592   0.074094  -0.019062
     65       0.088638   0.006493  -0.014656  -0.019773  -0.005361   0.069304
     66      -0.007649   0.042727  -0.044024  -0.070941  -0.001433   0.005381
     67      -0.114902   0.007290   0.002515   0.121947   0.085721  -0.021982
     68       0.014259  -0.009018  -0.014670   0.053433   0.122885   0.032227
     69       0.088255  -0.012223   0.126649  -0.004505   0.126075   0.017122
     70      -0.122654  -0.008757   0.047439   0.097039  -0.065339   0.039758
     71       0.121635  -0.008608   0.045548   0.063341   0.286394  -0.009607
     72       0.000657   0.004978  -0.025331  -0.041069   0.021622   0.052005
     73       0.003112  -0.151254  -0.008203  -0.036591  -0.035265   0.134687
     74       0.003212   0.005697   0.009317   0.000961   0.005263   0.016913
     75       0.003276   0.027976  -0.032491  -0.042072   0.003454   0.214098
     76       0.003439  -0.210731  -0.002162  -0.117198  -0.058775   0.276613
     77       0.001828   0.087640   0.000545   0.109541   0.035656  -0.163910
     78      -0.000980  -0.048207  -0.041950  -0.071058   0.053158  -0.000027
     79       0.003552  -0.189913  -0.000315  -0.103226  -0.066358   0.302434
     80       0.000410  -0.083998   0.010107  -0.114156  -0.019359   0.224950
     81       0.005069  -0.088643   0.013990   0.065911  -0.028755   0.017262
     82       0.001756   0.056164   0.058231   0.057624  -0.033156   0.027519
     83       0.002686  -0.022493   0.073326  -0.026838   0.114535  -0.008776
     84      -0.002795  -0.111127   0.146717   0.057515   0.115170  -0.008503
     85      -0.001416   0.035149  -0.044057   0.126655  -0.062416   0.022284
     86       0.000722  -0.033635   0.278748  -0.078688   0.286629  -0.032943
     87      -0.001591  -0.086610  -0.171866   0.102880  -0.240295   0.046409
     88      -0.002127   0.022668   0.223752   0.007470   0.006930   0.018475
     89       0.001621  -0.026331   0.163853  -0.046380   0.203993  -0.021347
     90      -0.005727   0.037067  -0.008965   0.026669   0.038811   0.036429
     91      -0.002023   0.046222  -0.076136  -0.194195   0.032881  -0.145055
     92       0.002248   0.019733   0.030808  -0.021247  -0.097100  -0.045531
     93       0.002777   0.060429   0.010704  -0.052695  -0.082069  -0.107339
     94      -0.000516   0.031018  -0.000930  -0.181483   0.026311   0.105232
     95      -0.000934   0.017052   0.006368  -0.002356  -0.061988  -0.068934
     96       0.000209   0.003459  -0.018907  -0.035678   0.024885  -0.015589
     97      -0.000566  -0.176751  -0.020353  -0.010240   0.023078  -0.131876
     98      -0.000212   0.016365   0.041289   0.003761  -0.021242  -0.057359
     99       0.000959   0.040216  -0.001913  -0.020537  -0.010603   0.050533
    100       0.000138  -0.154710  -0.026899   0.039668   0.052502  -0.284130
    101       0.002155   0.069583   0.042409   0.083310  -0.001137  -0.232622
    102       0.000909  -0.014345  -0.010998  -0.029906   0.044844  -0.188562
    103      -0.000876  -0.141886  -0.025695   0.045722   0.043313  -0.248401
    104       0.001393  -0.032144   0.049042  -0.071871  -0.047386   0.089444
    105       0.000257  -0.123616   0.038580   0.091350  -0.012433   0.004240
    106       0.002059   0.114019   0.031962   0.017649  -0.032335   0.045063
    107      -0.000449  -0.027903  -0.043987  -0.033794  -0.134118   0.028785
    108       0.001003  -0.123260   0.181508   0.063699   0.171088  -0.020281
    109      -0.000540   0.143785  -0.063420   0.053080  -0.018862   0.045126
    110       0.000301  -0.025132  -0.111341  -0.019099  -0.207253   0.038761
    111       0.000365  -0.102925  -0.065001   0.093217  -0.136782   0.027721
    112      -0.001257   0.136035   0.082678  -0.040481  -0.041007   0.058957
    113      -0.000286  -0.019670  -0.187953   0.005243  -0.262613   0.045297
    114       0.001298  -0.183332   0.012068   0.150098  -0.075274  -0.007120
    115       0.001657   0.101972   0.063405   0.008530  -0.037499   0.044726
    116      -0.000638  -0.047186   0.110759  -0.108919  -0.121117   0.032771
    117       0.001105  -0.204088   0.023014   0.165978  -0.072933  -0.014144
    118       0.003039   0.139109   0.051241  -0.018851  -0.024293   0.054460
    119      -0.000686  -0.054610   0.062464  -0.110453  -0.243199   0.050279
    120      -0.000324  -0.200503   0.083234   0.148984   0.004140  -0.022922
    121       0.000097   0.083439   0.007187   0.063200  -0.041847   0.033937
    122      -0.000323  -0.052451   0.223132  -0.147291  -0.035420   0.023669
    123      -0.000407  -0.188566  -0.088654   0.178162  -0.203417   0.007714
    124       0.000264   0.074630   0.154860  -0.025448  -0.050092   0.045510
    125      -0.000772  -0.048663   0.159856  -0.123639  -0.074792   0.027324
    126      -0.000376  -0.022083  -0.044781  -0.056839   0.048128   0.055524
    127      -0.000274  -0.269942  -0.016572  -0.116211   0.018410  -0.056595
    128       0.000110   0.020005   0.062011   0.001709  -0.039863  -0.099468
    129      -0.000218  -0.022941  -0.039060  -0.054926   0.047093   0.017011
    130       0.000727  -0.285797  -0.022734  -0.108252   0.046261  -0.182926
    131       0.000720   0.026130   0.083805   0.003069  -0.059071  -0.150400
    132       0.000074  -0.058191  -0.060098  -0.078951   0.075041   0.026954
    133       0.000455  -0.288936  -0.011596  -0.154065  -0.000206   0.044924
    134       0.000794  -0.026486   0.060916  -0.064152  -0.051914   0.029860
    135      -0.001039  -0.003550  -0.053950  -0.051980   0.039542   0.174761
    136       0.000191  -0.301603  -0.012497  -0.162690   0.005495   0.023562
    137      -0.000550   0.063102   0.056489   0.064985  -0.022291  -0.208813
                 12         13         14         15         16         17    
      0       0.004702   0.024644  -0.028013   0.013189  -0.008774  -0.026716
      1      -0.089039  -0.132962  -0.063524  -0.013716   0.023883  -0.024139
      2      -0.001614   0.079465   0.022437   0.005241  -0.004869   0.017312
      3       0.013675   0.012396  -0.032799   0.013770  -0.007211  -0.031289
      4      -0.118612  -0.137308  -0.028293  -0.008386  -0.013908  -0.003792
      5       0.033256   0.032654   0.001757   0.007499   0.002980  -0.003784
      6      -0.008854   0.035470  -0.026169   0.009570  -0.004618  -0.020429
      7      -0.018866   0.008346   0.021931   0.013149  -0.036577   0.007246
      8       0.028252  -0.037521  -0.019978   0.005393   0.007550  -0.018579
      9      -0.043044   0.072226  -0.015795   0.005994  -0.004085  -0.008129
     10       0.111023   0.156800   0.048148   0.029612  -0.032980   0.012888
     11      -0.009219  -0.057262  -0.022512   0.001010   0.006857  -0.015523
     12      -0.052326   0.085340  -0.011118   0.005140  -0.005490  -0.002686
     13       0.139159   0.171807   0.016513   0.026611   0.001891  -0.005660
     14      -0.044208  -0.014534  -0.002871  -0.002412  -0.000235   0.005155
     15      -0.028773   0.060671  -0.017467   0.008951  -0.007939  -0.012716
     16       0.040287   0.026690  -0.043172   0.005024   0.034824  -0.029760
     17      -0.040709   0.052424   0.020599  -0.000275  -0.007028   0.022407
     18       0.039641  -0.015603  -0.041133   0.017966  -0.007984  -0.043822
     19      -0.217567  -0.252020  -0.043039  -0.019706  -0.019128  -0.003274
     20       0.063006   0.051517   0.002859   0.011411   0.003936  -0.007306
     21      -0.065017   0.088886  -0.011159   0.001367  -0.002491  -0.000051
     22       0.187207   0.248913   0.090020   0.044732  -0.049994   0.024683
     23      -0.004552  -0.096959  -0.037266   0.001965   0.009357  -0.026554
     24      -0.035612   0.069773  -0.013366   0.008389  -0.009341  -0.008479
     25       0.063955   0.036359  -0.071435   0.003057   0.067553  -0.050982
     26      -0.067257   0.084875   0.037223  -0.002490  -0.013910   0.039084
     27      -0.000681   0.032292  -0.014485   0.008671  -0.000037  -0.026432
     28      -0.001715   0.008039  -0.044527   0.012566  -0.020515  -0.025355
     29       0.039039  -0.105644  -0.049634   0.000688  -0.003517  -0.007856
     30       0.022302  -0.087188   0.147717  -0.034742  -0.014624   0.214761
     31      -0.013660   0.037874   0.002349  -0.051619  -0.014979  -0.021235
     32      -0.034748   0.049674   0.052103   0.054163   0.016532  -0.115361
     33       0.001680   0.036796  -0.030009   0.016714   0.006066  -0.028491
     34       0.031702   0.025707  -0.099504   0.054119   0.019684  -0.032496
     35       0.022656  -0.096310  -0.059251  -0.002505  -0.012481  -0.005959
     36       0.019710   0.033626  -0.006986  -0.010036  -0.048002  -0.054343
     37       0.113332   0.019477  -0.130418   0.059100  -0.005356  -0.067371
     38       0.144979  -0.106263  -0.086861  -0.011846  -0.080396  -0.070215
     39      -0.001140   0.060445  -0.057467   0.041536   0.040030  -0.020997
     40       0.126009   0.010995  -0.123026   0.047814  -0.028145  -0.078453
     41      -0.106942  -0.074645  -0.026353   0.008004   0.054332   0.057269
     42      -0.006946  -0.024022   0.116027  -0.010958   0.018532   0.024760
     43       0.005756  -0.019730  -0.057856  -0.050762  -0.015483  -0.004535
     44       0.008197  -0.046531  -0.009452   0.040074  -0.005590  -0.013052
     45       0.001694  -0.071924   0.183037  -0.013961   0.036327   0.071949
     46       0.009749  -0.029078  -0.042227  -0.035748  -0.019776  -0.004021
     47      -0.027526   0.042170   0.039605   0.049116  -0.003674  -0.053919
     48      -0.011383  -0.045767  -0.044549  -0.037129  -0.044223   0.051482
     49      -0.077103   0.064212   0.128225   0.081718  -0.012325  -0.010210
     50       0.004954  -0.040347   0.074564   0.066948   0.025686  -0.032716
     51       0.000084  -0.073123   0.170726  -0.000075   0.049039   0.036964
     52       0.010770  -0.034632  -0.017551  -0.057710  -0.031991   0.032580
     53      -0.007015   0.076529   0.031619  -0.020348  -0.070345   0.166467
     54      -0.018350  -0.079458   0.143326  -0.023574   0.138374  -0.142867
     55       0.008679  -0.068194   0.057389   0.063910  -0.090252   0.055379
     56       0.000091   0.074852   0.051278   0.003930  -0.112642   0.239967
     57       0.013877  -0.071022   0.204070   0.005979  -0.014513   0.177603
     58       0.011852  -0.016247  -0.036355  -0.158276   0.007483   0.050056
     59       0.006703   0.066108   0.078135   0.051374  -0.159666   0.297020
     60      -0.004257   0.017937  -0.031502   0.007049  -0.005840  -0.018332
     61      -0.033715   0.022488   0.028666   0.031619  -0.032370  -0.025306
     62       0.044366  -0.085668  -0.040040   0.000702   0.005549  -0.015478
     63       0.000330   0.003861  -0.057644   0.012825  -0.002128  -0.029113
     64      -0.060286   0.066528   0.068651   0.062856  -0.015962  -0.053916
     65       0.065898  -0.121436  -0.077120  -0.020726  -0.005930   0.004326
     66      -0.006762  -0.050867  -0.022601  -0.022359  -0.037872   0.072369
     67      -0.066363   0.085938   0.077539   0.066551  -0.009501  -0.059353
     68      -0.001606  -0.031755   0.039565   0.043815   0.015664  -0.065976
     69      -0.015840  -0.063621   0.198871   0.013678   0.079071  -0.055150
     70       0.029075  -0.090247  -0.058171  -0.003201  -0.010311  -0.008200
     71      -0.055339   0.081220   0.064653   0.060000   0.036730  -0.183999
     72      -0.004650   0.000636  -0.049462   0.017388   0.028511  -0.013527
     73      -0.142301   0.067139  -0.075624   0.089141   0.145847   0.065351
     74      -0.004403  -0.060054  -0.040171   0.003394  -0.006537  -0.001424
     75      -0.111779   0.028319  -0.103293   0.021141   0.014839  -0.033730
     76      -0.287832   0.118290  -0.077918   0.105133   0.190333   0.096158
     77       0.184593  -0.126943  -0.040025  -0.018187  -0.068257  -0.044642
     78       0.073798  -0.066800  -0.036139   0.010022   0.050694   0.015349
     79      -0.309443   0.133226  -0.088968   0.106061   0.179405   0.083577
     80      -0.194790  -0.007819  -0.051089   0.023323   0.056820   0.043676
     81       0.009495  -0.059359   0.104853   0.027892   0.013000   0.031513
     82       0.012418  -0.026757  -0.046275  -0.096879  -0.014759   0.021403
     83      -0.006765   0.113317  -0.065119  -0.205234   0.032010   0.111857
     84      -0.010436  -0.001161  -0.025685  -0.049555  -0.016578   0.118905
     85       0.009141  -0.011522  -0.080725  -0.036571  -0.086717   0.072919
     86      -0.026028   0.165383  -0.182487  -0.323849   0.045015   0.172930
     87       0.039379  -0.121960   0.225150   0.130779   0.030999  -0.087283
     88       0.018855  -0.006401  -0.131495  -0.201258   0.041552  -0.034305
     89      -0.018315   0.140307  -0.121892  -0.255721   0.029547   0.154248
     90       0.023850   0.004952  -0.032233   0.015990  -0.010846  -0.033993
     91      -0.166241  -0.250012  -0.106602  -0.030846   0.046470  -0.038515
     92       0.002089   0.135244   0.039804   0.007699  -0.009617   0.029125
     93      -0.077557   0.114356  -0.002312   0.001671  -0.005098   0.009911
     94       0.238668   0.291571   0.036480   0.041025   0.007083  -0.005219
     95      -0.072374  -0.032594  -0.004776  -0.006525  -0.001225   0.008439
     96       0.031284   0.001477  -0.025031   0.016863   0.030031  -0.011362
     97       0.106032  -0.048151  -0.016147   0.063221   0.135918   0.081486
     98      -0.036126   0.020664   0.014005   0.018444   0.006727  -0.000331
     99      -0.063422   0.076929  -0.052889   0.071213   0.109965   0.017165
    100       0.262283  -0.118426  -0.025928   0.097774   0.221187   0.133151
    101       0.127383  -0.032862  -0.016683   0.100776   0.176890   0.090628
    102       0.142535  -0.019282   0.045800  -0.005652   0.000597  -0.017498
    103       0.233239  -0.104638  -0.046489   0.116108   0.250235   0.144766
    104      -0.201667   0.096293   0.060317  -0.055126  -0.151352  -0.087237
    105       0.007919  -0.025509   0.007163   0.005056  -0.018783   0.046131
    106       0.010391  -0.073972   0.097317  -0.072328   0.027251   0.023964
    107       0.038033   0.027588   0.068298  -0.127682   0.112512  -0.111501
    108      -0.019659   0.005445  -0.111595   0.049954  -0.143227   0.251485
    109      -0.002083  -0.034536   0.189474  -0.239642   0.152327  -0.019717
    110       0.047992   0.018753   0.125315  -0.161569   0.174767  -0.199056
    111       0.026175  -0.066792   0.143003  -0.007581   0.078202  -0.088377
    112       0.017655  -0.141738   0.149654   0.077492  -0.030618   0.064546
    113       0.053054   0.026040   0.181637  -0.235945   0.253589  -0.282003
[...]
  13:        89.26    0.000000  (  0.000000   0.000000   0.000000)
  14:        92.07    0.000000  (  0.000000   0.000000   0.000000)
  15:       111.45    0.000000  (  0.000000   0.000000   0.000000)
  16:       118.90    0.000000  (  0.000000   0.000000   0.000000)
  17:       127.10    0.000000  (  0.000000   0.000000   0.000000)
  18:       142.17    0.000000  (  0.000000   0.000000   0.000000)
  19:       166.16    0.000000  (  0.000000   0.000000   0.000000)
  20:       180.60    0.000000  (  0.000000   0.000000   0.000000)
  21:       204.57    0.000000  (  0.000000   0.000000   0.000000)
  22:       233.50    0.000000  (  0.000000   0.000000   0.000000)
  23:       252.38    0.000000  (  0.000000   0.000000   0.000000)
  24:       271.68    0.000000  (  0.000000   0.000000   0.000000)
  25:       274.71    0.000000  (  0.000000   0.000000   0.000000)
  26:       284.50    0.000000  (  0.000000   0.000000   0.000000)
  27:       289.04    0.000000  (  0.000000   0.000000   0.000000)
  28:       341.36    0.000000  (  0.000000   0.000000   0.000000)
  29:       365.28    0.000000  (  0.000000   0.000000   0.000000)
  30:       384.30    0.000000  (  0.000000   0.000000   0.000000)
  31:       394.00    0.000000  (  0.000000   0.000000   0.000000)
  32:       419.34    0.000000  (  0.000000   0.000000   0.000000)
  33:       426.82    0.000000  (  0.000000   0.000000   0.000000)
  34:       457.55    0.000000  (  0.000000   0.000000   0.000000)
  35:       483.59    0.000000  (  0.000000   0.000000   0.000000)
  36:       534.29    0.000000  (  0.000000   0.000000   0.000000)
  37:       555.49    0.000000  (  0.000000   0.000000   0.000000)
  38:       590.93    0.000000  (  0.000000   0.000000   0.000000)
  39:       630.05    0.000000  (  0.000000   0.000000   0.000000)
  40:       677.33    0.000000  (  0.000000   0.000000   0.000000)
  41:       761.95    0.000000  (  0.000000   0.000000   0.000000)
  42:       764.97    0.000000  (  0.000000   0.000000   0.000000)
  43:       770.61    0.000000  (  0.000000   0.000000   0.000000)
  44:       774.51    0.000000  (  0.000000   0.000000   0.000000)
  45:       822.32    0.000000  (  0.000000   0.000000   0.000000)
  46:       825.62    0.000000  (  0.000000   0.000000   0.000000)
  47:       841.24    0.000000  (  0.000000   0.000000   0.000000)
  48:       878.65    0.000000  (  0.000000   0.000000   0.000000)
  49:       885.25    0.000000  (  0.000000   0.000000   0.000000)
  50:       909.53    0.000000  (  0.000000   0.000000   0.000000)
  51:       921.47    0.000000  (  0.000000   0.000000   0.000000)
  52:       933.72    0.000000  (  0.000000   0.000000   0.000000)
  53:       935.43    0.000000  (  0.000000   0.000000   0.000000)
  54:       943.58    0.000000  (  0.000000   0.000000   0.000000)
  55:       946.37    0.000000  (  0.000000   0.000000   0.000000)
  56:       949.63    0.000000  (  0.000000   0.000000   0.000000)
  57:       983.44    0.000000  (  0.000000   0.000000   0.000000)
  58:       993.42    0.000000  (  0.000000   0.000000   0.000000)
  59:      1029.95    0.000000  (  0.000000   0.000000   0.000000)
  60:      1052.23    0.000000  (  0.000000   0.000000   0.000000)
  61:      1057.31    0.000000  (  0.000000   0.000000   0.000000)
  62:      1068.38    0.000000  (  0.000000   0.000000   0.000000)
  63:      1082.58    0.000000  (  0.000000   0.000000   0.000000)
  64:      1090.15    0.000000  (  0.000000   0.000000   0.000000)
  65:      1099.87    0.000000  (  0.000000   0.000000   0.000000)
  66:      1109.20    0.000000  (  0.000000   0.000000   0.000000)
  67:      1110.77    0.000000  (  0.000000   0.000000   0.000000)
  68:      1115.24    0.000000  (  0.000000   0.000000   0.000000)
  69:      1131.18    0.000000  (  0.000000   0.000000   0.000000)
  70:      1134.74    0.000000  (  0.000000   0.000000   0.000000)
  71:      1162.65    0.000000  (  0.000000   0.000000   0.000000)
  72:      1176.33    0.000000  (  0.000000   0.000000   0.000000)
  73:      1183.87    0.000000  (  0.000000   0.000000   0.000000)
  74:      1196.02    0.000000  (  0.000000   0.000000   0.000000)
  75:      1207.88    0.000000  (  0.000000   0.000000   0.000000)
  76:      1216.19    0.000000  (  0.000000   0.000000   0.000000)
  77:      1239.08    0.000000  (  0.000000   0.000000   0.000000)
  78:      1258.06    0.000000  (  0.000000   0.000000   0.000000)
  79:      1268.85    0.000000  (  0.000000   0.000000   0.000000)
  80:      1270.68    0.000000  (  0.000000   0.000000   0.000000)
  81:      1275.43    0.000000  (  0.000000   0.000000   0.000000)
  82:      1276.02    0.000000  (  0.000000   0.000000   0.000000)
  83:      1278.06    0.000000  (  0.000000   0.000000   0.000000)
  84:      1282.12    0.000000  (  0.000000   0.000000   0.000000)
  85:      1284.79    0.000000  (  0.000000   0.000000   0.000000)
  86:      1307.72    0.000000  (  0.000000   0.000000   0.000000)
  87:      1330.06    0.000000  (  0.000000   0.000000   0.000000)
  88:      1341.42    0.000000  (  0.000000   0.000000   0.000000)
  89:      1369.62    0.000000  (  0.000000   0.000000   0.000000)
  90:      1373.35    0.000000  (  0.000000   0.000000   0.000000)
  91:      1391.97    0.000000  (  0.000000   0.000000   0.000000)
  92:      1409.29    0.000000  (  0.000000   0.000000   0.000000)
  93:      1428.17    0.000000  (  0.000000   0.000000   0.000000)
  94:      1429.68    0.000000  (  0.000000   0.000000   0.000000)
  95:      1435.13    0.000000  (  0.000000   0.000000   0.000000)
  96:      1460.80    0.000000  (  0.000000   0.000000   0.000000)
  97:      1466.00    0.000000  (  0.000000   0.000000   0.000000)
  98:      1477.13    0.000000  (  0.000000   0.000000   0.000000)
  99:      1497.42    0.000000  (  0.000000   0.000000   0.000000)
 100:      1502.33    0.000000  (  0.000000   0.000000   0.000000)
 101:      1504.45    0.000000  (  0.000000   0.000000   0.000000)
 102:      1506.47    0.000000  (  0.000000   0.000000   0.000000)
 103:      1507.39    0.000000  (  0.000000   0.000000   0.000000)
 104:      1507.91    0.000000  (  0.000000   0.000000   0.000000)
 105:      1509.40    0.000000  (  0.000000   0.000000   0.000000)
 106:      1509.95    0.000000  (  0.000000   0.000000   0.000000)
 107:      1513.23    0.000000  (  0.000000   0.000000   0.000000)
 108:      1550.21    0.000000  (  0.000000   0.000000   0.000000)
 109:      1564.76    0.000000  (  0.000000   0.000000   0.000000)
 110:      1573.77    0.000000  (  0.000000   0.000000   0.000000)
 111:      2824.09    0.000000  (  0.000000   0.000000   0.000000)
 112:      2870.63    0.000000  (  0.000000   0.000000   0.000000)
 113:      2891.22    0.000000  (  0.000000   0.000000   0.000000)
 114:      2931.54    0.000000  (  0.000000   0.000000   0.000000)
 115:      2939.20    0.000000  (  0.000000   0.000000   0.000000)
 116:      2942.11    0.000000  (  0.000000   0.000000   0.000000)
 117:      2944.65    0.000000  (  0.000000   0.000000   0.000000)
 118:      2955.33    0.000000  (  0.000000   0.000000   0.000000)
 119:      2958.83    0.000000  (  0.000000   0.000000   0.000000)
 120:      2963.68    0.000000  (  0.000000   0.000000   0.000000)
 121:      2968.52    0.000000  (  0.000000   0.000000   0.000000)
 122:      2972.67    0.000000  (  0.000000   0.000000   0.000000)
 123:      2978.50    0.000000  (  0.000000   0.000000   0.000000)
 124:      2982.44    0.000000  (  0.000000   0.000000   0.000000)
 125:      2983.73    0.000000  (  0.000000   0.000000   0.000000)
 126:      2988.93    0.000000  (  0.000000   0.000000   0.000000)
 127:      2996.61    0.000000  (  0.000000   0.000000   0.000000)
 128:      3001.44    0.000000  (  0.000000   0.000000   0.000000)
 129:      3009.47    0.000000  (  0.000000   0.000000   0.000000)
 130:      3023.45    0.000000  (  0.000000   0.000000   0.000000)
 131:      3042.22    0.000000  (  0.000000   0.000000   0.000000)
 132:      3051.15    0.000000  (  0.000000   0.000000   0.000000)
 133:      3055.73    0.000000  (  0.000000   0.000000   0.000000)
 134:      3067.27    0.000000  (  0.000000   0.000000   0.000000)
 135:      3079.73    0.000000  (  0.000000   0.000000   0.000000)
 136:      3398.92    0.000000  (  0.000000   0.000000   0.000000)
 137:      3590.15    0.000000  (  0.000000   0.000000   0.000000)

The first frequency considered to be a vibration is 7
The total number of vibrations considered is 131


--------------------------
THERMOCHEMISTRY AT 298.15K
--------------------------

Temperature         ... 298.15 K
Pressure            ... 1.00 atm
Total Mass          ... 252.40 AMU

Throughout the following assumptions are being made:
  (1) The electronic state is orbitally nondegenerate
  (2) There are no thermally accessible electronically excited states
  (3) Hindered rotations indicated by low frequency modes are not
      treated as such but are treated as vibrations and this may
      cause some error
  (4) All equations used are the standard statistical mechanics
      equations for an ideal gas
  (5) All vibrations are strictly harmonic

freq.      27.02  E(vib)   ...       0.55 
freq.      36.20  E(vib)   ...       0.54 
freq.      44.71  E(vib)   ...       0.53 
freq.      59.60  E(vib)   ...       0.51 
freq.      67.35  E(vib)   ...       0.50 
freq.      72.39  E(vib)   ...       0.50 
freq.      89.26  E(vib)   ...       0.47 
freq.      92.07  E(vib)   ...       0.47 
freq.     111.45  E(vib)   ...       0.45 
freq.     118.90  E(vib)   ...       0.44 
freq.     127.10  E(vib)   ...       0.43 
freq.     142.17  E(vib)   ...       0.41 
freq.     166.16  E(vib)   ...       0.39 
freq.     180.60  E(vib)   ...       0.37 
freq.     204.57  E(vib)   ...       0.35 
freq.     233.50  E(vib)   ...       0.32 
freq.     252.38  E(vib)   ...       0.30 
freq.     271.68  E(vib)   ...       0.29 
freq.     274.71  E(vib)   ...       0.28 
freq.     284.50  E(vib)   ...       0.28 
freq.     289.04  E(vib)   ...       0.27 
freq.     341.36  E(vib)   ...       0.23 
freq.     365.28  E(vib)   ...       0.22 
freq.     384.30  E(vib)   ...       0.20 
freq.     394.00  E(vib)   ...       0.20 
freq.     419.34  E(vib)   ...       0.18 
freq.     426.82  E(vib)   ...       0.18 
freq.     457.55  E(vib)   ...       0.16 
freq.     483.59  E(vib)   ...       0.15 
freq.     534.29  E(vib)   ...       0.13 
freq.     555.49  E(vib)   ...       0.12 
freq.     590.93  E(vib)   ...       0.10 
freq.     630.05  E(vib)   ...       0.09 
freq.     677.33  E(vib)   ...       0.08 
freq.     761.95  E(vib)   ...       0.06 
freq.     764.97  E(vib)   ...       0.06 
freq.     770.61  E(vib)   ...       0.05 
freq.     774.51  E(vib)   ...       0.05 
freq.     822.32  E(vib)   ...       0.05 
freq.     825.62  E(vib)   ...       0.04 
freq.     841.24  E(vib)   ...       0.04 
freq.     878.65  E(vib)   ...       0.04 
freq.     885.25  E(vib)   ...       0.04 
freq.     909.53  E(vib)   ...       0.03 
freq.     921.47  E(vib)   ...       0.03 
freq.     933.72  E(vib)   ...       0.03 
freq.     935.43  E(vib)   ...       0.03 
freq.     943.58  E(vib)   ...       0.03 
freq.     946.37  E(vib)   ...       0.03 
freq.     949.63  E(vib)   ...       0.03 
freq.     983.44  E(vib)   ...       0.02 
freq.     993.42  E(vib)   ...       0.02 
freq.    1029.95  E(vib)   ...       0.02 
freq.    1052.23  E(vib)   ...       0.02 
freq.    1057.31  E(vib)   ...       0.02 
freq.    1068.38  E(vib)   ...       0.02 
freq.    1082.58  E(vib)   ...       0.02 
freq.    1090.15  E(vib)   ...       0.02 
freq.    1099.87  E(vib)   ...       0.02 
freq.    1109.20  E(vib)   ...       0.02 
freq.    1110.77  E(vib)   ...       0.01 
freq.    1115.24  E(vib)   ...       0.01 
freq.    1131.18  E(vib)   ...       0.01 
freq.    1134.74  E(vib)   ...       0.01 
freq.    1162.65  E(vib)   ...       0.01 
freq.    1176.33  E(vib)   ...       0.01 
freq.    1183.87  E(vib)   ...       0.01 
freq.    1196.02  E(vib)   ...       0.01 
freq.    1207.88  E(vib)   ...       0.01 
freq.    1216.19  E(vib)   ...       0.01 
freq.    1239.08  E(vib)   ...       0.01 
freq.    1258.06  E(vib)   ...       0.01 
freq.    1268.85  E(vib)   ...       0.01 
freq.    1270.68  E(vib)   ...       0.01 
freq.    1275.43  E(vib)   ...       0.01 
freq.    1276.02  E(vib)   ...       0.01 
freq.    1278.06  E(vib)   ...       0.01 
freq.    1282.12  E(vib)   ...       0.01 
freq.    1284.79  E(vib)   ...       0.01 
freq.    1307.72  E(vib)   ...       0.01 
freq.    1330.06  E(vib)   ...       0.01 
freq.    1341.42  E(vib)   ...       0.01 
freq.    1369.62  E(vib)   ...       0.01 
freq.    1373.35  E(vib)   ...       0.01 
freq.    1391.97  E(vib)   ...       0.00 
freq.    1409.29  E(vib)   ...       0.00 
freq.    1428.17  E(vib)   ...       0.00 
freq.    1429.68  E(vib)   ...       0.00 
freq.    1435.13  E(vib)   ...       0.00 
freq.    1460.80  E(vib)   ...       0.00 
freq.    1466.00  E(vib)   ...       0.00 
freq.    1477.13  E(vib)   ...       0.00 
freq.    1497.42  E(vib)   ...       0.00 
freq.    1502.33  E(vib)   ...       0.00 
freq.    1504.45  E(vib)   ...       0.00 
freq.    1506.47  E(vib)   ...       0.00 
freq.    1507.39  E(vib)   ...       0.00 
freq.    1507.91  E(vib)   ...       0.00 
freq.    1509.40  E(vib)   ...       0.00 
freq.    1509.95  E(vib)   ...       0.00 
freq.    1513.23  E(vib)   ...       0.00 
freq.    1550.21  E(vib)   ...       0.00 
freq.    1564.76  E(vib)   ...       0.00 
freq.    1573.77  E(vib)   ...       0.00 
freq.    2824.09  E(vib)   ...       0.00 
freq.    2870.63  E(vib)   ...       0.00 
freq.    2891.22  E(vib)   ...       0.00 
freq.    2931.54  E(vib)   ...       0.00 
freq.    2939.20  E(vib)   ...       0.00 
freq.    2942.11  E(vib)   ...       0.00 
freq.    2944.65  E(vib)   ...       0.00 
freq.    2955.33  E(vib)   ...       0.00 
freq.    2958.83  E(vib)   ...       0.00 
freq.    2963.68  E(vib)   ...       0.00 
freq.    2968.52  E(vib)   ...       0.00 
freq.    2972.67  E(vib)   ...       0.00 
freq.    2978.50  E(vib)   ...       0.00 
freq.    2982.44  E(vib)   ...       0.00 
freq.    2983.73  E(vib)   ...       0.00 
freq.    2988.93  E(vib)   ...       0.00 
freq.    2996.61  E(vib)   ...       0.00 
freq.    3001.44  E(vib)   ...       0.00 
freq.    3009.47  E(vib)   ...       0.00 
freq.    3023.45  E(vib)   ...       0.00 
freq.    3042.22  E(vib)   ...       0.00 
freq.    3051.15  E(vib)   ...       0.00 
freq.    3055.73  E(vib)   ...       0.00 
freq.    3067.27  E(vib)   ...       0.00 
freq.    3079.73  E(vib)   ...       0.00 
freq.    3398.92  E(vib)   ...       0.00 
freq.    3590.15  E(vib)   ...       0.00 

------------
INNER ENERGY
------------

The inner energy is: U= E(el) + E(ZPE) + E(vib) + E(rot) + E(trans)
    E(el)   - is the total energy from the electronic structure calculation
              = E(kin-el) + E(nuc-el) + E(el-el) + E(nuc-nuc)
    E(ZPE)  - the the zero temperature vibrational energy from the frequency calculation
    E(vib)  - the the finite temperature correction to E(ZPE) due to population
              of excited vibrational states
    E(rot)  - is the rotational thermal energy
    E(trans)- is the translational thermal energy

Summary of contributions to the inner energy U:
Electronic energy                ...    -56.26046955 Eh
Zero point energy                ...      0.39818928 Eh     249.87 kcal/mol
Thermal vibrational correction   ...      0.01880946 Eh      11.80 kcal/mol
Thermal rotational correction    ...      0.00141627 Eh       0.89 kcal/mol
Thermal translational correction ...      0.00141627 Eh       0.89 kcal/mol
-----------------------------------------------------------------------
Total thermal energy                    -55.84063826 Eh


Summary of corrections to the electronic energy:
(perhaps to be used in another calculation)
Total thermal correction                  0.02164201 Eh      13.58 kcal/mol
Non-thermal (ZPE) correction              0.39818928 Eh     249.87 kcal/mol
-----------------------------------------------------------------------
Total correction                          0.41983129 Eh     263.45 kcal/mol


--------
ENTHALPY
--------

The enthalpy is H = U + kB*T
                kB is Boltzmann's constant
Total free energy                 ...    -55.84063826 Eh 
Thermal Enthalpy correction       ...      0.00094421 Eh       0.59 kcal/mol
-----------------------------------------------------------------------
Total Enthalpy                    ...    -55.83969405 Eh


Note: Only C1 symmetry has been detected, increase convergence thresholds 
      if your molecule has a higher symmetry. Symmetry factor of 1.0 is   
      used for the rotational entropy correction. 
 

Note: Rotational entropy computed according to Herzberg 
Infrared and Raman Spectra, Chapter V,1, Van Nostrand Reinhold, 1945 
Point Group:  C1, Symmetry Number:   1  
Rotational constants in cm-1:     0.011756     0.006976     0.004893 

Vibrational entropy computed according to the QRRHO of S. Grimme
Chem.Eur.J. 2012 18 9955


-------
ENTROPY
-------

The entropy contributions are T*S = T*(S(el)+S(vib)+S(rot)+S(trans))
     S(el)   - electronic entropy
     S(vib)  - vibrational entropy
     S(rot)  - rotational entropy
     S(trans)- translational entropy
The entropies will be listed as mutliplied by the temperature to get
units of energy

Electronic entropy                ...      0.00000000 Eh      0.00 kcal/mol
Vibrational entropy               ...      0.03381281 Eh     21.22 kcal/mol
Rotational entropy                ...      0.01646407 Eh     10.33 kcal/mol
Translational entropy             ...      0.02018250 Eh     12.66 kcal/mol
-----------------------------------------------------------------------
Final entropy term                ...      0.07045938 Eh     44.21 kcal/mol

In case the symmetry of your molecule has not been determined correctly
or in case you have a reason to use a different symmetry number we print 
out the resulting rotational entropy values for sn=1,12 :
 --------------------------------------------------------
|  sn= 1 | S(rot)=       0.01646407 Eh     10.33 kcal/mol|
|  sn= 2 | S(rot)=       0.01580961 Eh      9.92 kcal/mol|
|  sn= 3 | S(rot)=       0.01542678 Eh      9.68 kcal/mol|
|  sn= 4 | S(rot)=       0.01515515 Eh      9.51 kcal/mol|
|  sn= 5 | S(rot)=       0.01494447 Eh      9.38 kcal/mol|
|  sn= 6 | S(rot)=       0.01477232 Eh      9.27 kcal/mol|
|  sn= 7 | S(rot)=       0.01462678 Eh      9.18 kcal/mol|
|  sn= 8 | S(rot)=       0.01450070 Eh      9.10 kcal/mol|
|  sn= 9 | S(rot)=       0.01438949 Eh      9.03 kcal/mol|
|  sn=10 | S(rot)=       0.01429001 Eh      8.97 kcal/mol|
|  sn=11 | S(rot)=       0.01420002 Eh      8.91 kcal/mol|
|  sn=12 | S(rot)=       0.01411787 Eh      8.86 kcal/mol|
 --------------------------------------------------------


-------------------
GIBBS FREE ENERGY
-------------------

The Gibbs free energy is G = H - T*S

Total enthalpy                    ...    -55.83969405 Eh 
Total entropy correction          ...     -0.07045938 Eh    -44.21 kcal/mol
-----------------------------------------------------------------------
Final Gibbs free energy         ...    -55.91015344 Eh

For completeness - the Gibbs free energy minus the electronic energy
G-E(el)                           ...      0.35031612 Eh    219.83 kcal/mol


Total Time for Numerical Frequencies  :       171.576 sec
Time for Reference State(s)           :         0.225 sec
Time for Displacements                :       155.408 sec

Timings for individual modules:

Sum of individual times         ...        0.414 sec (=   0.007 min)
XTB module                      ...        0.414 sec (=   0.007 min) 100.0 %
                             ****ORCA TERMINATED NORMALLY****
TOTAL RUN TIME: 0 days 0 hours 2 minutes 52 seconds 743 msec
(SLURM) EXECUTION TIME: 172.768375635 seconds.
