
                                 *****************
                                 * O   R   C   A *
                                 *****************

           --- An Ab Initio, DFT and Semiempirical electronic structure package ---

                  #######################################################
                  #                        -***-                        #
                  #          Department of theory and spectroscopy      #
                  #               Directorship: Frank Neese             #
                  #        Max Planck Institute fuer Kohlenforschung    #
                  #                Kaiser Wilhelm Platz 1               #
                  #                 D-45470 Muelheim/Ruhr               #
                  #                      Germany                        #
                  #                                                     #
                  #                  All rights reserved                #
                  #                        -***-                        #
                  #######################################################


                         Program Version 4.2.1 -  RELEASE  -


 With contributions from (in alphabetic order):
   Daniel Aravena         : Magnetic Suceptibility
   Michael Atanasov       : Ab Initio Ligand Field Theory (pilot matlab implementation)
   Alexander A. Auer      : GIAO ZORA, VPT2
   Ute Becker             : Parallelization
   Giovanni Bistoni       : ED, misc. LED, open-shell LED, HFLD
   Martin Brehm           : Molecular dynamics
   Dmytro Bykov           : SCF Hessian
   Vijay G. Chilkuri      : MRCI spin determinant printing, contributions to CSF-ICE
   Dipayan Datta          : RHF DLPNO-CCSD density
   Achintya Kumar Dutta   : EOM-CC, STEOM-CC
   Dmitry Ganyushin       : Spin-Orbit,Spin-Spin,Magnetic field MRCI
   Miquel Garcia          : C-PCM Hessian, Gaussian charge scheme
   Yang Guo               : DLPNO-NEVPT2, CIM, IAO-localization
   Andreas Hansen         : Spin unrestricted coupled pair/coupled cluster methods
   Benjamin Helmich-Paris : CASSCF linear response (MC-RPA)
   Lee Huntington         : MR-EOM, pCC
   Robert Izsak           : Overlap fitted RIJCOSX, COSX-SCS-MP3, EOM
   Christian Kollmar      : KDIIS, OOCD, Brueckner-CCSD(T), CCSD density
   Simone Kossmann        : Meta GGA functionals, TD-DFT gradient, OOMP2, MP2 Hessian
   Martin Krupicka        : AUTO-CI
   Lucas Lang             : DCDCAS
   Dagmar Lenk            : GEPOL surface, SMD
   Dimitrios Liakos       : Extrapolation schemes; Compound Job, initial MDCI parallelization
   Dimitrios Manganas     : Further ROCIS development; embedding schemes
   Dimitrios Pantazis     : SARC Basis sets
   Taras Petrenko         : DFT Hessian,TD-DFT gradient, ASA, ECA, R-Raman, ABS, FL, XAS/XES, NRVS
   Peter Pinski           : DLPNO-MP2, DLPNO-MP2 Gradient
   Christoph Reimann      : Effective Core Potentials
   Marius Retegan         : Local ZFS, SOC
   Christoph Riplinger    : Optimizer, TS searches, QM/MM, DLPNO-CCSD(T), (RO)-DLPNO pert. Triples
   Tobias Risthaus        : Range-separated hybrids, TD-DFT gradient, RPA, STAB
   Michael Roemelt        : Original ROCIS implementation
   Masaaki Saitow         : Open-shell DLPNO-CCSD energy and density
   Barbara Sandhoefer     : DKH picture change effects
   Avijit Sen             : IP-ROCIS
   Kantharuban Sivalingam : CASSCF convergence, NEVPT2, FIC-MRCI
   Bernardo de Souza      : ESD, SOC TD-DFT
   Georgi Stoychev        : AutoAux, RI-MP2 NMR
   Willem Van den Heuvel  : Paramagnetic NMR
   Boris Wezisla          : Elementary symmetry handling
   Frank Wennmohs         : Technical directorship


 We gratefully acknowledge several colleagues who have allowed us to
 interface, adapt or use parts of their codes:
   Stefan Grimme, W. Hujo, H. Kruse,             : VdW corrections, initial TS optimization,
                  C. Bannwarth                     DFT functionals, gCP, sTDA/sTD-DF
   Ed Valeev, F. Pavosevic, A. Kumar             : LibInt (2-el integral package), F12 methods
   Garnet Chan, S. Sharma, J. Yang, R. Olivares  : DMRG
   Ulf Ekstrom                                   : XCFun DFT Library
   Mihaly Kallay                                 : mrcc  (arbitrary order and MRCC methods)
   Andreas Klamt, Michael Diedenhofen            : otool_cosmo (COSMO solvation model)
   Jiri Pittner, Ondrej Demel                    : Mk-CCSD
   Frank Weinhold                                : gennbo (NPA and NBO analysis)
   Christopher J. Cramer and Donald G. Truhlar   : smd solvation model
   Lars Goerigk                                  : TD-DFT with DH, B97 family of functionals
   V. Asgeirsson, H. Jonsson                     : NEB implementation
   FAccTs GmbH                                   : IRC, NEB, NEB-TS, Multilevel, MM, QM/MM, CI optimization
   S Lehtola, MJT Oliveira, MAL Marques          : LibXC Library


 Your calculation uses the libint2 library for the computation of 2-el integrals
 For citations please refer to: http://libint.valeyev.net

 Your ORCA version has been built with support for libXC version: 4.2.3
 For citations please refer to: https://tddft.org/programs/libxc/

 This ORCA versions uses:
   CBLAS   interface :  Fast vector & matrix operations
   LAPACKE interface :  Fast linear algebra routines
   SCALAPACK package :  Parallel linear algebra routines


----- Orbital basis set information -----
Your calculation utilizes the basis: 6-311G(d,p)
   H, Li - Ne  : R. Krishnan, J. S. Binkley, R. Seeger and J. A. Pople, J. Chem. Phys. 72, 650 (1980).
   Na - Ar     : A. D. McLean and G. S. Chandler J. Chem. Phys. 72, 5639, (1980).
   K  - Ca     : J.-P. Blaudeau, M. P. McGrath, L. A. Curtiss and L. Radom, J. Chem. Phys. 107, 5016 (1997).
   Ga - Kr     : L. A. Curtiss, M. P. McGrath, J.-P. Blandeau, N. E. Davis, R. C. Binning and L. Radom, J. Chem. Phys. 103, 6104 (1995).
   Pol./Diff.
   H, Li - Cl  : T. Clark, J. Chandrasekhar and P. v. R. Schleyer, J. Comp. Chem. 4, 294 (1983).
   H - Ne      : M. J. Frisch, J. A. Pople and J. S. Binkley, J. Chem. Phys. 80, 3265 (1984).

================================================================================
                                        WARNINGS
                       Please study these warnings very carefully!
================================================================================


WARNING: Geometry Optimization
  ===> : Switching off AutoStart
         For restart on a previous wavefunction, please use MOREAD

WARNING: Post HF methods need fully converged wavefunctions
  ===> : Setting SCFConvForced true
         You can overwrite this default with %scf ConvForced false 


INFO   : the flag for use of LIBINT has been found!

================================================================================
                                       INPUT FILE
================================================================================
NAME = eclipsed.inp
|  1> ! MP2 6-311G(d,p) Opt Freq TightOpt TightSCF NoFrozenCore
|  2> 
|  3> %pal
|  4>  nprocs 2
|  5> end
|  6> 
|  7> *xyz 0 1
|  8> C        0.000000000      0.000000000     -0.766336462
|  9> C        0.000000000      0.000000000      0.766336462
| 10> H       -0.504759430      0.874268978     -1.173606038
| 11> H       -0.504759430     -0.874268978     -1.173606038
| 12> H        1.009518860      0.000000000     -1.173606038
| 13> H       -0.504759430     -0.874268978      1.173606038
| 14> H       -0.504759430      0.874268978      1.173606038
| 15> H        1.009518860      0.000000000      1.173606038
| 16> *
| 17> 
| 18>                          ****END OF INPUT****
================================================================================

                       *****************************
                       * Geometry Optimization Run *
                       *****************************

Geometry optimization settings:
Update method            Update   .... BFGS
Choice of coordinates    CoordSys .... Z-matrix Internals
Initial Hessian          InHess   .... Almoef's Model

Convergence Tolerances:
Energy Change            TolE     ....  1.0000e-06 Eh
Max. Gradient            TolMAXG  ....  1.0000e-04 Eh/bohr
RMS Gradient             TolRMSG  ....  3.0000e-05 Eh/bohr
Max. Displacement        TolMAXD  ....  1.0000e-03 bohr
RMS Displacement         TolRMSD  ....  6.0000e-04 bohr
Strict Convergence                ....  False
------------------------------------------------------------------------------
                        ORCA OPTIMIZATION COORDINATE SETUP
------------------------------------------------------------------------------

The optimization will be done in new redundant internal coordinates
Making redundant internal coordinates   ...  (new redundants) done
Evaluating the initial hessian          ...  (Almloef) done
Evaluating the coordinates              ...  done
Calculating the B-matrix                .... done
Calculating the G-matrix                .... done
Diagonalizing the G-matrix              .... done
The first mode is                       ....   10
The number of degrees of freedom        ....   18

    -----------------------------------------------------------------
                    Redundant Internal Coordinates


    -----------------------------------------------------------------
         Definition                    Initial Value    Approx d2E/dq
    -----------------------------------------------------------------
      1. B(C   1,C   0)                  1.5327         0.369924   
      2. B(H   2,C   0)                  1.0886         0.361989   
      3. B(H   3,C   0)                  1.0886         0.361989   
      4. B(H   4,C   0)                  1.0886         0.361989   
      5. B(H   5,C   1)                  1.0886         0.361989   
      6. B(H   6,C   1)                  1.0886         0.361989   
      7. B(H   7,C   1)                  1.0886         0.361989   
      8. A(H   2,C   0,H   4)          106.8603         0.291318   
      9. A(C   1,C   0,H   4)          111.9706         0.324075   
     10. A(C   1,C   0,H   2)          111.9706         0.324075   
     11. A(H   3,C   0,H   4)          106.8603         0.291318   
     12. A(H   2,C   0,H   3)          106.8603         0.291318   
     13. A(C   1,C   0,H   3)          111.9706         0.324075   
     14. A(C   0,C   1,H   5)          111.9706         0.324075   
     15. A(H   6,C   1,H   7)          106.8603         0.291318   
     16. A(H   5,C   1,H   7)          106.8603         0.291318   
     17. A(C   0,C   1,H   7)          111.9706         0.324075   
     18. A(H   5,C   1,H   6)          106.8603         0.291318   
     19. A(C   0,C   1,H   6)          111.9706         0.324075   
     20. D(H   5,C   1,C   0,H   3)     -0.0000         0.010940   
     21. D(H   5,C   1,C   0,H   4)   -120.0000         0.010940   
     22. D(H   6,C   1,C   0,H   2)      0.0000         0.010940   
     23. D(H   6,C   1,C   0,H   3)   -120.0000         0.010940   
     24. D(H   6,C   1,C   0,H   4)    120.0000         0.010940   
     25. D(H   7,C   1,C   0,H   2)   -120.0000         0.010940   
     26. D(H   7,C   1,C   0,H   3)    120.0000         0.010940   
     27. D(H   7,C   1,C   0,H   4)      0.0000         0.010940   
     28. D(H   5,C   1,C   0,H   2)    120.0000         0.010940   
    -----------------------------------------------------------------

Number of atoms                         .... 8
Number of degrees of freedom            .... 28

         *************************************************************
         *                GEOMETRY OPTIMIZATION CYCLE   1            *
         *************************************************************
---------------------------------
CARTESIAN COORDINATES (ANGSTROEM)
---------------------------------
  C      0.000000    0.000000   -0.766336
  C      0.000000    0.000000    0.766336
  H     -0.504759    0.874269   -1.173606
  H     -0.504759   -0.874269   -1.173606
  H      1.009519    0.000000   -1.173606
  H     -0.504759   -0.874269    1.173606
  H     -0.504759    0.874269    1.173606
  H      1.009519    0.000000    1.173606

----------------------------
CARTESIAN COORDINATES (A.U.)
----------------------------
  NO LB      ZA    FRAG     MASS         X           Y           Z
   0 C     6.0000    0    12.011    0.000000    0.000000   -1.448166
   1 C     6.0000    0    12.011    0.000000    0.000000    1.448166
   2 H     1.0000    0     1.008   -0.953857    1.652129   -2.217794
   3 H     1.0000    0     1.008   -0.953857   -1.652129   -2.217794
   4 H     1.0000    0     1.008    1.907714    0.000000   -2.217794
   5 H     1.0000    0     1.008   -0.953857   -1.652129    2.217794
   6 H     1.0000    0     1.008   -0.953857    1.652129    2.217794
   7 H     1.0000    0     1.008    1.907714    0.000000    2.217794

--------------------------------
INTERNAL COORDINATES (ANGSTROEM)
--------------------------------
 C      0   0   0     0.000000000000     0.00000000     0.00000000
 C      1   0   0     1.532672924000     0.00000000     0.00000000
 H      1   2   0     1.088575599397   111.97059640     0.00000000
 H      1   2   3     1.088575599397   111.97059640   240.00000002
 H      1   2   3     1.088575599686   111.97059639   120.00000001
 H      2   1   3     1.088575599397   111.97059640   119.99999998
 H      2   1   3     1.088575599397   111.97059640     0.00000000
 H      2   1   3     1.088575599686   111.97059639   239.99999999

---------------------------
INTERNAL COORDINATES (A.U.)
---------------------------
 C      0   0   0     0.000000000000     0.00000000     0.00000000
 C      1   0   0     2.896332079236     0.00000000     0.00000000
 H      1   2   0     2.057109758929   111.97059640     0.00000000
 H      1   2   3     2.057109758929   111.97059640   240.00000002
 H      1   2   3     2.057109759475   111.97059639   120.00000001
 H      2   1   3     2.057109758929   111.97059640   119.99999998
 H      2   1   3     2.057109758929   111.97059640     0.00000000
 H      2   1   3     2.057109759475   111.97059639   239.99999999

---------------------
BASIS SET INFORMATION
---------------------
There are 2 groups of distinct atoms

 Group   1 Type C   : 11s5p1d contracted to 4s3p1d pattern {6311/311/1}
 Group   2 Type H   : 5s1p contracted to 3s1p pattern {311/1}

Atom   0C    basis set group =>   1
Atom   1C    basis set group =>   1
Atom   2H    basis set group =>   2
Atom   3H    basis set group =>   2
Atom   4H    basis set group =>   2
Atom   5H    basis set group =>   2
Atom   6H    basis set group =>   2
Atom   7H    basis set group =>   2


           ************************************************************
           *        Program running with 2 parallel MPI-processes     *
           *              working on a common directory               *
           ************************************************************
------------------------------------------------------------------------------
                           ORCA GTO INTEGRAL CALCULATION
------------------------------------------------------------------------------

                         BASIS SET STATISTICS AND STARTUP INFO

 # of primitive gaussian shells          ...   70
 # of primitive gaussian functions       ...  110
 # of contracted shells                  ...   40
 # of contracted basis functions         ...   72
 Highest angular momentum                ...    2
 Maximum contraction depth               ...    6
 Integral package used                   ... LIBINT
 Integral threshhold            Thresh   ...  2.500e-11
 Primitive cut-off              TCut     ...  2.500e-12


------------------------------ INTEGRAL EVALUATION ----------------------------


 * One electron integrals 
 Pre-screening matrix                    ... done
 Shell pair data                         ... done (   0.002 sec)



           ************************************************************
           *        Program running with 2 parallel MPI-processes     *
           *              working on a common directory               *
           ************************************************************
-------------------------------------------------------------------------------
                                 ORCA SCF
-------------------------------------------------------------------------------

------------
SCF SETTINGS
------------
Hamiltonian:
 Ab initio Hamiltonian  Method          .... Hartree-Fock(GTOs)


General Settings:
 Integral files         IntName         .... eclipsed
 Hartree-Fock type      HFTyp           .... RHF
 Total Charge           Charge          ....    0
 Multiplicity           Mult            ....    1
 Number of Electrons    NEL             ....   18
 Basis Dimension        Dim             ....   72
 Nuclear Repulsion      ENuc            ....     42.2179246195 Eh

Convergence Acceleration:
 DIIS                   CNVDIIS         .... on
   Start iteration      DIISMaxIt       ....    12
   Startup error        DIISStart       ....  0.200000
   # of expansion vecs  DIISMaxEq       ....     5
   Bias factor          DIISBfac        ....   1.050
   Max. coefficient     DIISMaxC        ....  10.000
 Newton-Raphson         CNVNR           .... off
 SOSCF                  CNVSOSCF        .... on
   Start iteration      SOSCFMaxIt      ....   150
   Startup grad/error   SOSCFStart      ....  0.003300
 Level Shifting         CNVShift        .... on
   Level shift para.    LevelShift      ....    0.2500
   Turn off err/grad.   ShiftErr        ....    0.0010
 Zerner damping         CNVZerner       .... off
 Static damping         CNVDamp         .... on
   Fraction old density DampFac         ....    0.7000
   Max. Damping (<1)    DampMax         ....    0.9800
   Min. Damping (>=0)   DampMin         ....    0.0000
   Turn off err/grad.   DampErr         ....    0.1000
 Fernandez-Rico         CNVRico         .... off

SCF Procedure:
 Maximum # iterations   MaxIter         ....   125
 SCF integral mode      SCFMode         .... Direct
   Integral package                     .... LIBINT
 Reset frequency        DirectResetFreq ....    20
 Integral Threshold     Thresh          ....  2.500e-11 Eh
 Primitive CutOff       TCut            ....  2.500e-12 Eh

Convergence Tolerance:
 Convergence Check Mode ConvCheckMode   .... Total+1el-Energy
 Convergence forced     ConvForced      .... 1
 Energy Change          TolE            ....  1.000e-08 Eh
 1-El. energy change                    ....  1.000e-05 Eh
 Orbital Gradient       TolG            ....  1.000e-05
 Orbital Rotation angle TolX            ....  1.000e-05
 DIIS Error             TolErr          ....  5.000e-07


Diagonalization of the overlap matrix:
Smallest eigenvalue                        ... 3.431e-03
Time for diagonalization                   ...    0.005 sec
Threshold for overlap eigenvalues          ... 1.000e-08
Number of eigenvalues below threshold      ... 0
Time for construction of square roots      ...    0.014 sec
Total time needed                          ...    0.019 sec

-------------------
DFT GRID GENERATION
-------------------

General Integration Accuracy     IntAcc      ...  4.340
Radial Grid Type                 RadialGrid  ... Gauss-Chebyshev
Angular Grid (max. acc.)         AngularGrid ... Lebedev-110
Angular grid pruning method      GridPruning ... 3 (G Style)
Weight generation scheme         WeightScheme... Becke
Basis function cutoff            BFCut       ...    1.0000e-11
Integration weight cutoff        WCut        ...    1.0000e-14
Grids for H and He will be reduced by one unit

# of grid points (after initial pruning)     ...   8076 (   0.0 sec)
# of grid points (after weights+screening)   ...   7746 (   0.0 sec)
nearest neighbour list constructed           ...    0.0 sec
Grid point re-assignment to atoms done       ...    0.0 sec
Grid point division into batches done        ...    0.0 sec
Reduced shell lists constructed in    0.0 sec

Total number of grid points                  ...     7746
Total number of batches                      ...      124
Average number of points per batch           ...       62
Average number of grid points per atom       ...      968
Average number of shells per batch           ...    35.30 (88.25%)
Average number of basis functions per batch  ...    64.10 (89.02%)
Average number of large shells per batch     ...    31.29 (88.62%)
Average number of large basis fcns per batch ...    57.16 (89.18%)
Maximum spatial batch extension              ...  18.49, 25.60, 18.13 au
Average spatial batch extension              ...   2.17,  2.31,  2.07 au

Time for grid setup =    0.063 sec

------------------------------
INITIAL GUESS: MODEL POTENTIAL
------------------------------
Loading Hartree-Fock densities                     ... done
Calculating cut-offs                               ... done
Setting up the integral package                    ... done
Initializing the effective Hamiltonian             ... done
Starting the Coulomb interaction                   ... done (   0.0 sec)
Reading the grid                                   ... done
Mapping shells                                     ... done
Starting the XC term evaluation                    ... done (   0.0 sec)
Transforming the Hamiltonian                       ... done (   0.0 sec)
Diagonalizing the Hamiltonian                      ... done (   0.0 sec)
Back transforming the eigenvectors                 ... done (   0.0 sec)
Now organizing SCF variables                       ... done
                      ------------------
                      INITIAL GUESS DONE (   0.2 sec)
                      ------------------
--------------
SCF ITERATIONS
--------------
ITER       Energy         Delta-E        Max-DP      RMS-DP      [F,P]     Damp
               ***  Starting incremental Fock matrix formation  ***
  0    -79.0777903401   0.000000000000 0.05336414  0.00182106  0.2703573 0.7000
  1    -79.1388606273  -0.061070287235 0.03683297  0.00140060  0.1743689 0.7000
                               ***Turning on DIIS***
  2    -79.1750966471  -0.036236019769 0.02104692  0.00088398  0.1036640 0.7000
  3    -79.4985912857  -0.323494638604 0.02579073  0.00158811  0.0607162 0.0000
  4    -79.2113276489   0.287263636805 0.00763096  0.00030698  0.0098406 0.0000
                      *** Initiating the SOSCF procedure ***
                           *** Shutting down DIIS ***
                      *** Re-Reading the Fockian *** 
                      *** Removing any level shift *** 
ITER      Energy       Delta-E        Grad      Rot      Max-DP    RMS-DP
  5    -79.24713543  -0.0358077849  0.002799  0.002799  0.001924  0.000135
               *** Restarting incremental Fock matrix formation ***
  6    -79.24670725   0.0004281840  0.001017  0.001023  0.000929  0.000063
  7    -79.24671457  -0.0000073197  0.000327  0.000521  0.000479  0.000035
  8    -79.24671568  -0.0000011103  0.000021  0.000014  0.000043  0.000001
  9    -79.24671568  -0.0000000034  0.000009  0.000007  0.000007  0.000000
                 **** Energy Check signals convergence ****
              ***Rediagonalizing the Fockian in SOSCF/NRSCF***

               *****************************************************
               *                     SUCCESS                       *
               *           SCF CONVERGED AFTER  10 CYCLES          *
               *****************************************************


----------------
TOTAL SCF ENERGY
----------------

Total Energy       :          -79.24671568 Eh           -2156.41276 eV

Components:
Nuclear Repulsion  :           42.21792462 Eh            1148.80813 eV
Electronic Energy  :         -121.46464030 Eh           -3305.22090 eV
One Electron Energy:         -189.02164335 Eh           -5143.54041 eV
Two Electron Energy:           67.55700305 Eh            1838.31951 eV

Virial components:
Potential Energy   :         -158.44473438 Eh           -4311.50042 eV
Kinetic Energy     :           79.19801870 Eh            2155.08765 eV
Virial Ratio       :            2.00061488


---------------
SCF CONVERGENCE
---------------

  Last Energy change         ...   -8.5022e-10  Tolerance :   1.0000e-08
  Last MAX-Density change    ...    1.3186e-06  Tolerance :   1.0000e-07
  Last RMS-Density change    ...    6.8263e-08  Tolerance :   5.0000e-09
  Last Orbital Gradient      ...    6.7062e-07  Tolerance :   1.0000e-05
  Last Orbital Rotation      ...    9.5132e-07  Tolerance :   1.0000e-05

             **** THE GBW FILE WAS UPDATED (eclipsed.gbw) ****
             **** DENSITY FILE WAS UPDATED (eclipsed.scfp) ****
             **** ENERGY FILE WAS UPDATED (eclipsed.en.tmp) ****
             **** THE GBW FILE WAS UPDATED (eclipsed.gbw) ****
             **** DENSITY FILE WAS UPDATED (eclipsed.scfp) ****
----------------
ORBITAL ENERGIES
----------------

  NO   OCC          E(Eh)            E(eV) 
   0   2.0000     -11.210515      -305.0536 
   1   2.0000     -11.209933      -305.0378 
   2   2.0000      -1.016149       -27.6508 
   3   2.0000      -0.845184       -22.9986 
   4   2.0000      -0.595685       -16.2094 
   5   2.0000      -0.595685       -16.2094 
   6   2.0000      -0.512266       -13.9395 
   7   2.0000      -0.484199       -13.1757 
   8   2.0000      -0.484199       -13.1757 
   9   0.0000       0.159299         4.3347 
  10   0.0000       0.197732         5.3805 
  11   0.0000       0.206861         5.6290 
  12   0.0000       0.206861         5.6290 
  13   0.0000       0.278869         7.5884 
  14   0.0000       0.278869         7.5884 
  15   0.0000       0.393131        10.6976 
  16   0.0000       0.430832        11.7235 
  17   0.0000       0.430832        11.7235 
  18   0.0000       0.481881        13.1127 
  19   0.0000       0.542241        14.7551 
  20   0.0000       0.542241        14.7551 
  21   0.0000       0.774199        21.0670 
  22   0.0000       0.788363        21.4525 
  23   0.0000       0.788363        21.4525 
  24   0.0000       0.789003        21.4699 
  25   0.0000       0.837210        22.7816 
  26   0.0000       0.837210        22.7816 
  27   0.0000       0.849388        23.1130 
  28   0.0000       0.931773        25.3548 
  29   0.0000       1.124531        30.6000 
  30   0.0000       1.151205        31.3259 
  31   0.0000       1.151205        31.3259 
  32   0.0000       1.527496        41.5653 
  33   0.0000       1.527496        41.5653 
  34   0.0000       1.687047        45.9069 
  35   0.0000       1.687047        45.9069 
  36   0.0000       1.741811        47.3971 
  37   0.0000       1.748597        47.5817 
  38   0.0000       1.757667        47.8286 
  39   0.0000       1.811308        49.2882 
  40   0.0000       1.811308        49.2882 
  41   0.0000       1.927754        52.4569 
  42   0.0000       1.927754        52.4569 
  43   0.0000       1.997629        54.3582 
  44   0.0000       2.176367        59.2220 
  45   0.0000       2.176367        59.2220 
  46   0.0000       2.352622        64.0181 
  47   0.0000       2.352622        64.0181 
  48   0.0000       2.368199        64.4420 
  49   0.0000       2.376471        64.6671 
  50   0.0000       2.619978        71.2932 
  51   0.0000       2.619978        71.2932 
  52   0.0000       2.634419        71.6862 
  53   0.0000       2.719986        74.0146 
  54   0.0000       2.719986        74.0146 
  55   0.0000       2.795334        76.0649 
  56   0.0000       2.854709        77.6806 
  57   0.0000       2.854709        77.6806 
  58   0.0000       2.867415        78.0263 
  59   0.0000       2.867415        78.0263 
  60   0.0000       2.996948        81.5511 
  61   0.0000       3.072491        83.6067 
  62   0.0000       3.072491        83.6067 
  63   0.0000       3.271671        89.0267 
  64   0.0000       3.480761        94.7163 
  65   0.0000       4.028196       109.6128 
  66   0.0000       4.028196       109.6128 
  67   0.0000       4.399062       119.7046 
  68   0.0000       4.399062       119.7046 
  69   0.0000       4.665983       126.9679 
  70   0.0000      25.072981       682.2705 
  71   0.0000      25.120068       683.5518 

                    ********************************
                    * MULLIKEN POPULATION ANALYSIS *
                    ********************************

-----------------------
MULLIKEN ATOMIC CHARGES
-----------------------
   0 C :   -0.275941
   1 C :   -0.275941
   2 H :    0.091980
   3 H :    0.091980
   4 H :    0.091980
   5 H :    0.091980
   6 H :    0.091980
   7 H :    0.091980
Sum of atomic charges:   -0.0000000

--------------------------------
MULLIKEN REDUCED ORBITAL CHARGES
--------------------------------
  0 C s       :     3.178843  s :     3.178843
      pz      :     0.937776  p :     3.038156
      px      :     1.050190
      py      :     1.050190
      dz2     :     0.015807  d :     0.058941
      dxz     :     0.011771
      dyz     :     0.011771
      dx2y2   :     0.009796
      dxy     :     0.009796
  1 C s       :     3.178843  s :     3.178843
      pz      :     0.937776  p :     3.038156
      px      :     1.050190
      py      :     1.050190
      dz2     :     0.015807  d :     0.058941
      dxz     :     0.011771
      dyz     :     0.011771
      dx2y2   :     0.009796
      dxy     :     0.009796
  2 H s       :     0.883555  s :     0.883555
      pz      :     0.005710  p :     0.024465
      px      :     0.006927
      py      :     0.011827
  3 H s       :     0.883555  s :     0.883555
      pz      :     0.005710  p :     0.024465
      px      :     0.006927
      py      :     0.011827
  4 H s       :     0.883555  s :     0.883555
      pz      :     0.005710  p :     0.024465
      px      :     0.014278
      py      :     0.004477
  5 H s       :     0.883555  s :     0.883555
      pz      :     0.005710  p :     0.024465
      px      :     0.006927
      py      :     0.011827
  6 H s       :     0.883555  s :     0.883555
      pz      :     0.005710  p :     0.024465
      px      :     0.006927
      py      :     0.011827
  7 H s       :     0.883555  s :     0.883555
      pz      :     0.005710  p :     0.024465
      px      :     0.014278
      py      :     0.004477


                     *******************************
                     * LOEWDIN POPULATION ANALYSIS *
                     *******************************

----------------------
LOEWDIN ATOMIC CHARGES
----------------------
   0 C :    0.005573
   1 C :    0.005573
   2 H :   -0.001858
   3 H :   -0.001858
   4 H :   -0.001857
   5 H :   -0.001858
   6 H :   -0.001858
   7 H :   -0.001857

-------------------------------
LOEWDIN REDUCED ORBITAL CHARGES
-------------------------------
  0 C s       :     2.763390  s :     2.763390
      pz      :     1.018695  p :     3.123934
      px      :     1.052619
      py      :     1.052619
      dz2     :     0.030992  d :     0.107104
      dxz     :     0.021719
      dyz     :     0.021719
      dx2y2   :     0.016337
      dxy     :     0.016337
  1 C s       :     2.763390  s :     2.763390
      pz      :     1.018695  p :     3.123934
      px      :     1.052619
      py      :     1.052619
      dz2     :     0.030992  d :     0.107104
      dxz     :     0.021719
      dyz     :     0.021719
      dx2y2   :     0.016337
      dxy     :     0.016337
  2 H s       :     0.934094  s :     0.934094
      pz      :     0.016768  p :     0.067763
      px      :     0.019789
      py      :     0.031206
  3 H s       :     0.934094  s :     0.934094
      pz      :     0.016768  p :     0.067763
      px      :     0.019789
      py      :     0.031206
  4 H s       :     0.934094  s :     0.934094
      pz      :     0.016768  p :     0.067763
      px      :     0.036915
      py      :     0.014080
  5 H s       :     0.934094  s :     0.934094
      pz      :     0.016768  p :     0.067763
      px      :     0.019789
      py      :     0.031206
  6 H s       :     0.934094  s :     0.934094
      pz      :     0.016768  p :     0.067763
      px      :     0.019789
      py      :     0.031206
  7 H s       :     0.934094  s :     0.934094
      pz      :     0.016768  p :     0.067763
      px      :     0.036915
      py      :     0.014080


                      *****************************
                      * MAYER POPULATION ANALYSIS *
                      *****************************

  NA   - Mulliken gross atomic population
  ZA   - Total nuclear charge
  QA   - Mulliken gross atomic charge
  VA   - Mayer's total valence
  BVA  - Mayer's bonded valence
  FA   - Mayer's free valence

  ATOM       NA         ZA         QA         VA         BVA        FA
  0 C      6.2759     6.0000    -0.2759     3.8905     3.8905    -0.0000
  1 C      6.2759     6.0000    -0.2759     3.8905     3.8905    -0.0000
  2 H      0.9080     1.0000     0.0920     0.9610     0.9610     0.0000
  3 H      0.9080     1.0000     0.0920     0.9610     0.9610    -0.0000
  4 H      0.9080     1.0000     0.0920     0.9610     0.9610     0.0000
  5 H      0.9080     1.0000     0.0920     0.9610     0.9610     0.0000
  6 H      0.9080     1.0000     0.0920     0.9610     0.9610     0.0000
  7 H      0.9080     1.0000     0.0920     0.9610     0.9610     0.0000

  Mayer bond orders larger than 0.100000
B(  0-C ,  1-C ) :   0.9537 B(  0-C ,  2-H ) :   0.9933 B(  0-C ,  3-H ) :   0.9933 
B(  0-C ,  4-H ) :   0.9933 B(  1-C ,  5-H ) :   0.9933 B(  1-C ,  6-H ) :   0.9933 
B(  1-C ,  7-H ) :   0.9933 

-------
TIMINGS
-------

Total SCF time: 0 days 0 hours 0 min 3 sec 

Total time                  ....       3.857 sec
Sum of individual times     ....       3.599 sec  ( 93.3%)

Fock matrix formation       ....       3.316 sec  ( 86.0%)
Diagonalization             ....       0.009 sec  (  0.2%)
Density matrix formation    ....       0.031 sec  (  0.8%)
Population analysis         ....       0.012 sec  (  0.3%)
Initial guess               ....       0.152 sec  (  3.9%)
Orbital Transformation      ....       0.000 sec  (  0.0%)
Orbital Orthonormalization  ....       0.000 sec  (  0.0%)
DIIS solution               ....       0.003 sec  (  0.1%)
SOSCF solution              ....       0.013 sec  (  0.3%)


           ************************************************************
           *        Program running with 2 parallel MPI-processes     *
           *              working on a common directory               *
           ************************************************************

------------------------------------------------------------------------------
                                ORCA  MP2 
------------------------------------------------------------------------------

MP2 will be done in the AO integral direct mode
The Q1-step will be done using symmetric double matrices
Dimension of the basis                    ...   72
Memory devoted for MP2                    ...  256 MB   
Memory needed for all in one shot         ...    8 MB
Number of MOs that can be treated together...  176      
MP2 density construction                  ... relaxed
The MP2 gradient is requested => amplitudes will be stored on disk
Total number of MOs              ...    9
Number of MOs treated per batch  ...    5 
Number of batches necessary      ...    1 
OPERATORS   0/  0 PASS   0
-----------------------------------------------
 MP2 CORRELATION ENERGY   :     -0.356671611 Eh
-----------------------------------------------


---------------------
MP2 DENSITY FORMATION
---------------------

Completing the external part of the density      ... done
Storing the unrelaxed density                    ... done

Calculating G(D)                                 ... done
Completing the Lagrangian                        ... done
Solving the Z-vector equations                   ... 

------------------------------------------------------------------------------
                           ORCA CP-SCF CALCULATION
------------------------------------------------------------------------------

Input orbitals are from        ... eclipsed.gbw
Input Perturbation             ... eclipsed.pin.tmp
Wavefunction output            ... eclipsed.pout.tmp
Perturbation mode              ... Real perturbation (singlet)
Solver                         ... POPLE
Max. number of iterations      ... 128
Convergence tolerance          ... 1.000e-08
Integral handling              ... Direct
Number of perturbations        ... 1
Number of operators            ... 1
Orbital ranges used for CP-SCF:
 Operator 0:  Orbitals   0...  8  to   9... 71
Variables per vector in CP-SCF ... 567
Number of vectors sought       ... 1
     CP-SCF ITERATION   0: 
     CP-SCF ITERATION   1:      0.000073609484
     CP-SCF ITERATION   2:      0.000001494972
     CP-SCF ITERATION   3:      0.000000027984
     CP-SCF ITERATION   4:      0.000000000293
                                                 ... done
Finalizing the relaxed density                   ... done
Transforming P to the AO basis                   ... done
Storing the relaxed density                      ... done

------------------------------------
ENERGY WEIGHTED DENSITY FINALIZATION
------------------------------------

Gathering the parts of the W-matrix              ...                                                      done
Forming the Z-density                            ... done
Transforming Z to the AO basis                   ... done
Calculating G(Z)                                 ... done
Finalizing the W-matrix                          ...                                                      done
Transforming W to the AO basis and storing       ... done

                *********************************************
                * UNRELAXED MP2 DENSITY POPULATION ANALYSIS *
                *********************************************

------------------------------------------------------------------------------
                           ORCA POPULATION ANALYSIS
------------------------------------------------------------------------------
Input electron density              ... eclipsed.pmp2ur
BaseName (.gbw .S,...)              ... eclipsed

                    ********************************
                    * MULLIKEN POPULATION ANALYSIS *
                    ********************************

-----------------------
MULLIKEN ATOMIC CHARGES
-----------------------
   0 C :   -0.280786
   1 C :   -0.280786
   2 H :    0.093595
   3 H :    0.093595
   4 H :    0.093595
   5 H :    0.093595
   6 H :    0.093595
   7 H :    0.093595
Sum of atomic charges:   -0.0000000

--------------------------------
MULLIKEN REDUCED ORBITAL CHARGES
--------------------------------
  0 C s       :     3.176563  s :     3.176563
      pz      :     0.933297  p :     3.026483
      px      :     1.046593
      py      :     1.046593
      dz2     :     0.019206  d :     0.077739
      dxz     :     0.015822
      dyz     :     0.015822
      dx2y2   :     0.013445
      dxy     :     0.013445
  1 C s       :     3.176563  s :     3.176563
      pz      :     0.933297  p :     3.026483
      px      :     1.046593
      py      :     1.046593
      dz2     :     0.019206  d :     0.077739
      dxz     :     0.015822
      dyz     :     0.015822
      dx2y2   :     0.013445
      dxy     :     0.013445
  2 H s       :     0.878566  s :     0.878566
      pz      :     0.007052  p :     0.027839
      px      :     0.008140
      py      :     0.012647
  3 H s       :     0.878566  s :     0.878566
      pz      :     0.007052  p :     0.027839
      px      :     0.008140
      py      :     0.012647
  4 H s       :     0.878566  s :     0.878566
      pz      :     0.007052  p :     0.027839
      px      :     0.014901
      py      :     0.005886
  5 H s       :     0.878566  s :     0.878566
      pz      :     0.007052  p :     0.027839
      px      :     0.008140
      py      :     0.012647
  6 H s       :     0.878566  s :     0.878566
      pz      :     0.007052  p :     0.027839
      px      :     0.008140
      py      :     0.012647
  7 H s       :     0.878566  s :     0.878566
      pz      :     0.007052  p :     0.027839
      px      :     0.014901
      py      :     0.005886


                     *******************************
                     * LOEWDIN POPULATION ANALYSIS *
                     *******************************

----------------------
LOEWDIN ATOMIC CHARGES
----------------------
   0 C :    0.004235
   1 C :    0.004235
   2 H :   -0.001412
   3 H :   -0.001412
   4 H :   -0.001412
   5 H :   -0.001412
   6 H :   -0.001412
   7 H :   -0.001412

-------------------------------
LOEWDIN REDUCED ORBITAL CHARGES
-------------------------------
  0 C s       :     2.762402  s :     2.762402
      pz      :     1.011853  p :     3.105792
      px      :     1.046970
      py      :     1.046969
      dz2     :     0.035075  d :     0.127572
      dxz     :     0.025868
      dyz     :     0.025868
      dx2y2   :     0.020380
      dxy     :     0.020380
  1 C s       :     2.762402  s :     2.762402
      pz      :     1.011853  p :     3.105792
      px      :     1.046970
      py      :     1.046969
      dz2     :     0.035075  d :     0.127572
      dxz     :     0.025868
      dyz     :     0.025868
      dx2y2   :     0.020380
      dxy     :     0.020380
  2 H s       :     0.927519  s :     0.927519
      pz      :     0.018640  p :     0.073892
      px      :     0.021685
      py      :     0.033567
  3 H s       :     0.927519  s :     0.927519
      pz      :     0.018640  p :     0.073892
      px      :     0.021685
      py      :     0.033567
  4 H s       :     0.927519  s :     0.927519
      pz      :     0.018640  p :     0.073892
      px      :     0.039507
      py      :     0.015745
  5 H s       :     0.927519  s :     0.927519
      pz      :     0.018640  p :     0.073892
      px      :     0.021685
      py      :     0.033567
  6 H s       :     0.927519  s :     0.927519
      pz      :     0.018640  p :     0.073892
      px      :     0.021685
      py      :     0.033567
  7 H s       :     0.927519  s :     0.927519
      pz      :     0.018640  p :     0.073892
      px      :     0.039507
      py      :     0.015745


                      *****************************
                      * MAYER POPULATION ANALYSIS *
                      *****************************

  NA   - Mulliken gross atomic population
  ZA   - Total nuclear charge
  QA   - Mulliken gross atomic charge
  VA   - Mayer's total valence
  BVA  - Mayer's bonded valence
  FA   - Mayer's free valence

  ATOM       NA         ZA         QA         VA         BVA        FA
  0 C      6.2808     6.0000    -0.2808     3.9942     3.7248     0.2694
  1 C      6.2808     6.0000    -0.2808     3.9942     3.7248     0.2694
  2 H      0.9064     1.0000     0.0936     0.9712     0.9220     0.0492
  3 H      0.9064     1.0000     0.0936     0.9712     0.9220     0.0492
  4 H      0.9064     1.0000     0.0936     0.9712     0.9220     0.0492
  5 H      0.9064     1.0000     0.0936     0.9712     0.9220     0.0492
  6 H      0.9064     1.0000     0.0936     0.9712     0.9220     0.0492
  7 H      0.9064     1.0000     0.0936     0.9712     0.9220     0.0492

  Mayer bond orders larger than 0.100000
B(  0-C ,  1-C ) :   0.9036 B(  0-C ,  2-H ) :   0.9548 B(  0-C ,  3-H ) :   0.9548 
B(  0-C ,  4-H ) :   0.9548 B(  1-C ,  5-H ) :   0.9548 B(  1-C ,  6-H ) :   0.9548 
B(  1-C ,  7-H ) :   0.9548 


                *******************************************
                * RELAXED MP2 DENSITY POPULATION ANALYSIS *
                *******************************************

------------------------------------------------------------------------------
                           ORCA POPULATION ANALYSIS
------------------------------------------------------------------------------
Input electron density              ... eclipsed.pmp2re
BaseName (.gbw .S,...)              ... eclipsed

                    ********************************
                    * MULLIKEN POPULATION ANALYSIS *
                    ********************************

-----------------------
MULLIKEN ATOMIC CHARGES
-----------------------
   0 C :   -0.327240
   1 C :   -0.327240
   2 H :    0.109080
   3 H :    0.109080
   4 H :    0.109080
   5 H :    0.109080
   6 H :    0.109080
   7 H :    0.109080
Sum of atomic charges:   -0.0000000

--------------------------------
MULLIKEN REDUCED ORBITAL CHARGES
--------------------------------
  0 C s       :     3.180030  s :     3.180030
      pz      :     0.945560  p :     3.076620
      px      :     1.065530
      py      :     1.065530
      dz2     :     0.016144  d :     0.070590
      dxz     :     0.015153
      dyz     :     0.015153
      dx2y2   :     0.012070
      dxy     :     0.012070
  1 C s       :     3.180030  s :     3.180030
      pz      :     0.945560  p :     3.076620
      px      :     1.065530
      py      :     1.065530
      dz2     :     0.016144  d :     0.070590
      dxz     :     0.015153
      dyz     :     0.015153
      dx2y2   :     0.012070
      dxy     :     0.012070
  2 H s       :     0.864646  s :     0.864646
      pz      :     0.006935  p :     0.026274
      px      :     0.007930
      py      :     0.011410
  3 H s       :     0.864646  s :     0.864646
      pz      :     0.006935  p :     0.026274
      px      :     0.007930
      py      :     0.011410
  4 H s       :     0.864646  s :     0.864646
      pz      :     0.006935  p :     0.026274
      px      :     0.013149
      py      :     0.006190
  5 H s       :     0.864646  s :     0.864646
      pz      :     0.006935  p :     0.026274
      px      :     0.007930
      py      :     0.011410
  6 H s       :     0.864646  s :     0.864646
      pz      :     0.006935  p :     0.026274
      px      :     0.007930
      py      :     0.011410
  7 H s       :     0.864646  s :     0.864646
      pz      :     0.006935  p :     0.026274
      px      :     0.013149
      py      :     0.006190


                     *******************************
                     * LOEWDIN POPULATION ANALYSIS *
                     *******************************

----------------------
LOEWDIN ATOMIC CHARGES
----------------------
   0 C :   -0.016767
   1 C :   -0.016767
   2 H :    0.005589
   3 H :    0.005589
   4 H :    0.005589
   5 H :    0.005589
   6 H :    0.005589
   7 H :    0.005589

-------------------------------
LOEWDIN REDUCED ORBITAL CHARGES
-------------------------------
  0 C s       :     2.764337  s :     2.764337
      pz      :     1.016312  p :     3.133472
      px      :     1.058580
      py      :     1.058580
      dz2     :     0.031712  d :     0.118959
      dxz     :     0.025096
      dyz     :     0.025096
      dx2y2   :     0.018528
      dxy     :     0.018528
  1 C s       :     2.764337  s :     2.764337
      pz      :     1.016312  p :     3.133472
      px      :     1.058580
      py      :     1.058580
      dz2     :     0.031712  d :     0.118959
      dxz     :     0.025096
      dyz     :     0.025096
      dx2y2   :     0.018528
      dxy     :     0.018528
  2 H s       :     0.919912  s :     0.919912
      pz      :     0.019096  p :     0.074499
      px      :     0.022005
      py      :     0.033398
  3 H s       :     0.919912  s :     0.919912
      pz      :     0.019096  p :     0.074499
      px      :     0.022005
      py      :     0.033398
  4 H s       :     0.919912  s :     0.919912
      pz      :     0.019096  p :     0.074499
      px      :     0.039095
      py      :     0.016308
  5 H s       :     0.919912  s :     0.919912
      pz      :     0.019096  p :     0.074499
      px      :     0.022005
      py      :     0.033398
  6 H s       :     0.919912  s :     0.919912
      pz      :     0.019096  p :     0.074499
      px      :     0.022005
      py      :     0.033398
  7 H s       :     0.919912  s :     0.919912
      pz      :     0.019096  p :     0.074499
      px      :     0.039095
      py      :     0.016308


                      *****************************
                      * MAYER POPULATION ANALYSIS *
                      *****************************

  NA   - Mulliken gross atomic population
  ZA   - Total nuclear charge
  QA   - Mulliken gross atomic charge
  VA   - Mayer's total valence
  BVA  - Mayer's bonded valence
  FA   - Mayer's free valence

  ATOM       NA         ZA         QA         VA         BVA        FA
  0 C      6.3272     6.0000    -0.3272     3.9995     3.7312     0.2682
  1 C      6.3272     6.0000    -0.3272     3.9995     3.7312     0.2682
  2 H      0.8909     1.0000     0.1091     0.9676     0.9191     0.0486
  3 H      0.8909     1.0000     0.1091     0.9676     0.9191     0.0486
  4 H      0.8909     1.0000     0.1091     0.9676     0.9191     0.0486
  5 H      0.8909     1.0000     0.1091     0.9676     0.9191     0.0486
  6 H      0.8909     1.0000     0.1091     0.9676     0.9191     0.0486
  7 H      0.8909     1.0000     0.1091     0.9676     0.9191     0.0486

  Mayer bond orders larger than 0.100000
B(  0-C ,  1-C ) :   0.9188 B(  0-C ,  2-H ) :   0.9497 B(  0-C ,  3-H ) :   0.9497 
B(  0-C ,  4-H ) :   0.9497 B(  1-C ,  5-H ) :   0.9497 B(  1-C ,  6-H ) :   0.9497 
B(  1-C ,  7-H ) :   0.9497 


----------------------------------
MP2 DERIVATIVE INTEGRAL GENERATION
----------------------------------


Input Wavefunction Amplitudes       ... eclipsed.mp2tsaa.tmp
Input Correlated Electron Density   ... eclipsed.pmp2re
Input Energy Weighted Density       ... eclipsed.wmp2.tmp
Input SCF Electron Density          ... eclipsed.scfp

One-Electron Terms    ...
                        ... One-Electron Terms done
Prescreening matrices              ... done

Batch handling in the gradient evaluation:
Memory available                      ...  256.0 MB
Memory per occupied orbital in Q2     ...    0.4 MB
Memory per occupied orbital in Q3     ...    0.0 MB
Total memory requirement per |i>      ...    0.4 MB
Max. Number of orbitals possible      ...    692
Number of orbitals treated per batch  ...      9
Number of batches to be done          ...      1
Batch   0: i=    0 ...     8

---------------------------------------
MP2 TOTAL ENERGY:      -79.603387295 Eh
---------------------------------------

-----------------------------------
NORM OF THE MP2 GRADIENT:  0.007004
-----------------------------------

-------------------------   --------------------
FINAL SINGLE POINT ENERGY       -79.603387294864
-------------------------   --------------------

------------------------------------------------------------------------------
                         ORCA GEOMETRY RELAXATION STEP
------------------------------------------------------------------------------

Reading the OPT-File                    .... done
Getting information on internals        .... done
Copying old internal coords+grads       .... done
Making the new internal coordinates     .... (new redundants).... done
Validating the new internal coordinates .... (new redundants).... done
Calculating the B-matrix                .... done
Calculating the G,G- and P matrices     .... done
Transforming gradient to internals      .... done
Projecting the internal gradient        .... done
Number of atoms                         ....   8
Number of internal coordinates          ....  28
Current Energy                          ....   -79.603387295 Eh
Current gradient norm                   ....     0.007003826 Eh/bohr
Maximum allowed component of the step   ....  0.300
Current trust radius                    ....  0.300
Evaluating the initial hessian          ....  (Almloef) done
Projecting the Hessian                  .... done
Forming the augmented Hessian           .... done
Diagonalizing the augmented Hessian     .... done
Last element of RFO vector              ....  0.999797319
Lowest eigenvalues of augmented Hessian:
 -0.000144191  0.010939641  0.102352933  0.102352933  0.102352933
Length of the computed step             ....  0.020136658
The final length of the internal step   ....  0.020136658
Converting the step to cartesian space:
 Initial RMS(Int)=    0.0038054706
Transforming coordinates:
 Iter   0:  RMS(Cart)=    0.0043612550 RMS(Int)=    0.0038048893
 Iter   1:  RMS(Cart)=    0.0000095108 RMS(Int)=    0.0000064544
 Iter   2:  RMS(Cart)=    0.0000000482 RMS(Int)=    0.0000000342
done
Storing new coordinates                 .... done

                                .--------------------.
          ----------------------|Geometry convergence|-------------------------
          Item                value                   Tolerance       Converged
          ---------------------------------------------------------------------
          RMS gradient        0.0013554088            0.0000300000      NO
          MAX gradient        0.0030787676            0.0001000000      NO
          RMS step            0.0038054706            0.0006000000      NO
          MAX step            0.0083194509            0.0010000000      NO
          ........................................................
          Max(Bonds)      0.0044      Max(Angles)    0.13
          Max(Dihed)        0.00      Max(Improp)    0.00
          ---------------------------------------------------------------------

The optimization has not yet converged - more geometry cycles are needed


    ---------------------------------------------------------------------------
                         Redundant Internal Coordinates
                            (Angstroem and degrees)

        Definition                    Value    dE/dq     Step     New-Value
    ----------------------------------------------------------------------------
     1. B(C   1,C   0)                1.5327 -0.003079  0.0044    1.5371   
     2. B(H   2,C   0)                1.0886 -0.002469  0.0036    1.0922   
     3. B(H   3,C   0)                1.0886 -0.002469  0.0036    1.0922   
     4. B(H   4,C   0)                1.0886 -0.002469  0.0036    1.0922   
     5. B(H   5,C   1)                1.0886 -0.002469  0.0036    1.0922   
     6. B(H   6,C   1)                1.0886 -0.002469  0.0036    1.0922   
     7. B(H   7,C   1)                1.0886 -0.002469  0.0036    1.0922   
     8. A(H   2,C   0,H   4)          106.86 -0.000698    0.13    106.99   
     9. A(C   1,C   0,H   4)          111.97  0.000642   -0.12    111.85   
    10. A(C   1,C   0,H   2)          111.97  0.000642   -0.12    111.85   
    11. A(H   3,C   0,H   4)          106.86 -0.000698    0.13    106.99   
    12. A(H   2,C   0,H   3)          106.86 -0.000698    0.13    106.99   
    13. A(C   1,C   0,H   3)          111.97  0.000642   -0.12    111.85   
    14. A(C   0,C   1,H   5)          111.97  0.000642   -0.12    111.85   
    15. A(H   6,C   1,H   7)          106.86 -0.000698    0.13    106.99   
    16. A(H   5,C   1,H   7)          106.86 -0.000698    0.13    106.99   
    17. A(C   0,C   1,H   7)          111.97  0.000642   -0.12    111.85   
    18. A(H   5,C   1,H   6)          106.86 -0.000698    0.13    106.99   
    19. A(C   0,C   1,H   6)          111.97  0.000642   -0.12    111.85   
    20. D(H   5,C   1,C   0,H   3)     -0.00 -0.000000    0.00      0.00   
    21. D(H   5,C   1,C   0,H   4)   -120.00 -0.000000    0.00   -120.00   
    22. D(H   6,C   1,C   0,H   2)      0.00 -0.000000    0.00      0.00   
    23. D(H   6,C   1,C   0,H   3)   -120.00  0.000000   -0.00   -120.00   
    24. D(H   6,C   1,C   0,H   4)    120.00  0.000000   -0.00    120.00   
    25. D(H   7,C   1,C   0,H   2)   -120.00 -0.000000    0.00   -120.00   
    26. D(H   7,C   1,C   0,H   3)    120.00  0.000000   -0.00    120.00   
    27. D(H   7,C   1,C   0,H   4)      0.00  0.000000   -0.00     -0.00   
    28. D(H   5,C   1,C   0,H   2)    120.00 -0.000000    0.00    120.00   
    ----------------------------------------------------------------------------

         *************************************************************
         *                GEOMETRY OPTIMIZATION CYCLE   2            *
         *************************************************************
---------------------------------
CARTESIAN COORDINATES (ANGSTROEM)
---------------------------------
  C     -0.000000   -0.000000   -0.768538
  C     -0.000000    0.000000    0.768538
  H     -0.506859    0.877906   -1.175033
  H     -0.506859   -0.877906   -1.175033
  H      1.013719   -0.000000   -1.175033
  H     -0.506859   -0.877906    1.175033
  H     -0.506859    0.877906    1.175033
  H      1.013719   -0.000000    1.175033

----------------------------
CARTESIAN COORDINATES (A.U.)
----------------------------
  NO LB      ZA    FRAG     MASS         X           Y           Z
   0 C     6.0000    0    12.011   -0.000000   -0.000000   -1.452326
   1 C     6.0000    0    12.011   -0.000000    0.000000    1.452326
   2 H     1.0000    0     1.008   -0.957825    1.659002   -2.220490
   3 H     1.0000    0     1.008   -0.957825   -1.659002   -2.220490
   4 H     1.0000    0     1.008    1.915651   -0.000000   -2.220490
   5 H     1.0000    0     1.008   -0.957825   -1.659002    2.220490
   6 H     1.0000    0     1.008   -0.957825    1.659002    2.220490
   7 H     1.0000    0     1.008    1.915651   -0.000000    2.220490

--------------------------------
INTERNAL COORDINATES (ANGSTROEM)
--------------------------------
 C      0   0   0     0.000000000000     0.00000000     0.00000000
 C      1   0   0     1.537075387790     0.00000000     0.00000000
 H      1   2   0     1.092182993236   111.85048682     0.00000000
 H      1   2   3     1.092182993239   111.85048683   239.99999803
 H      1   2   3     1.092182982818   111.85048359   119.99999901
 H      2   1   3     1.092182993238   111.85048683   120.00000197
 H      2   1   3     1.092182993238   111.85048683     0.00000000
 H      2   1   3     1.092182982818   111.85048359   240.00000099

---------------------------
INTERNAL COORDINATES (A.U.)
---------------------------
 C      0   0   0     0.000000000000     0.00000000     0.00000000
 C      1   0   0     2.904651530115     0.00000000     0.00000000
 H      1   2   0     2.063926745343   111.85048682     0.00000000
 H      1   2   3     2.063926745347   111.85048683   239.99999803
 H      1   2   3     2.063926725655   111.85048359   119.99999901
 H      2   1   3     2.063926745346   111.85048683   120.00000197
 H      2   1   3     2.063926745346   111.85048683     0.00000000
 H      2   1   3     2.063926725655   111.85048359   240.00000099



           ************************************************************
           *        Program running with 2 parallel MPI-processes     *
           *              working on a common directory               *
           ************************************************************


           ************************************************************
           *        Program running with 2 parallel MPI-processes     *
           *              working on a common directory               *
           ************************************************************

Diagonalization of the overlap matrix:
Smallest eigenvalue                        ... 3.496e-03
Time for diagonalization                   ...    0.001 sec
Threshold for overlap eigenvalues          ... 1.000e-08
Number of eigenvalues below threshold      ... 0
Time for construction of square roots      ...    0.001 sec
Total time needed                          ...    0.002 sec

--------------
SCF ITERATIONS
--------------
ITER       Energy         Delta-E        Max-DP      RMS-DP      [F,P]     Damp
               ***  Starting incremental Fock matrix formation  ***
                      *** Initiating the SOSCF procedure ***
                      *** Re-Reading the Fockian *** 
                      *** Removing any level shift *** 
ITER      Energy       Delta-E        Grad      Rot      Max-DP    RMS-DP
  0    -79.24658984 -79.2465898359  0.001075  0.001075  0.001416  0.000055
               *** Restarting incremental Fock matrix formation ***
  1    -79.24660454  -0.0000146997  0.000529  0.000328  0.000439  0.000018
  2    -79.24660553  -0.0000009961  0.000098  0.000116  0.000131  0.000007
  3    -79.24660561  -0.0000000758  0.000019  0.000013  0.000026  0.000001
                 **** Energy Check signals convergence ****
              ***Rediagonalizing the Fockian in SOSCF/NRSCF***

               *****************************************************
               *                     SUCCESS                       *
               *           SCF CONVERGED AFTER   4 CYCLES          *
               *****************************************************

Total Energy       :          -79.24660561 Eh           -2156.40977 eV
  Last Energy change         ...   -4.3484e-09  Tolerance :   1.0000e-08
  Last MAX-Density change    ...    2.6421e-06  Tolerance :   1.0000e-07
             **** THE GBW FILE WAS UPDATED (eclipsed.gbw) ****
             **** DENSITY FILE WAS UPDATED (eclipsed.scfp) ****
             **** ENERGY FILE WAS UPDATED (eclipsed.en.tmp) ****
             **** THE GBW FILE WAS UPDATED (eclipsed.gbw) ****
             **** DENSITY FILE WAS UPDATED (eclipsed.scfp) ****
Total SCF time: 0 days 0 hours 0 min 1 sec 


           ************************************************************
           *        Program running with 2 parallel MPI-processes     *
           *              working on a common directory               *
           ************************************************************

------------------------------------------------------------------------------
                                ORCA  MP2 
------------------------------------------------------------------------------

MP2 will be done in the AO integral direct mode
The Q1-step will be done using symmetric double matrices
Dimension of the basis                    ...   72
Memory devoted for MP2                    ...  256 MB   
Memory needed for all in one shot         ...    8 MB
Number of MOs that can be treated together...  176      
MP2 density construction                  ... relaxed
The MP2 gradient is requested => amplitudes will be stored on disk
Total number of MOs              ...    9
Number of MOs treated per batch  ...    5 
Number of batches necessary      ...    1 
OPERATORS   0/  0 PASS   0
-----------------------------------------------
 MP2 CORRELATION ENERGY   :     -0.356861736 Eh
-----------------------------------------------


---------------------
MP2 DENSITY FORMATION
---------------------

Completing the external part of the density      ... done
Storing the unrelaxed density                    ... done

Calculating G(D)                                 ... done
Completing the Lagrangian                        ... done
Solving the Z-vector equations                   ... 

------------------------------------------------------------------------------
                           ORCA CP-SCF CALCULATION
------------------------------------------------------------------------------

Input orbitals are from        ... eclipsed.gbw
Input Perturbation             ... eclipsed.pin.tmp
Wavefunction output            ... eclipsed.pout.tmp
Perturbation mode              ... Real perturbation (singlet)
Solver                         ... POPLE
Max. number of iterations      ... 128
Convergence tolerance          ... 1.000e-08
Integral handling              ... Direct
Number of perturbations        ... 1
Number of operators            ... 1
Orbital ranges used for CP-SCF:
 Operator 0:  Orbitals   0...  8  to   9... 71
Variables per vector in CP-SCF ... 567
Number of vectors sought       ... 1
     CP-SCF ITERATION   0: 
     CP-SCF ITERATION   1:      0.000073953749
     CP-SCF ITERATION   2:      0.000001530471
     CP-SCF ITERATION   3:      0.000000028597
     CP-SCF ITERATION   4:      0.000000000300
                                                 ... done
Finalizing the relaxed density                   ... done
Transforming P to the AO basis                   ... done
Storing the relaxed density                      ... done

------------------------------------
ENERGY WEIGHTED DENSITY FINALIZATION
------------------------------------

Gathering the parts of the W-matrix              ...                                                      done
Forming the Z-density                            ... done
Transforming Z to the AO basis                   ... done
Calculating G(Z)                                 ... done
Finalizing the W-matrix                          ...                                                      done
Transforming W to the AO basis and storing       ... done

----------------------------------
MP2 DERIVATIVE INTEGRAL GENERATION
----------------------------------


Input Wavefunction Amplitudes       ... eclipsed.mp2tsaa.tmp
Input Correlated Electron Density   ... eclipsed.pmp2re
Input Energy Weighted Density       ... eclipsed.wmp2.tmp
Input SCF Electron Density          ... eclipsed.scfp

One-Electron Terms    ...
                        ... One-Electron Terms done
Prescreening matrices              ... done

Batch handling in the gradient evaluation:
Memory available                      ...  256.0 MB
Memory per occupied orbital in Q2     ...    0.4 MB
Memory per occupied orbital in Q3     ...    0.0 MB
Total memory requirement per |i>      ...    0.4 MB
Max. Number of orbitals possible      ...    692
Number of orbitals treated per batch  ...      9
Number of batches to be done          ...      1
Batch   0: i=    0 ...     8

---------------------------------------
MP2 TOTAL ENERGY:      -79.603467348 Eh
---------------------------------------

-----------------------------------
NORM OF THE MP2 GRADIENT:  0.003174
-----------------------------------

-------------------------   --------------------
FINAL SINGLE POINT ENERGY       -79.603467348005
-------------------------   --------------------

------------------------------------------------------------------------------
                         ORCA GEOMETRY RELAXATION STEP
------------------------------------------------------------------------------

Reading the OPT-File                    .... done
Getting information on internals        .... done
Copying old internal coords+grads       .... done
Making the new internal coordinates     .... (new redundants).... done
Validating the new internal coordinates .... (new redundants).... done
Calculating the B-matrix                .... done
Calculating the G,G- and P matrices     .... done
Transforming gradient to internals      .... done
Projecting the internal gradient        .... done
Number of atoms                         ....   8
Number of internal coordinates          ....  28
Current Energy                          ....   -79.603467348 Eh
Current gradient norm                   ....     0.003174386 Eh/bohr
Maximum allowed component of the step   ....  0.300
Current trust radius                    ....  0.300
Updating the Hessian (BFGS)             .... done
Forming the augmented Hessian           .... done
Diagonalizing the augmented Hessian     .... done
Last element of RFO vector              ....  0.999977230
Lowest eigenvalues of augmented Hessian:
 -0.000011379  0.010939641  0.102352933  0.102352933  0.102352933
Length of the computed step             ....  0.006748387
The final length of the internal step   ....  0.006748387
Converting the step to cartesian space:
 Initial RMS(Int)=    0.0012753253
Transforming coordinates:
 Iter   0:  RMS(Cart)=    0.0011487597 RMS(Int)=    0.0012745535
 Iter   1:  RMS(Cart)=    0.0000020854 RMS(Int)=    0.0000016447
 Iter   2:  RMS(Cart)=    0.0000000026 RMS(Int)=    0.0000000024
done
Storing new coordinates                 .... done

                                .--------------------.
          ----------------------|Geometry convergence|-------------------------
          Item                value                   Tolerance       Converged
          ---------------------------------------------------------------------
          Energy change      -0.0000800531            0.0000010000      NO
          RMS gradient        0.0003238063            0.0000300000      NO
          MAX gradient        0.0008593668            0.0001000000      NO
          RMS step            0.0012753253            0.0006000000      NO
          MAX step            0.0031552152            0.0010000000      NO
          ........................................................
          Max(Bonds)      0.0017      Max(Angles)    0.10
          Max(Dihed)        0.00      Max(Improp)    0.00
          ---------------------------------------------------------------------

The optimization has not yet converged - more geometry cycles are needed


    ---------------------------------------------------------------------------
                         Redundant Internal Coordinates
                            (Angstroem and degrees)

        Definition                    Value    dE/dq     Step     New-Value
    ----------------------------------------------------------------------------
     1. B(C   1,C   0)                1.5371 -0.000859  0.0017    1.5387   
     2. B(H   2,C   0)                1.0922  0.000050  0.0001    1.0923   
     3. B(H   3,C   0)                1.0922  0.000050  0.0001    1.0923   
     4. B(H   4,C   0)                1.0922  0.000050  0.0001    1.0923   
     5. B(H   5,C   1)                1.0922  0.000050  0.0001    1.0923   
     6. B(H   6,C   1)                1.0922  0.000050  0.0001    1.0923   
     7. B(H   7,C   1)                1.0922  0.000050  0.0001    1.0923   
     8. A(H   2,C   0,H   4)          106.99 -0.000443    0.10    107.09   
     9. A(C   1,C   0,H   4)          111.85  0.000409   -0.09    111.76   
    10. A(C   1,C   0,H   2)          111.85  0.000409   -0.09    111.76   
    11. A(H   3,C   0,H   4)          106.99 -0.000443    0.10    107.09   
    12. A(H   2,C   0,H   3)          106.99 -0.000443    0.10    107.09   
    13. A(C   1,C   0,H   3)          111.85  0.000409   -0.09    111.76   
    14. A(C   0,C   1,H   5)          111.85  0.000409   -0.09    111.76   
    15. A(H   6,C   1,H   7)          106.99 -0.000443    0.10    107.09   
    16. A(H   5,C   1,H   7)          106.99 -0.000443    0.10    107.09   
    17. A(C   0,C   1,H   7)          111.85  0.000409   -0.09    111.76   
    18. A(H   5,C   1,H   6)          106.99 -0.000443    0.10    107.09   
    19. A(C   0,C   1,H   6)          111.85  0.000409   -0.09    111.76   
    20. D(H   5,C   1,C   0,H   3)      0.00 -0.000000    0.00      0.00   
    21. D(H   5,C   1,C   0,H   4)   -120.00  0.000000   -0.00   -120.00   
    22. D(H   6,C   1,C   0,H   2)      0.00  0.000000    0.00      0.00   
    23. D(H   6,C   1,C   0,H   3)   -120.00 -0.000000    0.00   -120.00   
    24. D(H   6,C   1,C   0,H   4)    120.00 -0.000000    0.00    120.00   
    25. D(H   7,C   1,C   0,H   2)   -120.00  0.000000   -0.00   -120.00   
    26. D(H   7,C   1,C   0,H   3)    120.00 -0.000000    0.00    120.00   
    27. D(H   7,C   1,C   0,H   4)     -0.00 -0.000000    0.00     -0.00   
    28. D(H   5,C   1,C   0,H   2)    120.00  0.000000   -0.00    120.00   
    ----------------------------------------------------------------------------

         *************************************************************
         *                GEOMETRY OPTIMIZATION CYCLE   3            *
         *************************************************************
---------------------------------
CARTESIAN COORDINATES (ANGSTROEM)
---------------------------------
  C     -0.000000    0.000000   -0.769373
  C     -0.000000   -0.000000    0.769373
  H     -0.507262    0.878603   -1.174258
  H     -0.507262   -0.878603   -1.174258
  H      1.014524    0.000000   -1.174258
  H     -0.507262   -0.878603    1.174258
  H     -0.507262    0.878603    1.174258
  H      1.014524   -0.000000    1.174258

----------------------------
CARTESIAN COORDINATES (A.U.)
----------------------------
  NO LB      ZA    FRAG     MASS         X           Y           Z
   0 C     6.0000    0    12.011   -0.000000    0.000000   -1.453903
   1 C     6.0000    0    12.011   -0.000000   -0.000000    1.453903
   2 H     1.0000    0     1.008   -0.958586    1.660320   -2.219027
   3 H     1.0000    0     1.008   -0.958586   -1.660320   -2.219027
   4 H     1.0000    0     1.008    1.917172    0.000000   -2.219027
   5 H     1.0000    0     1.008   -0.958586   -1.660320    2.219027
   6 H     1.0000    0     1.008   -0.958586    1.660320    2.219027
   7 H     1.0000    0     1.008    1.917172   -0.000000    2.219027

--------------------------------
INTERNAL COORDINATES (ANGSTROEM)
--------------------------------
 C      0   0   0     0.000000000000     0.00000000     0.00000000
 C      1   0   0     1.538745055736     0.00000000     0.00000000
 H      1   2   0     1.092332763220   111.75642498     0.00000000
 H      1   2   3     1.092332763221   111.75642498   239.99999899
 H      1   2   3     1.092332764010   111.75642304   119.99999950
 H      2   1   3     1.092332763221   111.75642498   120.00000101
 H      2   1   3     1.092332763222   111.75642498     0.00000000
 H      2   1   3     1.092332764010   111.75642304   240.00000050

---------------------------
INTERNAL COORDINATES (A.U.)
---------------------------
 C      0   0   0     0.000000000000     0.00000000     0.00000000
 C      1   0   0     2.907806745266     0.00000000     0.00000000
 H      1   2   0     2.064209769595   111.75642498     0.00000000
 H      1   2   3     2.064209769598   111.75642498   239.99999899
 H      1   2   3     2.064209771088   111.75642304   119.99999950
 H      2   1   3     2.064209769598   111.75642498   120.00000101
 H      2   1   3     2.064209769599   111.75642498     0.00000000
 H      2   1   3     2.064209771089   111.75642304   240.00000050



           ************************************************************
           *        Program running with 2 parallel MPI-processes     *
           *              working on a common directory               *
           ************************************************************


           ************************************************************
           *        Program running with 2 parallel MPI-processes     *
           *              working on a common directory               *
           ************************************************************

Diagonalization of the overlap matrix:
Smallest eigenvalue                        ... 3.505e-03
Time for diagonalization                   ...    0.003 sec
Threshold for overlap eigenvalues          ... 1.000e-08
Number of eigenvalues below threshold      ... 0
Time for construction of square roots      ...    0.017 sec
Total time needed                          ...    0.020 sec

--------------
SCF ITERATIONS
--------------
ITER       Energy         Delta-E        Max-DP      RMS-DP      [F,P]     Damp
               ***  Starting incremental Fock matrix formation  ***
                      *** Initiating the SOSCF procedure ***
                      *** Re-Reading the Fockian *** 
                      *** Removing any level shift *** 
ITER      Energy       Delta-E        Grad      Rot      Max-DP    RMS-DP
  0    -79.24660371 -79.2466037124  0.000410  0.000410  0.000319  0.000014
               *** Restarting incremental Fock matrix formation ***
  1    -79.24660481  -0.0000011021  0.000128  0.000129  0.000115  0.000006
  2    -79.24660496  -0.0000001498  0.000049  0.000070  0.000047  0.000003
  3    -79.24660498  -0.0000000143  0.000006  0.000004  0.000008  0.000000
                  ***Gradient check signals convergence***
              ***Rediagonalizing the Fockian in SOSCF/NRSCF***

               *****************************************************
               *                     SUCCESS                       *
               *           SCF CONVERGED AFTER   4 CYCLES          *
               *****************************************************

Total Energy       :          -79.24660498 Eh           -2156.40975 eV
  Last Energy change         ...    3.2523e-10  Tolerance :   1.0000e-08
  Last MAX-Density change    ...    1.9153e-06  Tolerance :   1.0000e-07
             **** THE GBW FILE WAS UPDATED (eclipsed.gbw) ****
             **** DENSITY FILE WAS UPDATED (eclipsed.scfp) ****
             **** ENERGY FILE WAS UPDATED (eclipsed.en.tmp) ****
             **** THE GBW FILE WAS UPDATED (eclipsed.gbw) ****
             **** DENSITY FILE WAS UPDATED (eclipsed.scfp) ****
Total SCF time: 0 days 0 hours 0 min 1 sec 


           ************************************************************
           *        Program running with 2 parallel MPI-processes     *
           *              working on a common directory               *
           ************************************************************

------------------------------------------------------------------------------
                                ORCA  MP2 
------------------------------------------------------------------------------

MP2 will be done in the AO integral direct mode
The Q1-step will be done using symmetric double matrices
Dimension of the basis                    ...   72
Memory devoted for MP2                    ...  256 MB   
Memory needed for all in one shot         ...    8 MB
Number of MOs that can be treated together...  176      
MP2 density construction                  ... relaxed
The MP2 gradient is requested => amplitudes will be stored on disk
Total number of MOs              ...    9
Number of MOs treated per batch  ...    5 
Number of batches necessary      ...    1 
OPERATORS   0/  0 PASS   0
-----------------------------------------------
 MP2 CORRELATION ENERGY   :     -0.356870654 Eh
-----------------------------------------------


---------------------
MP2 DENSITY FORMATION
---------------------

Completing the external part of the density      ... done
Storing the unrelaxed density                    ... done

Calculating G(D)                                 ... done
Completing the Lagrangian                        ... done
Solving the Z-vector equations                   ... 

------------------------------------------------------------------------------
                           ORCA CP-SCF CALCULATION
------------------------------------------------------------------------------

Input orbitals are from        ... eclipsed.gbw
Input Perturbation             ... eclipsed.pin.tmp
Wavefunction output            ... eclipsed.pout.tmp
Perturbation mode              ... Real perturbation (singlet)
Solver                         ... POPLE
Max. number of iterations      ... 128
Convergence tolerance          ... 1.000e-08
Integral handling              ... Direct
Number of perturbations        ... 1
Number of operators            ... 1
Orbital ranges used for CP-SCF:
 Operator 0:  Orbitals   0...  8  to   9... 71
Variables per vector in CP-SCF ... 567
Number of vectors sought       ... 1
     CP-SCF ITERATION   0: 
     CP-SCF ITERATION   1:      0.000073796909
     CP-SCF ITERATION   2:      0.000001541254
     CP-SCF ITERATION   3:      0.000000028794
     CP-SCF ITERATION   4:      0.000000000303
                                                 ... done
Finalizing the relaxed density                   ... done
Transforming P to the AO basis                   ... done
Storing the relaxed density                      ... done

------------------------------------
ENERGY WEIGHTED DENSITY FINALIZATION
[...]
                       ORCA ELECTRIC PROPERTIES CALCULATION
------------------------------------------------------------------------------

Dipole Moment Calculation                       ... on
Quadrupole Moment Calculation                   ... off
Polarizability Calculation                      ... off
GBWName                                         ... eclipsed.gbw
Electron density file                           ... eclipsed.pmp2ur
The origin for moment calculation is the CENTER OF MASS  = (-0.000000, -0.000000 -0.000000)

-------------
DIPOLE MOMENT
-------------
                                X             Y             Z
Electronic contribution:     -0.00000      -0.00000      -0.00000
Nuclear contribution   :      0.00000       0.00000       0.00000
                        -----------------------------------------
Total Dipole Moment    :      0.00000       0.00000       0.00000
                        -----------------------------------------
Magnitude (a.u.)       :      0.00000
Magnitude (Debye)      :      0.00000



--------------------
Rotational spectrum 
--------------------
 
Rotational constants in cm-1:     2.705841     0.656520     0.656520 
Rotational constants in MHz : 81119.072134 19681.989366 19681.989365 

 Dipole components along the rotational axes: 
x,y,z [a.u.] :     0.000000     0.000000    -0.000000 
x,y,z [Debye]:     0.000000     0.000000    -0.000000 

 

                           *** MP2 RELAXED DENSITY ***

------------------------------------------------------------------------------
                       ORCA ELECTRIC PROPERTIES CALCULATION
------------------------------------------------------------------------------

Dipole Moment Calculation                       ... on
Quadrupole Moment Calculation                   ... off
Polarizability Calculation                      ... off
GBWName                                         ... eclipsed.gbw
Electron density file                           ... eclipsed.pmp2re
The origin for moment calculation is the CENTER OF MASS  = (-0.000000, -0.000000 -0.000000)

-------------
DIPOLE MOMENT
-------------
                                X             Y             Z
Electronic contribution:     -0.00000      -0.00000      -0.00000
Nuclear contribution   :      0.00000       0.00000       0.00000
                        -----------------------------------------
Total Dipole Moment    :      0.00000       0.00000       0.00000
                        -----------------------------------------
Magnitude (a.u.)       :      0.00000
Magnitude (Debye)      :      0.00000



--------------------
Rotational spectrum 
--------------------
 
Rotational constants in cm-1:     2.705841     0.656520     0.656520 
Rotational constants in MHz : 81119.072134 19681.989366 19681.989365 

 Dipole components along the rotational axes: 
x,y,z [a.u.] :     0.000000     0.000000    -0.000000 
x,y,z [Debye]:     0.000000     0.000000    -0.000000 

 
------------------------------------------------------------------------------
                         ORCA MP2 H E S S I A N CALCULATION
------------------------------------------------------------------------------

Calculating analytic MP2 second derivatives ... (>eclipsed.last_mp2) done

-----------------------
VIBRATIONAL FREQUENCIES
-----------------------

Scaling factor for frequencies =  1.000000000  (already applied!)

   0:         0.00 cm**-1
   1:         0.00 cm**-1
   2:         0.00 cm**-1
   3:         0.00 cm**-1
   4:         0.00 cm**-1
   5:         0.00 cm**-1
   6:      -326.51 cm**-1 ***imaginary mode***
   7:       907.62 cm**-1
   8:       907.64 cm**-1
   9:      1033.73 cm**-1
  10:      1180.24 cm**-1
  11:      1180.27 cm**-1
  12:      1415.34 cm**-1
  13:      1459.59 cm**-1
  14:      1516.51 cm**-1
  15:      1516.54 cm**-1
  16:      1530.97 cm**-1
  17:      1530.99 cm**-1
  18:      3093.45 cm**-1
  19:      3099.40 cm**-1
  20:      3168.41 cm**-1
  21:      3168.41 cm**-1
  22:      3188.15 cm**-1
  23:      3188.15 cm**-1


------------
NORMAL MODES
------------

These modes are the Cartesian displacements weighted by the diagonal matrix
M(i,i)=1/sqrt(m[i]) where m[i] is the mass of the displaced atom
Thus, these vectors are normalized but *not* orthogonal

                  0          1          2          3          4          5    
      0       0.000000   0.000000   0.000000   0.000000   0.000000   0.000000
      1       0.000000   0.000000   0.000000   0.000000   0.000000   0.000000
      2       0.000000   0.000000   0.000000   0.000000   0.000000   0.000000
      3       0.000000   0.000000   0.000000   0.000000   0.000000   0.000000
      4       0.000000   0.000000   0.000000   0.000000   0.000000   0.000000
      5       0.000000   0.000000   0.000000   0.000000   0.000000   0.000000
      6       0.000000   0.000000   0.000000   0.000000   0.000000   0.000000
      7       0.000000   0.000000   0.000000   0.000000   0.000000   0.000000
      8       0.000000   0.000000   0.000000   0.000000   0.000000   0.000000
      9       0.000000   0.000000   0.000000   0.000000   0.000000   0.000000
     10       0.000000   0.000000   0.000000   0.000000   0.000000   0.000000
     11       0.000000   0.000000   0.000000   0.000000   0.000000   0.000000
     12       0.000000   0.000000   0.000000   0.000000   0.000000   0.000000
     13       0.000000   0.000000   0.000000   0.000000   0.000000   0.000000
     14       0.000000   0.000000   0.000000   0.000000   0.000000   0.000000
     15       0.000000   0.000000   0.000000   0.000000   0.000000   0.000000
     16       0.000000   0.000000   0.000000   0.000000   0.000000   0.000000
     17       0.000000   0.000000   0.000000   0.000000   0.000000   0.000000
     18       0.000000   0.000000   0.000000   0.000000   0.000000   0.000000
     19       0.000000   0.000000   0.000000   0.000000   0.000000   0.000000
     20       0.000000   0.000000   0.000000   0.000000   0.000000   0.000000
     21       0.000000   0.000000   0.000000   0.000000   0.000000   0.000000
     22       0.000000   0.000000   0.000000   0.000000   0.000000   0.000000
     23       0.000000   0.000000   0.000000   0.000000   0.000000   0.000000
                  6          7          8          9         10         11    
      0       0.000000  -0.048100  -0.000000  -0.000002   0.000001  -0.143704
      1       0.000004   0.000000  -0.048098   0.000000   0.143708   0.000001
      2       0.000000   0.000008   0.000000  -0.345195   0.000000   0.000001
      3      -0.000000  -0.048100  -0.000000  -0.000002  -0.000001   0.143704
      4      -0.000004   0.000000  -0.048098  -0.000000  -0.143708  -0.000001
      5       0.000000  -0.000008  -0.000000   0.345195  -0.000000   0.000001
      6      -0.353554   0.209073   0.031213  -0.003568  -0.085898   0.208123
      7      -0.204134   0.031218   0.173021   0.006188  -0.108968   0.085878
      8       0.000002  -0.253071   0.438348  -0.356248  -0.432664  -0.249821
      9       0.353554   0.209074  -0.031211  -0.003568   0.085895   0.208124
     10      -0.204134  -0.031219   0.173020  -0.006188  -0.108967  -0.085880
     11      -0.000002  -0.253066  -0.438351  -0.356248   0.432667  -0.249816
     12      -0.000000   0.154992   0.000001   0.007166  -0.000000   0.059395
     13       0.408236  -0.000001   0.227081  -0.000000  -0.257769  -0.000002
     14      -0.000000   0.506166   0.000003  -0.356177  -0.000003   0.499621
     15      -0.353554   0.209074  -0.031211  -0.003568  -0.085895  -0.208124
     16       0.204134  -0.031219   0.173020  -0.006188   0.108967   0.085880
     17      -0.000002   0.253066   0.438351   0.356248   0.432667  -0.249816
     18       0.353554   0.209073   0.031213  -0.003568   0.085898  -0.208123
     19       0.204134   0.031218   0.173021   0.006188   0.108968  -0.085878
     20       0.000002   0.253071  -0.438348   0.356248  -0.432664  -0.249821
     21       0.000000   0.154992   0.000001   0.007166   0.000000  -0.059395
     22      -0.408236  -0.000001   0.227081   0.000000   0.257769   0.000002
     23      -0.000000  -0.506166  -0.000003   0.356177  -0.000003   0.499621
                 12         13         14         15         16         17    
      0      -0.000000   0.000001  -0.000000   0.022522  -0.000000  -0.049399
      1       0.000000  -0.000000   0.022510   0.000000   0.049400  -0.000000
      2      -0.092838  -0.094539  -0.000000   0.000002   0.000000  -0.000004
      3       0.000000   0.000001   0.000000  -0.022522  -0.000000  -0.049399
      4       0.000000  -0.000000  -0.022510  -0.000000   0.049400  -0.000000
      5      -0.092838   0.094539  -0.000000   0.000002   0.000000   0.000004
      6      -0.083411  -0.084847  -0.261930  -0.334494  -0.274902   0.354926
      7       0.144444   0.146948  -0.032017  -0.261962  -0.037495   0.274900
      8       0.368736   0.367278   0.249300  -0.143920   0.199714   0.115314
      9      -0.083411  -0.084847   0.261935  -0.334491   0.274907   0.354923
     10      -0.144444  -0.146948  -0.032020   0.261961  -0.037499  -0.274900
     11       0.368736   0.367278  -0.249298  -0.143924  -0.199712   0.115317
     12       0.166807   0.169686  -0.000001   0.119184  -0.000001  -0.121229
     13      -0.000000   0.000000  -0.485721  -0.000003  -0.513646   0.000003
     14       0.368756   0.367283  -0.000002   0.287824  -0.000002  -0.230620
     15       0.083411  -0.084847  -0.261935   0.334491   0.274907   0.354923
     16       0.144444  -0.146948   0.032020  -0.261961  -0.037499  -0.274900
     17       0.368736  -0.367278  -0.249298  -0.143924   0.199712  -0.115317
     18       0.083411  -0.084847   0.261930   0.334494  -0.274902   0.354926
     19      -0.144444   0.146948   0.032017   0.261962  -0.037495   0.274900
     20       0.368736  -0.367278   0.249300  -0.143920  -0.199714  -0.115314
     21      -0.166807   0.169686   0.000001  -0.119184  -0.000001  -0.121229
     22      -0.000000   0.000000   0.485721   0.000003  -0.513646   0.000003
     23       0.368756  -0.367283  -0.000002   0.287824   0.000002   0.230620
                 18         19         20         21         22         23    
      0       0.000016   0.000006  -0.000003  -0.065755   0.065480   0.000001
      1      -0.000000  -0.000000   0.065756  -0.000003  -0.000001   0.065479
      2      -0.034890   0.037948  -0.000000  -0.000010  -0.000004  -0.000000
      3      -0.000016   0.000006   0.000003   0.065755   0.065480   0.000001
      4       0.000000   0.000000  -0.065756   0.000003  -0.000001   0.065479
      5      -0.034890  -0.037948  -0.000000  -0.000010   0.000004   0.000000
      6       0.191719  -0.191737   0.238688   0.122987  -0.121954   0.239205
      7      -0.332026   0.332118  -0.398545  -0.238762   0.239176  -0.398179
      8       0.138550  -0.138375   0.178689   0.103198  -0.103195   0.178759
      9       0.191719  -0.191737  -0.238678   0.123007  -0.121944  -0.239210
     10       0.332026  -0.332118  -0.398525   0.238794  -0.239160  -0.398189
     11       0.138550  -0.138375  -0.178681   0.103212  -0.103187  -0.178763
     12      -0.383636   0.383400   0.000022   0.536222  -0.536336  -0.000011
     13      -0.000000  -0.000000   0.014850  -0.000001  -0.000000   0.016136
     14       0.138633  -0.138340  -0.000008  -0.206286   0.206430   0.000004
     15      -0.191719  -0.191737   0.238678  -0.123007  -0.121944  -0.239210
     16      -0.332026  -0.332118   0.398525  -0.238794  -0.239160  -0.398189
     17       0.138550   0.138375  -0.178681   0.103212   0.103187   0.178763
     18      -0.191719  -0.191737  -0.238688  -0.122987  -0.121954   0.239205
     19       0.332026   0.332118   0.398545   0.238762   0.239176  -0.398179
     20       0.138550   0.138375   0.178689   0.103198   0.103195  -0.178759
     21       0.383636   0.383400  -0.000022  -0.536222  -0.536336  -0.000011
     22       0.000000  -0.000000  -0.014850   0.000001  -0.000000   0.016136
     23       0.138633   0.138340  -0.000008  -0.206286  -0.206430  -0.000004


-----------
IR SPECTRUM
-----------

 Mode    freq (cm**-1)   T**2         TX         TY         TZ
-------------------------------------------------------------------
   7:       907.62    2.833992  (  1.683446  -0.000009   0.000000)
   8:       907.64    2.836036  (  0.000009   1.684053   0.000000)
   9:      1033.73    0.000000  (  0.000036   0.000000   0.000000)
  10:      1180.24    0.000000  ( -0.000000  -0.000000  -0.000000)
  11:      1180.27    0.000000  ( -0.000000   0.000000   0.000418)
  12:      1415.34    1.404006  (  0.000000  -0.000000   1.184907)
  13:      1459.59    0.000000  (  0.000241   0.000000   0.000000)
  14:      1516.51    0.000000  ( -0.000000   0.000000   0.000000)
  15:      1516.54    0.000001  ( -0.000000  -0.000000  -0.000885)
  16:      1530.97   10.963609  (  0.000022  -3.311134  -0.000000)
  17:      1530.99   10.955811  (  3.309956   0.000022  -0.000000)
  18:      3093.45   54.383540  ( -0.000000   0.000000  -7.374520)
  19:      3099.40    0.000002  (  0.001527   0.000000  -0.000000)
  20:      3168.41    0.000000  ( -0.000000   0.000000  -0.000000)
  21:      3168.41    0.000004  (  0.000000   0.000000  -0.001950)
  22:      3188.15   49.021705  (  7.001550  -0.000145  -0.000000)
  23:      3188.15   49.014329  (  0.000145   7.001023   0.000000)

The first frequency considered to be a vibration is 7
The total number of vibrations considered is 17


--------------------------
THERMOCHEMISTRY AT 298.15K
--------------------------

Temperature         ... 298.15 K
Pressure            ... 1.00 atm
Total Mass          ... 30.07 AMU

Throughout the following assumptions are being made:
  (1) The electronic state is orbitally nondegenerate
  (2) There are no thermally accessible electronically excited states
  (3) Hindered rotations indicated by low frequency modes are not
      treated as such but are treated as vibrations and this may
      cause some error
  (4) All equations used are the standard statistical mechanics
      equations for an ideal gas
  (5) All vibrations are strictly harmonic

freq.     907.62  E(vib)   ...       0.03 
freq.     907.64  E(vib)   ...       0.03 
freq.    1033.73  E(vib)   ...       0.02 
freq.    1180.24  E(vib)   ...       0.01 
freq.    1180.27  E(vib)   ...       0.01 
freq.    1415.34  E(vib)   ...       0.00 
freq.    1459.59  E(vib)   ...       0.00 
freq.    1516.51  E(vib)   ...       0.00 
freq.    1516.54  E(vib)   ...       0.00 
freq.    1530.97  E(vib)   ...       0.00 
freq.    1530.99  E(vib)   ...       0.00 
freq.    3093.45  E(vib)   ...       0.00 
freq.    3099.40  E(vib)   ...       0.00 
freq.    3168.41  E(vib)   ...       0.00 
freq.    3168.41  E(vib)   ...       0.00 
freq.    3188.15  E(vib)   ...       0.00 
freq.    3188.15  E(vib)   ...       0.00 

------------
INNER ENERGY
------------

The inner energy is: U= E(el) + E(ZPE) + E(vib) + E(rot) + E(trans)
    E(el)   - is the total energy from the electronic structure calculation
              = E(kin-el) + E(nuc-el) + E(el-el) + E(nuc-nuc)
    E(ZPE)  - the the zero temperature vibrational energy from the frequency calculation
    E(vib)  - the the finite temperature correction to E(ZPE) due to population
              of excited vibrational states
    E(rot)  - is the rotational thermal energy
    E(trans)- is the translational thermal energy

Summary of contributions to the inner energy U:
Electronic energy                ...    -79.60347918 Eh
Zero point energy                ...      0.07537412 Eh      47.30 kcal/mol
Thermal vibrational correction   ...      0.00020416 Eh       0.13 kcal/mol
Thermal rotational correction    ...      0.00141627 Eh       0.89 kcal/mol
Thermal translational correction ...      0.00141627 Eh       0.89 kcal/mol
-----------------------------------------------------------------------
Total thermal energy                    -79.52506835 Eh


Summary of corrections to the electronic energy:
(perhaps to be used in another calculation)
Total thermal correction                  0.00303670 Eh       1.91 kcal/mol
Non-thermal (ZPE) correction              0.07537412 Eh      47.30 kcal/mol
-----------------------------------------------------------------------
Total correction                          0.07841083 Eh      49.20 kcal/mol


--------
ENTHALPY
--------

The enthalpy is H = U + kB*T
                kB is Boltzmann's constant
Total free energy                 ...    -79.52506835 Eh 
Thermal Enthalpy correction       ...      0.00094421 Eh       0.59 kcal/mol
-----------------------------------------------------------------------
Total Enthalpy                    ...    -79.52412414 Eh


Note: Rotational entropy computed according to Herzberg 
Infrared and Raman Spectra, Chapter V,1, Van Nostrand Reinhold, 1945 
Point Group:  D3h, Symmetry Number:   6  
Rotational constants in cm-1:     2.705841     0.656520     0.656520 

Vibrational entropy computed according to the QRRHO of S. Grimme
Chem.Eur.J. 2012 18 9955


-------
ENTROPY
-------

The entropy contributions are T*S = T*(S(el)+S(vib)+S(rot)+S(trans))
     S(el)   - electronic entropy
     S(vib)  - vibrational entropy
     S(rot)  - rotational entropy
     S(trans)- translational entropy
The entropies will be listed as mutliplied by the temperature to get
units of energy

Electronic entropy                ...      0.00000000 Eh      0.00 kcal/mol
Vibrational entropy               ...      0.00024516 Eh      0.15 kcal/mol
Rotational entropy                ...      0.00774645 Eh      4.86 kcal/mol
Translational entropy             ...      0.01716939 Eh     10.77 kcal/mol
-----------------------------------------------------------------------
Final entropy term                ...      0.02516101 Eh     15.79 kcal/mol

In case the symmetry of your molecule has not been determined correctly
or in case you have a reason to use a different symmetry number we print 
out the resulting rotational entropy values for sn=1,12 :
 --------------------------------------------------------
|  sn= 1 | S(rot)=       0.00943820 Eh      5.92 kcal/mol|
|  sn= 2 | S(rot)=       0.00878374 Eh      5.51 kcal/mol|
|  sn= 3 | S(rot)=       0.00840091 Eh      5.27 kcal/mol|
|  sn= 4 | S(rot)=       0.00812929 Eh      5.10 kcal/mol|
|  sn= 5 | S(rot)=       0.00791860 Eh      4.97 kcal/mol|
|  sn= 6 | S(rot)=       0.00774645 Eh      4.86 kcal/mol|
|  sn= 7 | S(rot)=       0.00760091 Eh      4.77 kcal/mol|
|  sn= 8 | S(rot)=       0.00747483 Eh      4.69 kcal/mol|
|  sn= 9 | S(rot)=       0.00736362 Eh      4.62 kcal/mol|
|  sn=10 | S(rot)=       0.00726414 Eh      4.56 kcal/mol|
|  sn=11 | S(rot)=       0.00717415 Eh      4.50 kcal/mol|
|  sn=12 | S(rot)=       0.00709200 Eh      4.45 kcal/mol|
 --------------------------------------------------------


-------------------
GIBBS FREE ENERGY
-------------------

The Gibbs free energy is G = H - T*S

Total enthalpy                    ...    -79.52412414 Eh 
Total entropy correction          ...     -0.02516101 Eh    -15.79 kcal/mol
-----------------------------------------------------------------------
Final Gibbs free energy         ...    -79.54928515 Eh

For completeness - the Gibbs free energy minus the electronic energy
G-E(el)                           ...      0.05419403 Eh     34.01 kcal/mol


Timings for individual modules:

Sum of individual times         ...      158.161 sec (=   2.636 min)
GTO integral calculation        ...        3.111 sec (=   0.052 min)   2.0 %
SCF iterations                  ...       12.272 sec (=   0.205 min)   7.8 %
MP2 module                      ...       21.387 sec (=   0.356 min)  13.5 %
Geometry relaxation             ...        0.766 sec (=   0.013 min)   0.5 %
Analytical frequency calculation...      120.625 sec (=   2.010 min)  76.3 %
                             ****ORCA TERMINATED NORMALLY****
TOTAL RUN TIME: 0 days 0 hours 2 minutes 39 seconds 666 msec
