
                                 *****************
                                 * O   R   C   A *
                                 *****************

           --- An Ab Initio, DFT and Semiempirical electronic structure package ---

                  #######################################################
                  #                        -***-                        #
                  #          Department of theory and spectroscopy      #
                  #               Directorship: Frank Neese             #
                  #        Max Planck Institute fuer Kohlenforschung    #
                  #                Kaiser Wilhelm Platz 1               #
                  #                 D-45470 Muelheim/Ruhr               #
                  #                      Germany                        #
                  #                                                     #
                  #                  All rights reserved                #
                  #                        -***-                        #
                  #######################################################


                         Program Version 4.2.1 -  RELEASE  -


 With contributions from (in alphabetic order):
   Daniel Aravena         : Magnetic Suceptibility
   Michael Atanasov       : Ab Initio Ligand Field Theory (pilot matlab implementation)
   Alexander A. Auer      : GIAO ZORA, VPT2
   Ute Becker             : Parallelization
   Giovanni Bistoni       : ED, misc. LED, open-shell LED, HFLD
   Martin Brehm           : Molecular dynamics
   Dmytro Bykov           : SCF Hessian
   Vijay G. Chilkuri      : MRCI spin determinant printing, contributions to CSF-ICE
   Dipayan Datta          : RHF DLPNO-CCSD density
   Achintya Kumar Dutta   : EOM-CC, STEOM-CC
   Dmitry Ganyushin       : Spin-Orbit,Spin-Spin,Magnetic field MRCI
   Miquel Garcia          : C-PCM Hessian, Gaussian charge scheme
   Yang Guo               : DLPNO-NEVPT2, CIM, IAO-localization
   Andreas Hansen         : Spin unrestricted coupled pair/coupled cluster methods
   Benjamin Helmich-Paris : CASSCF linear response (MC-RPA)
   Lee Huntington         : MR-EOM, pCC
   Robert Izsak           : Overlap fitted RIJCOSX, COSX-SCS-MP3, EOM
   Christian Kollmar      : KDIIS, OOCD, Brueckner-CCSD(T), CCSD density
   Simone Kossmann        : Meta GGA functionals, TD-DFT gradient, OOMP2, MP2 Hessian
   Martin Krupicka        : AUTO-CI
   Lucas Lang             : DCDCAS
   Dagmar Lenk            : GEPOL surface, SMD
   Dimitrios Liakos       : Extrapolation schemes; Compound Job, initial MDCI parallelization
   Dimitrios Manganas     : Further ROCIS development; embedding schemes
   Dimitrios Pantazis     : SARC Basis sets
   Taras Petrenko         : DFT Hessian,TD-DFT gradient, ASA, ECA, R-Raman, ABS, FL, XAS/XES, NRVS
   Peter Pinski           : DLPNO-MP2, DLPNO-MP2 Gradient
   Christoph Reimann      : Effective Core Potentials
   Marius Retegan         : Local ZFS, SOC
   Christoph Riplinger    : Optimizer, TS searches, QM/MM, DLPNO-CCSD(T), (RO)-DLPNO pert. Triples
   Tobias Risthaus        : Range-separated hybrids, TD-DFT gradient, RPA, STAB
   Michael Roemelt        : Original ROCIS implementation
   Masaaki Saitow         : Open-shell DLPNO-CCSD energy and density
   Barbara Sandhoefer     : DKH picture change effects
   Avijit Sen             : IP-ROCIS
   Kantharuban Sivalingam : CASSCF convergence, NEVPT2, FIC-MRCI
   Bernardo de Souza      : ESD, SOC TD-DFT
   Georgi Stoychev        : AutoAux, RI-MP2 NMR
   Willem Van den Heuvel  : Paramagnetic NMR
   Boris Wezisla          : Elementary symmetry handling
   Frank Wennmohs         : Technical directorship


 We gratefully acknowledge several colleagues who have allowed us to
 interface, adapt or use parts of their codes:
   Stefan Grimme, W. Hujo, H. Kruse,             : VdW corrections, initial TS optimization,
                  C. Bannwarth                     DFT functionals, gCP, sTDA/sTD-DF
   Ed Valeev, F. Pavosevic, A. Kumar             : LibInt (2-el integral package), F12 methods
   Garnet Chan, S. Sharma, J. Yang, R. Olivares  : DMRG
   Ulf Ekstrom                                   : XCFun DFT Library
   Mihaly Kallay                                 : mrcc  (arbitrary order and MRCC methods)
   Andreas Klamt, Michael Diedenhofen            : otool_cosmo (COSMO solvation model)
   Jiri Pittner, Ondrej Demel                    : Mk-CCSD
   Frank Weinhold                                : gennbo (NPA and NBO analysis)
   Christopher J. Cramer and Donald G. Truhlar   : smd solvation model
   Lars Goerigk                                  : TD-DFT with DH, B97 family of functionals
   V. Asgeirsson, H. Jonsson                     : NEB implementation
   FAccTs GmbH                                   : IRC, NEB, NEB-TS, Multilevel, MM, QM/MM, CI optimization
   S Lehtola, MJT Oliveira, MAL Marques          : LibXC Library


 Your calculation uses the libint2 library for the computation of 2-el integrals
 For citations please refer to: http://libint.valeyev.net

 Your ORCA version has been built with support for libXC version: 4.2.3
 For citations please refer to: https://tddft.org/programs/libxc/

 This ORCA versions uses:
   CBLAS   interface :  Fast vector & matrix operations
   LAPACKE interface :  Fast linear algebra routines
   SCALAPACK package :  Parallel linear algebra routines




***************************************
The coordinates will be read from file: NH2·.xyz
***************************************


Your calculation utilizes the geometrical counterpoise correction gCP
Please cite in your paper:
H.Kruse, S. Grimme J.Chem.Phys., 136, (2012), 154101 
   

Your calculation utilizes the atom-pairwise dispersion correction
based on tight binding partial charges (D4)
Cite in your paper:
E.Caldeweyher, C.Bannwarth, S.Grimme, J.Chem.Phys., (2017), 147, 034112.
E.Caldeweyher, S.Ehlert, A.Hansen, H.Neugebauer, S.Grimme, J.Chem.Phys., (2018), in progress.
   

Your calculation utilizes the SMD solvation module
Please cite in your paper:
A.V. Marenich, C.J. Cramer, D.G. Truhlar J. Phys. Chem. B, 113, (2009), 6378 

----- Orbital basis set information -----
Your calculation utilizes the basis: def2-TZVP
   F. Weigend and R. Ahlrichs, Phys. Chem. Chem. Phys. 7, 3297 (2005).

----- AuxJ basis set information -----
Your calculation utilizes the auxiliary basis: def2/J
   F. Weigend, Phys. Chem. Chem. Phys. 8, 1057 (2006).

================================================================================
                                        WARNINGS
                       Please study these warnings very carefully!
================================================================================


WARNING: Geometry Optimization
  ===> : Switching off AutoStart
         For restart on a previous wavefunction, please use MOREAD

INFO   : the flag for use of LIBINT has been found!

================================================================================
                                       INPUT FILE
================================================================================
NAME = NH2·.inp
|  1> ! UHF BLYP D4 gCP(DFT/TZ) def2-TZVP Opt Freq TightOpt TightSCF Grid4 FinalGrid5 PrintBasis PrintMOs NBO
|  2> # BLYP > B97 > revPBE are excellent choices for geometry optimizations
|  3> 
|  4> %pal
|  5>  nprocs 8
|  6> end
|  7> 
|  8> %cpcm
|  9>  smd true
| 10>  smdsolvent "water"
| 11> end
| 12> 
| 13> *xyzfile 0 2 NH2·.xyz
| 14> 
| 15>                          ****END OF INPUT****
================================================================================

                       *****************************
                       * Geometry Optimization Run *
                       *****************************

Geometry optimization settings:
Update method            Update   .... BFGS
Choice of coordinates    CoordSys .... Z-matrix Internals
Initial Hessian          InHess   .... Almoef's Model

Convergence Tolerances:
Energy Change            TolE     ....  1.0000e-06 Eh
Max. Gradient            TolMAXG  ....  1.0000e-04 Eh/bohr
RMS Gradient             TolRMSG  ....  3.0000e-05 Eh/bohr
Max. Displacement        TolMAXD  ....  1.0000e-03 bohr
RMS Displacement         TolRMSD  ....  6.0000e-04 bohr
Strict Convergence                ....  False
------------------------------------------------------------------------------
                        ORCA OPTIMIZATION COORDINATE SETUP
------------------------------------------------------------------------------

The optimization will be done in new redundant internal coordinates
Making redundant internal coordinates   ...  (new redundants) done
Evaluating the initial hessian          ...  (Almloef) done
Evaluating the coordinates              ...  done
Calculating the B-matrix                .... done
Calculating the G-matrix                .... done
Diagonalizing the G-matrix              .... done
The first mode is                       ....    0
The number of degrees of freedom        ....    3

    -----------------------------------------------------------------
                    Redundant Internal Coordinates


    -----------------------------------------------------------------
         Definition                    Initial Value    Approx d2E/dq
    -----------------------------------------------------------------
      1. B(H   1,N   0)                  1.0370         0.391859   
      2. B(H   2,N   0)                  1.0369         0.391935   
      3. A(H   1,N   0,H   2)          102.6478         0.293861   
    -----------------------------------------------------------------

Number of atoms                         .... 3
Number of degrees of freedom            .... 3

         *************************************************************
         *                GEOMETRY OPTIMIZATION CYCLE   1            *
         *************************************************************
---------------------------------
CARTESIAN COORDINATES (ANGSTROEM)
---------------------------------
  N     -4.106851   -0.476836    0.052940
  H     -4.434272   -1.449437   -0.096052
  H     -4.434177    0.006703   -0.803968

----------------------------
CARTESIAN COORDINATES (A.U.)
----------------------------
  NO LB      ZA    FRAG     MASS         X           Y           Z
   0 N     7.0000    0    14.007   -7.760823   -0.901090    0.100042
   1 H     1.0000    0     1.008   -8.379560   -2.739038   -0.181512
   2 H     1.0000    0     1.008   -8.379381    0.012667   -1.519279

--------------------------------
INTERNAL COORDINATES (ANGSTROEM)
--------------------------------
 N      0   0   0     0.000000000000     0.00000000     0.00000000
 H      1   0   0     1.036992991297     0.00000000     0.00000000
 H      1   2   0     1.036939956662   102.64778287     0.00000000

---------------------------
INTERNAL COORDINATES (A.U.)
---------------------------
 N      0   0   0     0.000000000000     0.00000000     0.00000000
 H      1   0   0     1.959632756347     0.00000000     0.00000000
 H      1   2   0     1.959532535411   102.64778287     0.00000000

---------------------
BASIS SET INFORMATION
---------------------
There are 2 groups of distinct atoms

 Group   1 Type N   : 11s6p2d1f contracted to 5s3p2d1f pattern {62111/411/11/1}
 Group   2 Type H   : 5s1p contracted to 3s1p pattern {311/1}

Atom   0N    basis set group =>   1
Atom   1H    basis set group =>   2
Atom   2H    basis set group =>   2

-------------------------
BASIS SET IN INPUT FORMAT
-------------------------

 # Basis set for element : H 
 NewGTO H 
 S 3 
   1      34.0613410000      0.0254393072
   2       5.1235746000      0.1900859489
   3       1.1646626000      0.8524411301
 S 1 
   1       0.3272304100      1.0000000000
 S 1 
   1       0.1030724100      1.0000000000
 P 1 
   1       0.8000000000      1.0000000000
  end;

 # Basis set for element : N 
 NewGTO N 
 S 6 
   1   19730.8006470000      0.0005862639
   2    2957.8958745000      0.0045428821
   3     673.2213359500      0.0235584136
   4     190.6824949400      0.0947091933
   5      62.2954418980      0.2971978492
   6      22.6541611820      0.6691624689
 S 2 
   1       8.9791477428      0.6459668363
   2       3.6863002370      0.3870057440
 S 1 
   1       0.8466007680      1.0000000000
 S 1 
   1       0.3364713377      1.0000000000
 S 1 
   1       0.1364765367      1.0000000000
 P 4 
   1      49.2003805100      0.0114488252
   2      11.3467905370      0.0784223379
   3       3.4273972411      0.3081809474
   4       1.1785525134      0.7202719637
 P 1 
   1       0.4164220497      1.0000000000
 P 1 
   1       0.1426082601      1.0000000000
 D 1 
   1       1.6540000000      1.0000000000
 D 1 
   1       0.4690000000      1.0000000000
 F 1 
   1       1.0930000000      1.0000000000
  end;

---------------------------------
AUXILIARY/J BASIS SET INFORMATION
---------------------------------
There are 2 groups of distinct atoms

 Group   1 Type N   : 12s5p4d2f1g contracted to 6s4p3d1f1g pattern {711111/2111/211/2/1}
 Group   2 Type H   : 5s2p1d contracted to 3s1p1d pattern {311/2/1}

Atom   0N    basis set group =>   1
Atom   1H    basis set group =>   2
Atom   2H    basis set group =>   2

-------------------------------------
AUXILIARY/J BASIS SET IN INPUT FORMAT
-------------------------------------

 # Auxiliary/J basis set for element : H 
 NewAuxJGTO H 
 S 3 
   1      15.6752927000      0.1007184237
   2       3.6063578000      0.3404257499
   3       1.2080016000      0.6491996172
 S 1 
   1       0.4726794000      1.0000000000
 S 1 
   1       0.2018100000      1.0000000000
 P 2 
   1       2.0281365000      0.5596620919
   2       0.5358730000      0.5596620919
 D 1 
   1       2.2165124000      1.0000000000
  end;

 # Auxiliary/J basis set for element : N 
 NewAuxJGTO N 
 S 7 
   1    2542.9401785000      0.0128431329
   2    1029.5472946000      0.0206655120
   3     424.9053546000      0.0652200677
   4     178.4573708000      0.1617388940
   5      76.1362742000      0.3094256941
   6      32.9338653000      0.3918849307
   7      14.4155436000      0.1822470660
 S 1 
   1       6.3718891000     -1.0000000000
 S 1 
   1       2.8381742000      1.0000000000
 S 1 
   1       1.2711793000      1.0000000000
 S 1 
   1       0.5712407000      1.0000000000
 S 1 
   1       0.2569887000      1.0000000000
 P 2 
   1      17.8975990000     -1.0974070137
   2       6.5346319000      0.1380055963
 P 1 
   1       2.3523645000      1.0000000000
 P 1 
   1       0.8397377000      1.0000000000
 P 1 
   1       0.2989335000      1.0000000000
 D 2 
   1       7.6909870000      0.1770780943
   2       2.3044972000      0.8918319220
 D 1 
   1       0.8403987000      1.0000000000
 D 1 
   1       0.3303797000      1.0000000000
 F 2 
   1       2.3331076000      0.6223178877
   2       0.8446137000      0.5036714203
 G 1 
   1       1.4037700000     -1.0000000000
  end;



           ************************************************************
           *        Program running with 8 parallel MPI-processes     *
           *              working on a common directory               *
           ************************************************************
------------------------------------------------------------------------------
                           ORCA GTO INTEGRAL CALCULATION
                           -- RI-GTO INTEGRALS CHOSEN --
------------------------------------------------------------------------------

                         BASIS SET STATISTICS AND STARTUP INFO

Gaussian basis set:
 # of primitive gaussian shells          ...   32
 # of primitive gaussian functions       ...   62
 # of contracted shells                  ...   19
 # of contracted basis functions         ...   43
 Highest angular momentum                ...    3
 Maximum contraction depth               ...    6
Auxiliary gaussian basis set:
 # of primitive gaussian shells          ...   40
 # of primitive gaussian functions       ...  102
 # of contracted shells                  ...   25
 # of contracted aux-basis functions     ...   71
 Highest angular momentum                ...    4
 Maximum contraction depth               ...    7
Ratio of auxiliary to basis functions    ...  1.65
Integral package used                  ... LIBINT
 One Electron integrals                  ... done
 Ordering auxiliary basis shells         ... done
 Integral threshhold             Thresh  ...  2.500e-11
 Primitive cut-off               TCut    ...  2.500e-12
 Pre-screening matrix                    ... done
 Shell pair data                         ... 
 Ordering of the shell pairs             ... done (   0.000 sec) 190 of 190 pairs
 Determination of significant pairs      ... done (   0.000 sec)
 Creation of shell pair data             ... done (   0.000 sec)
 Storage of shell pair data              ... done (   0.000 sec)
 Shell pair data done in (   0.000 sec)
 Computing two index integrals           ... done
 Cholesky decomposition of the V-matrix  ... done


Timings:
 Total evaluation time                   ...   0.139 sec (  0.002 min)
 One electron matrix time                ...   0.006 sec (  0.000 min) =  4.2%
 Schwartz matrix evaluation time         ...   0.113 sec (  0.002 min) = 80.8%
 Two index repulsion integral time       ...   0.000 sec (  0.000 min) =  0.2%
 Cholesky decomposition of V             ...   0.000 sec (  0.000 min) =  0.3%
 Three index repulsion integral time     ...   0.000 sec (  0.000 min) =  0.0%



           ************************************************************
           *        Program running with 8 parallel MPI-processes     *
           *              working on a common directory               *
           ************************************************************
-------------------------------------------------------------------------------
                                 ORCA SCF
-------------------------------------------------------------------------------

------------
SCF SETTINGS
------------
Hamiltonian:
 Density Functional     Method          .... DFT(GTOs)
 Exchange Functional    Exchange        .... B88
   X-Alpha parameter    XAlpha          ....  0.666667
   Becke's b parameter  XBeta           ....  0.004200
 Correlation Functional Correlation     .... LYP
 Gradients option       PostSCFGGA      .... off
   Density functional embedding theory  .... OFF
   NL short-range parameter             ....  4.000000
 RI-approximation to the Coulomb term is turned on
   Number of auxiliary basis functions  .... 71


General Settings:
 Integral files         IntName         .... NH2·
 Hartree-Fock type      HFTyp           .... UHF
 Total Charge           Charge          ....    0
 Multiplicity           Mult            ....    2
 Number of Electrons    NEL             ....    9
 Basis Dimension        Dim             ....   43
 Nuclear Repulsion      ENuc            ....      7.4712124312 Eh

Convergence Acceleration:
 DIIS                   CNVDIIS         .... on
   Start iteration      DIISMaxIt       ....    12
   Startup error        DIISStart       ....  0.200000
   # of expansion vecs  DIISMaxEq       ....     5
   Bias factor          DIISBfac        ....   1.050
   Max. coefficient     DIISMaxC        ....  10.000
 Newton-Raphson         CNVNR           .... off
 SOSCF                  CNVSOSCF        .... off
 Level Shifting         CNVShift        .... on
   Level shift para.    LevelShift      ....    0.2500
   Turn off err/grad.   ShiftErr        ....    0.0010
 Zerner damping         CNVZerner       .... off
 Static damping         CNVDamp         .... on
   Fraction old density DampFac         ....    0.7000
   Max. Damping (<1)    DampMax         ....    0.9800
   Min. Damping (>=0)   DampMin         ....    0.0000
   Turn off err/grad.   DampErr         ....    0.1000
 Fernandez-Rico         CNVRico         .... off

SCF Procedure:
 Maximum # iterations   MaxIter         ....   125
 SCF integral mode      SCFMode         .... Direct
   Integral package                     .... LIBINT
 Reset frequency        DirectResetFreq ....    20
 Integral Threshold     Thresh          ....  2.500e-11 Eh
 Primitive CutOff       TCut            ....  2.500e-12 Eh

Convergence Tolerance:
 Convergence Check Mode ConvCheckMode   .... Total+1el-Energy
 Convergence forced     ConvForced      .... 0
 Energy Change          TolE            ....  1.000e-08 Eh
 1-El. energy change                    ....  1.000e-05 Eh
 DIIS Error             TolErr          ....  5.000e-07


Diagonalization of the overlap matrix:
Smallest eigenvalue                        ... 6.315e-03
Time for diagonalization                   ...    0.001 sec
Threshold for overlap eigenvalues          ... 1.000e-08
Number of eigenvalues below threshold      ... 0
Time for construction of square roots      ...    0.001 sec
Total time needed                          ...    0.002 sec

-------------------
DFT GRID GENERATION
-------------------

General Integration Accuracy     IntAcc      ...  4.670
Radial Grid Type                 RadialGrid  ... Gauss-Chebyshev
Angular Grid (max. acc.)         AngularGrid ... Lebedev-302
Angular grid pruning method      GridPruning ... 3 (G Style)
Weight generation scheme         WeightScheme... Becke
Basis function cutoff            BFCut       ...    1.0000e-11
Integration weight cutoff        WCut        ...    1.0000e-14
Grids for H and He will be reduced by one unit

# of grid points (after initial pruning)     ...  13000 (   0.0 sec)
# of grid points (after weights+screening)   ...  12928 (   0.0 sec)
nearest neighbour list constructed           ...    0.0 sec
Grid point re-assignment to atoms done       ...    0.0 sec
Grid point division into batches done        ...    0.0 sec
Reduced shell lists constructed in    0.1 sec

Total number of grid points                  ...    12928
Total number of batches                      ...      204
Average number of points per batch           ...       63
Average number of grid points per atom       ...     4309
Average number of shells per batch           ...    13.37 (70.37%)
Average number of basis functions per batch  ...    31.00 (72.09%)
Average number of large shells per batch     ...    11.44 (85.60%)
Average number of large basis fcns per batch ...    26.48 (85.42%)
Maximum spatial batch extension              ...  17.13, 14.41, 14.00 au
Average spatial batch extension              ...   0.78,  0.71,  0.68 au

Time for grid setup =    0.071 sec

------------------------------
INITIAL GUESS: MODEL POTENTIAL
------------------------------
Loading Hartree-Fock densities                     ... done
Calculating cut-offs                               ... done
Setting up the integral package                    ... done
Initializing the effective Hamiltonian             ... done
Starting the Coulomb interaction                   ... done (   0.0 sec)
Reading the grid                                   ... done
Mapping shells                                     ... done
Starting the XC term evaluation                    ... done (   0.0 sec)
  promolecular density results
     # of electrons  =      8.999020628
     EX              =     -7.087355573
     EC              =     -0.281592030
     EX+EC           =     -7.368947602
Transforming the Hamiltonian                       ... done (   0.0 sec)
Diagonalizing the Hamiltonian                      ... done (   0.0 sec)
Back transforming the eigenvectors                 ... done (   0.0 sec)
Now organizing SCF variables                       ... done
                      ------------------
                      INITIAL GUESS DONE (   0.2 sec)
                      ------------------

--------------------
CPCM SOLVATION MODEL
--------------------
CPCM parameters:
  Epsilon                                         ...      78.3550
  Refrac                                          ...       1.0000
  Rsolv                                           ...       1.3000
  Surface type                                    ...    GEPOL SES
  Epsilon function type                           ...         CPCM
Solvent:                                     ... WATER
SMD-CDS solvent descriptors:
  Soln                                       ...    1.3328
  Soln25                                     ...    1.3323
  Sola                                       ...    0.0000
  Solb                                       ...    0.0000
  Solg                                       ...    0.0000
  Solc                                       ...    0.0000
  Solh                                       ...    0.0000
Radii:
 Radius for N  used is    3.5716 Bohr (=   1.8900 Ang.)
 Radius for H  used is    2.2677 Bohr (=   1.2000 Ang.)
Calculating surface                               ...        done! (  0.0s)
GEPOL surface points                              ...          109
GEPOL Volume                                      ...     201.7728
GEPOL Surface-area                                ...     168.3204
Calculating surface distance matrix               ...        done! (  0.0s)
Performing Cholesky decomposition & store         ...        done! (  0.0s)
Overall time for CPCM initialization              ...                 0.0s
--------------
SCF ITERATIONS
--------------
ITER       Energy         Delta-E        Max-DP      RMS-DP      [F,P]     Damp
               ***  Starting incremental Fock matrix formation  ***
  0    -55.8500514797   0.000000000000 0.02464343  0.00144295  0.1868612 0.7000
  1    -55.8708518942  -0.020800414509 0.01933176  0.00101434  0.0790062 0.7000
                               ***Turning on DIIS***
  2    -55.8774734315  -0.006621537257 0.02688691  0.00144181  0.0152876 0.0000
  3    -55.8884713925  -0.010997961070 0.01121996  0.00060268  0.0498888 0.0000
  4    -55.8913742895  -0.002902896974 0.00436881  0.00023032  0.0113471 0.0000
  5    -55.8915700471  -0.000195757605 0.00148533  0.00007641  0.0020532 0.0000
  6    -55.8915824918  -0.000012444681 0.00091623  0.00004460  0.0004081 0.0000
  7    -55.8915840282  -0.000001536440 0.00007859  0.00000375  0.0001157 0.0000
  8    -55.8915840799  -0.000000051690 0.00001222  0.00000091  0.0000054 0.0000
                 **** Energy Check signals convergence ****

               *****************************************************
               *                     SUCCESS                       *
               *           SCF CONVERGED AFTER   9 CYCLES          *
               *****************************************************

Setting up the final grid:

General Integration Accuracy     IntAcc      ...  5.010
Radial Grid Type                 RadialGrid  ... Gauss-Chebyshev
Angular Grid (max. acc.)         AngularGrid ... Lebedev-434
Angular grid pruning method      GridPruning ... 3 (G Style)
Weight generation scheme         WeightScheme... Becke
Basis function cutoff            BFCut       ...    1.0000e-11
Integration weight cutoff        WCut        ...    1.0000e-14
Grids for H and He will be reduced by one unit

# of grid points (after initial pruning)     ...  23974 (   0.0 sec)
# of grid points (after weights+screening)   ...  23778 (   0.0 sec)
nearest neighbour list constructed           ...    0.0 sec
Grid point re-assignment to atoms done       ...    0.0 sec
Grid point division into batches done        ...    0.2 sec
Reduced shell lists constructed in    0.2 sec

Total number of grid points                  ...    23778
Total number of batches                      ...      374
Average number of points per batch           ...       63
Average number of grid points per atom       ...     7926
Average number of shells per batch           ...    12.65 (66.56%)
Average number of basis functions per batch  ...    29.23 (67.97%)
Average number of large shells per batch     ...    10.88 (86.00%)
Average number of large basis fcns per batch ...    25.25 (86.39%)
Maximum spatial batch extension              ...  16.29, 13.82, 17.74 au
Average spatial batch extension              ...   0.61,  0.59,  0.61 au

Final grid set up in    0.2 sec
Final integration                            ... done (   0.0 sec)
Change in XC energy                          ...     0.000000727
Integrated number of electrons               ...     8.999999469
Previous integrated no of electrons          ...     8.999993179

SMD CDS free energy correction energy :                 1.47155     Kcal/mol
Total Energy after SMD CDS correction =               -55.889238288 Eh

----------------
TOTAL SCF ENERGY
----------------

Total Energy       :          -55.88923829 Eh           -1520.82349 eV

Components:
Nuclear Repulsion  :            7.47121243 Eh             203.30203 eV
Electronic Energy  :          -63.36045072 Eh           -1724.12552 eV
One Electron Energy:          -90.11001645 Eh           -2452.01821 eV
Two Electron Energy:           26.74956573 Eh             727.89269 eV
CPCM Dielectric    :           -0.00982204 Eh              -0.26727 eV
SMD CDS (Gcds)     :            0.00234507 Eh               0.06381 eV

Virial components:
Potential Energy   :         -111.57465914 Eh           -3036.10083 eV
Kinetic Energy     :           55.68542085 Eh            1515.27734 eV
Virial Ratio       :            2.00366016


DFT components:
N(Alpha)           :        4.999999722699 electrons
N(Beta)            :        3.999999746482 electrons
N(Total)           :        8.999999469181 electrons
E(X)               :       -7.291986835930 Eh       
E(C)               :       -0.278797058660 Eh       
E(XC)              :       -7.570783894590 Eh       
DFET-embed. en.    :        0.000000000000 Eh       
CPCM Solvation Model Properties:
Surface-charge          :           -0.01517488
Charge-correction       :            0.00002706 Eh               0.00074 eV
Free-energy (cav+disp)  :            0.00261321 Eh               0.07111 eV
Corrected G(solv)       :          -55.88659801 Eh           -1520.75165 eV

---------------
SCF CONVERGENCE
---------------

  Last Energy change         ...   -2.8513e-09  Tolerance :   1.0000e-08
  Last MAX-Density change    ...    3.9509e-06  Tolerance :   1.0000e-07
  Last RMS-Density change    ...    2.9266e-07  Tolerance :   5.0000e-09
  Last DIIS Error            ...    8.3912e-07  Tolerance :   5.0000e-07

             **** THE GBW FILE WAS UPDATED (NH2·.gbw) ****
             **** DENSITY FILE WAS UPDATED (NH2·.scfp) ****
             **** ENERGY FILE WAS UPDATED (NH2·.en.tmp) ****
----------------------
UHF SPIN CONTAMINATION
----------------------

Warning: in a DFT calculation there is little theoretical justification to 
         calculate <S**2> as in Hartree-Fock theory. We will do it anyways
         but you should keep in mind that the values have only limited relevance

Expectation value of <S**2>     :     0.752620
Ideal value S*(S+1) for S=0.5   :     0.750000
Deviation                       :     0.002620

             **** THE GBW FILE WAS UPDATED (NH2·.gbw) ****
             **** DENSITY FILE WAS UPDATED (NH2·.scfp) ****
----------------
ORBITAL ENERGIES
----------------
                 SPIN UP ORBITALS
  NO   OCC          E(Eh)            E(eV) 
   0   1.0000     -14.028069      -381.7232 
   1   1.0000      -0.757927       -20.6242 
   2   1.0000      -0.406899       -11.0723 
   3   1.0000      -0.277375        -7.5478 
   4   1.0000      -0.258621        -7.0374 
   5   0.0000       0.024969         0.6794 
   6   0.0000       0.095867         2.6087 
   7   0.0000       0.273875         7.4525 
   8   0.0000       0.291555         7.9336 
   9   0.0000       0.293609         7.9895 
  10   0.0000       0.371129        10.0989 
  11   0.0000       0.431690        11.7469 
  12   0.0000       0.469933        12.7875 
  13   0.0000       0.879208        23.9245 
  14   0.0000       0.880637        23.9634 
  15   0.0000       0.919892        25.0315 
  16   0.0000       1.188555        32.3422 
  17   0.0000       1.220693        33.2167 
  18   0.0000       1.620105        44.0853 
  19   0.0000       1.754351        47.7383 
  20   0.0000       1.779751        48.4295 
  21   0.0000       1.812885        49.3311 
  22   0.0000       1.887302        51.3561 
  23   0.0000       1.967431        53.5365 
  24   0.0000       2.038825        55.4792 
  25   0.0000       2.166980        58.9665 
  26   0.0000       2.339785        63.6688 
  27   0.0000       2.364815        64.3499 
  28   0.0000       2.910786        79.2065 
  29   0.0000       2.956593        80.4530 
  30   0.0000       3.763900       102.4209 
  31   0.0000       3.906586       106.3036 
  32   0.0000       4.046758       110.1179 
  33   0.0000       4.095796       111.4523 
  34   0.0000       4.156079       113.0927 
  35   0.0000       4.370528       118.9281 
  36   0.0000       4.413959       120.1099 
  37   0.0000       4.441729       120.8656 
  38   0.0000       4.524242       123.1109 
  39   0.0000       4.704713       128.0217 
  40   0.0000       5.211229       141.8047 
  41   0.0000       5.393534       146.7655 
  42   0.0000      30.964116       842.5764 

                 SPIN DOWN ORBITALS
  NO   OCC          E(Eh)            E(eV) 
   0   1.0000     -14.010653      -381.2492 
   1   1.0000      -0.716893       -19.5077 
   2   1.0000      -0.394970       -10.7477 
   3   1.0000      -0.257768        -7.0142 
   4   0.0000      -0.157819        -4.2945 
   5   0.0000       0.031159         0.8479 
   6   0.0000       0.099055         2.6954 
   7   0.0000       0.275502         7.4968 
   8   0.0000       0.299915         8.1611 
   9   0.0000       0.342723         9.3260 
  10   0.0000       0.389086        10.5876 
  11   0.0000       0.448325        12.1996 
  12   0.0000       0.477230        12.9861 
  13   0.0000       0.889949        24.2167 
  14   0.0000       0.916394        24.9363 
  15   0.0000       0.958929        26.0938 
  16   0.0000       1.223784        33.3009 
  17   0.0000       1.238712        33.7071 
  18   0.0000       1.616499        43.9872 
  19   0.0000       1.788929        48.6792 
  20   0.0000       1.796689        48.8904 
  21   0.0000       1.829101        49.7724 
  22   0.0000       1.913813        52.0775 
  23   0.0000       1.975525        53.7568 
  24   0.0000       2.113846        57.5207 
  25   0.0000       2.174006        59.1577 
  26   0.0000       2.356828        64.1326 
  27   0.0000       2.370802        64.5128 
  28   0.0000       2.927337        79.6569 
  29   0.0000       2.991552        81.4043 
  30   0.0000       3.814649       103.8019 
  31   0.0000       3.959431       107.7416 
  32   0.0000       4.130997       112.4101 
  33   0.0000       4.159462       113.1847 
  34   0.0000       4.180919       113.7686 
  35   0.0000       4.459339       121.3448 
  36   0.0000       4.473039       121.7176 
  37   0.0000       4.516274       122.8941 
  38   0.0000       4.603475       125.2669 
  39   0.0000       4.716367       128.3389 
  40   0.0000       5.240914       142.6125 
  41   0.0000       5.409617       147.2032 
  42   0.0000      30.987895       843.2235 
------------------
MOLECULAR ORBITALS
------------------
                      0         1         2         3         4         5   
                 -14.02807  -0.75793  -0.40690  -0.27738  -0.25862   0.02497
                   1.00000   1.00000   1.00000   1.00000   1.00000   0.00000
                  --------  --------  --------  --------  --------  --------
  0N   1s        -0.448365 -0.098958  0.000003  0.041118 -0.000001 -0.040982
  0N   2s        -0.626130 -0.221563  0.000006  0.093683 -0.000002 -0.096638
  0N   3s        -0.037767  0.350610 -0.000009 -0.156323 -0.000002  0.221040
  0N   4s         0.025587  0.403927 -0.000023 -0.203146  0.000025  0.064733
  0N   5s        -0.014659  0.141847  0.000025 -0.258790  0.000076  1.399966
  0N   1pz        0.001508 -0.076813  0.160850 -0.305050  0.213854 -0.129450
  0N   1px        0.000982 -0.049995 -0.000024 -0.198542 -0.406242 -0.084272
  0N   1py        0.000733 -0.037338 -0.330859 -0.148270  0.103999 -0.063063
  0N   2pz       -0.001689 -0.059452  0.118216 -0.229507  0.177629 -0.041418
  0N   2px       -0.001099 -0.038698 -0.000013 -0.149377 -0.337473 -0.026932
  0N   2py       -0.000822 -0.028899 -0.243160 -0.111553  0.086398 -0.020198
  0N   3pz        0.001923 -0.011776  0.060944 -0.202152  0.151098 -0.421869
  0N   3px        0.001251 -0.007660 -0.000025 -0.131565 -0.287132 -0.274730
  0N   3py        0.000935 -0.005721 -0.125404 -0.098236  0.073508 -0.205461
  0N   1dz2       0.000097 -0.000504 -0.009213  0.003002 -0.003655  0.000003
  0N   1dxz       0.000294 -0.000820 -0.003462  0.007498  0.002634 -0.002823
  0N   1dyz      -0.000027 -0.000668  0.008356  0.000950 -0.002051  0.003261
  0N   1dx2y2    -0.000211 -0.000175 -0.005318 -0.003703  0.003108  0.005118
  0N   1dxy       0.000143 -0.000399  0.007122  0.003645  0.001280 -0.001375
  0N   2dz2      -0.000010 -0.000358 -0.011841  0.012223 -0.017111  0.002466
  0N   2dxz       0.000026 -0.001559 -0.004444  0.022201  0.012353 -0.005136
  0N   2dyz      -0.000062  0.000663  0.010734  0.013490 -0.009622  0.013745
  0N   2dx2y2    -0.000080  0.001657 -0.006833  0.000018  0.014559  0.017355
  0N   2dxy       0.000013 -0.000763  0.009146  0.010792  0.006004 -0.002501
  0N   1f0        0.000003  0.000072 -0.000117 -0.000022 -0.001699 -0.000128
  0N   1f+1      -0.000029  0.000116 -0.000679  0.001965 -0.000047  0.001788
  0N   1f-1       0.000084  0.002688  0.000171  0.000049 -0.000824 -0.003771
  0N   1f+2       0.000028  0.000918  0.000407  0.000051  0.002008 -0.001253
  0N   1f-2       0.000016  0.001161  0.000674  0.001233 -0.000250 -0.000421
  0N   1f+3      -0.000058 -0.001336  0.000526  0.000952  0.000262  0.002852
  0N   1f-3      -0.000032 -0.001037  0.000792 -0.000041 -0.001107  0.001434
  1H   1s        -0.000332  0.101033  0.149500  0.083855  0.000002 -0.039136
  1H   2s        -0.000880  0.085458  0.188456  0.121234 -0.000019 -0.027869
  1H   3s         0.003531  0.007901  0.075238  0.057318 -0.000017 -1.195187
  1H   1pz        0.000028  0.000582  0.009984 -0.011037  0.008694  0.003856
  1H   1px        0.000030  0.004787  0.009242 -0.003232 -0.016530  0.012940
  1H   1py        0.000058  0.017506  0.015552  0.010095  0.004229  0.042603
  2H   1s        -0.000332  0.101041 -0.149494  0.083870  0.000002 -0.039098
  2H   2s        -0.000879  0.085438 -0.188454  0.121209 -0.000087 -0.027854
  2H   3s         0.003531  0.007893 -0.075228  0.057261 -0.000025 -1.193970
  2H   1pz        0.000064  0.014124 -0.018400  0.001120  0.008687  0.035861
  2H   1px        0.000030  0.004799 -0.009257 -0.003213 -0.016524  0.012899
  2H   1py       -0.000014 -0.010348  0.001742 -0.014911  0.004239 -0.023282
                      6         7         8         9        10        11   
                   0.09587   0.27388   0.29155   0.29361   0.37113   0.43169
                   0.00000   0.00000   0.00000   0.00000   0.00000   0.00000
                  --------  --------  --------  --------  --------  --------
  0N   1s         0.000018 -0.000004  0.036103 -0.000123 -0.010141  0.052109
  0N   2s         0.000041 -0.000008  0.071105 -0.000242 -0.026070  0.106118
  0N   3s        -0.000088 -0.000025  0.084673 -0.000271  0.006468  0.089196
  0N   4s        -0.000049  0.000223 -1.298477  0.004493  0.010035 -2.358709
  0N   5s        -0.000653  0.000026  1.310312 -0.005523  2.011038  5.019743
  0N   1pz        0.127482 -0.010142 -0.195891  0.147474 -0.124716  0.165926
  0N   1px       -0.000008  0.000272 -0.128745 -0.278448 -0.081302  0.108016
  0N   1py       -0.262138  0.020809 -0.095192  0.071743 -0.060665  0.080910
  0N   2pz        0.056191 -0.102452 -0.370991  0.326131 -0.395272  0.411378
  0N   2px       -0.000042  0.000581 -0.244225 -0.616162 -0.257497  0.267851
  0N   2py       -0.115621  0.210507 -0.180288  0.158754 -0.192098  0.200616
  0N   3pz        0.360747 -0.626271  0.820460 -0.572744 -0.668801 -1.318339
  0N   3px        0.000133 -0.000921  0.538981  1.080995 -0.434740 -0.858349
  0N   3py       -0.741409  1.288418  0.399292 -0.277341 -0.324666 -0.642430
  0N   1dz2       0.002615 -0.021468  0.003882 -0.004754 -0.000702 -0.001825
  0N   1dxz       0.000986 -0.008072  0.009283  0.003376 -0.011102 -0.004617
  0N   1dyz      -0.002373  0.019472  0.001790 -0.002649  0.010556 -0.000531
  0N   1dx2y2     0.001508 -0.012398 -0.003934  0.004018  0.017785  0.002343
  0N   1dxy      -0.002022  0.016594  0.004520  0.001658 -0.005397 -0.002248
  0N   2dz2       0.033246  0.111748 -0.005657  0.003677  0.015709  0.004837
  0N   2dxz       0.012488  0.042014 -0.023211 -0.002537  0.031343  0.007173
  0N   2dyz      -0.030147 -0.101369  0.008570  0.001961  0.013941  0.007243
  0N   2dx2y2     0.019186  0.064493  0.023302 -0.003082 -0.005155  0.002962
  0N   2dxy      -0.025692 -0.086368 -0.011301 -0.001311  0.015202  0.003492
  0N   1f0       -0.003440 -0.005964 -0.000260 -0.001171  0.000593 -0.000130
  0N   1f+1      -0.005101 -0.012193  0.003349 -0.000050 -0.002942 -0.000046
  0N   1f-1       0.001411  0.003259 -0.007758 -0.000357  0.020298 -0.004790
  0N   1f+2      -0.000869  0.001393 -0.002581  0.001462  0.006870 -0.001637
  0N   1f-2       0.005066  0.012113 -0.001071 -0.000404  0.006401 -0.001967
  0N   1f+3       0.003950  0.009443  0.005698  0.000473 -0.012004  0.002465
  0N   1f-3       0.002651  0.009252  0.002950 -0.000840 -0.007780  0.001842
  1H   1s        -0.045227  0.111812  0.021166  0.000031 -0.107528  0.073703
  1H   2s         0.021283  1.256789  0.344213  0.000313 -1.552275  0.031572
  1H   3s        -1.710485 -0.186976 -0.315190  0.001081  0.056876 -1.858272
  1H   1pz        0.014185  0.003825  0.001942  0.000923 -0.027822  0.002731
  1H   1px        0.020197  0.027398  0.011122 -0.001720 -0.033082  0.003433
  1H   1py        0.049718  0.099198  0.039414  0.000416 -0.071952  0.007856
  2H   1s         0.045252 -0.111797  0.021090 -0.000144 -0.107533  0.073640
  2H   2s        -0.021187 -1.256711  0.343578 -0.001448 -1.552753  0.031104
  2H   3s         1.711495  0.186623 -0.315231  0.001278  0.056524 -1.855883
  2H   1pz       -0.047889 -0.080404  0.032189  0.000801 -0.073849  0.007857
  2H   1px       -0.020180 -0.027425  0.011097 -0.001772 -0.033112  0.003482
  2H   1py        0.019578  0.058277 -0.022793  0.000529  0.022584 -0.002688
                     12        13        14        15        16        17   
                   0.46993   0.87921   0.88064   0.91989   1.18855   1.22069
                   0.00000   0.00000   0.00000   0.00000   0.00000   0.00000
                  --------  --------  --------  --------  --------  --------
  0N   1s         0.000035 -0.000028 -0.002261 -0.000000 -0.000126  0.000002
  0N   2s         0.000072 -0.000066 -0.005365 -0.000000 -0.005805  0.000006
  0N   3s         0.000050  0.000294  0.024088 -0.000011  0.233681 -0.000063
  0N   4s        -0.001549  0.000302  0.025147  0.000046 -0.567951  0.000347
  0N   5s         0.003131 -0.004919 -0.418702 -0.000073 -2.127087 -0.000547
  0N   1pz        0.162023  0.000674  0.059273  0.032841  0.008009  0.011347
  0N   1px        0.000046  0.000456  0.038606 -0.062371  0.005235 -0.000032
  0N   1py       -0.332988  0.000338  0.028798  0.015984  0.003888 -0.023352
  0N   2pz        0.413228  0.000449  0.040787  0.001561  0.387263 -0.469059
  0N   2px        0.000136  0.000288  0.026543 -0.002903  0.251945  0.000051
  0N   2py       -0.849218  0.000268  0.019856  0.000698  0.187819  0.964695
  0N   3pz       -0.875695  0.002455  0.209367  0.039282  0.846299 -0.389123
  0N   3px       -0.000398  0.001658  0.136330 -0.074538  0.550753  0.000167
  0N   3py        1.799233  0.001139  0.101827  0.019093  0.411175  0.800827
  0N   1dz2      -0.001353 -0.000072 -0.000808 -0.002774  0.000381 -0.000793
  0N   1dxz      -0.000509  0.000037 -0.002175  0.002000  0.001238 -0.000296
  0N   1dyz       0.001225  0.000053 -0.000084 -0.001554 -0.000209  0.000720
  0N   1dx2y2    -0.000778 -0.000022  0.001268  0.002360 -0.000990 -0.000461
  0N   1dxy       0.001042 -0.000141 -0.001056  0.000971  0.000601  0.000610
  0N   2dz2       0.008097  0.290902  0.316546  0.547227 -0.105161  0.994576
  0N   2dxz       0.003029 -0.309514  0.480652 -0.394400 -0.725466  0.373512
  0N   2dyz      -0.007345 -0.255133  0.475853  0.307264  0.500484 -0.901856
  0N   2dx2y2     0.004655  0.168230  0.186915 -0.465190  0.967125  0.574292
  0N   2dxy      -0.006238  0.650752  0.224348 -0.191464 -0.352578 -0.768882
  0N   1f0        0.000589 -0.002433 -0.000090 -0.006918 -0.001563 -0.035474
  0N   1f+1       0.001291  0.001179 -0.005367 -0.000103  0.018074 -0.052216
  0N   1f-1      -0.000347  0.001001 -0.006817 -0.006983 -0.048875  0.014477
  0N   1f+2      -0.000214 -0.000366 -0.002414  0.006820 -0.016339 -0.009261
  0N   1f-2      -0.001284 -0.001301 -0.006041  0.003362 -0.008647  0.051869
  0N   1f+3      -0.000999 -0.000953  0.000886 -0.004459  0.034363  0.040447
  0N   1f-3      -0.001032  0.002364  0.002655 -0.003033  0.018597  0.026835
  1H   1s        -0.094562 -0.000112 -0.011021  0.000017 -0.078592 -0.187775
  1H   2s        -0.578015  0.002614  0.221189 -0.000078  1.792640  2.268067
  1H   3s         2.032790  0.000877  0.077757  0.000042  0.197594 -0.453785
  1H   1pz        0.004441  0.081015 -0.168939 -0.065879  0.000960  0.094079
  1H   1px       -0.001464 -0.158458 -0.070989  0.125065  0.046359  0.127016
  1H   1py       -0.014809  0.041066  0.060830 -0.032044  0.179062  0.302627
  2H   1s         0.094669 -0.000147 -0.010997 -0.000022 -0.078669  0.187732
  2H   2s         0.578351  0.002531  0.221092  0.000095  1.794027 -2.267710
  2H   3s        -2.035239  0.000970  0.077736 -0.000002  0.197358  0.453955
  2H   1pz        0.008935 -0.083567 -0.054623 -0.065866  0.141654 -0.296189
  2H   1px        0.001496  0.156674 -0.074605  0.125086  0.046451 -0.127037
  2H   1py       -0.012630 -0.042280 -0.169457 -0.032105 -0.109916  0.112942
                     18        19        20        21        22        23   
                   1.62010   1.75435   1.77975   1.81289   1.88730   1.96743
                   0.00000   0.00000   0.00000   0.00000   0.00000   0.00000
                  --------  --------  --------  --------  --------  --------
  0N   1s        -0.000008 -0.000011 -0.046246  0.000006  0.102748 -0.000012
  0N   2s        -0.000024 -0.000036 -0.149402  0.000020  0.331828 -0.000037
  0N   3s         0.000190  0.000282  1.466117 -0.000288 -2.389685  0.000320
  0N   4s        -0.000372 -0.000544 -3.685081  0.000942  3.799027 -0.000737
  0N   5s         0.000114  0.000235  1.515476 -0.000428 -2.087775  0.000307
  0N   1pz        0.099060  0.360780 -0.553303  0.000492 -0.523747 -0.430217
  0N   1px        0.000018 -0.685363 -0.359962 -0.000417 -0.340910  0.000183
  0N   1py       -0.203917  0.175424 -0.268871  0.000270 -0.254433  0.885283
  0N   2pz       -0.160375 -0.383695  1.406104 -0.000798  0.448111  1.013226
  0N   2px        0.000031  0.729055  0.914910  0.000306  0.291642 -0.000209
  0N   2py        0.330129 -0.186534  0.683051 -0.000415  0.217499 -2.084244
  0N   3pz        0.208829  0.298343 -0.345751  0.000374 -0.207630 -0.461856
  0N   3px        0.000058 -0.566719 -0.224922 -0.000282 -0.135151  0.000112
  0N   3py       -0.429622  0.145026 -0.167920  0.000214 -0.100787  0.950139
  0N   1dz2      -0.010154  0.003076 -0.000665  0.006386  0.002258 -0.007850
  0N   1dxz      -0.003818 -0.002221 -0.011679 -0.007001  0.007781 -0.002951
  0N   1dyz       0.009209  0.001738  0.011328 -0.005788 -0.001719  0.007120
  0N   1dx2y2    -0.005859 -0.002622  0.018933  0.003680 -0.006632 -0.004526
  0N   1dxy       0.007844 -0.001084 -0.005668  0.014394  0.003795  0.006059
  0N   2dz2       0.185984 -0.324714  0.060721 -0.298773  0.114478 -0.052571
  0N   2dxz       0.069787  0.234061 -0.026435  0.327531  0.145107 -0.019790
  0N   2dyz      -0.168570 -0.182613  0.225126  0.270475  0.198755  0.047651
  0N   2dx2y2     0.107240  0.276447  0.247807 -0.172441  0.113871 -0.030313
  0N   2dxy      -0.143768  0.114254 -0.013098 -0.673465  0.070435  0.040619
  0N   1f0        0.001871 -0.004287 -0.004571 -0.022347  0.001026  0.042921
  0N   1f+1      -0.008515 -0.000343  0.036836  0.011382 -0.004356  0.069393
  0N   1f-1       0.001924  0.008000 -0.149208  0.009944  0.035507 -0.019021
  0N   1f+2       0.010215  0.008906 -0.050228 -0.003021  0.012032  0.005819
  0N   1f-2       0.008452 -0.012914 -0.037649 -0.011312  0.011673 -0.068946
  0N   1f+3       0.006607  0.016144  0.095835 -0.008840 -0.020622 -0.053755
  0N   1f-3       0.014237 -0.006936  0.057035  0.021386 -0.013638 -0.041109
  1H   1s         0.007871 -0.000057 -0.607232  0.000188  0.120583  0.513562
  1H   2s         0.220338  0.000243  2.048907 -0.000597 -0.457552 -1.553583
  1H   3s        -0.302950 -0.000128 -0.917020  0.000296  0.462826  1.203052
  1H   1pz       -0.646797 -0.272612  0.202420  0.376368  0.188822 -0.184742
  1H   1px       -0.265032  0.517660  0.223131 -0.715287  0.054846 -0.182329
  1H   1py        0.295370 -0.132425  0.456714  0.182965 -0.173809 -0.332429
  2H   1s        -0.008050 -0.000082 -0.607208  0.000160  0.120347 -0.513448
  2H   2s        -0.219962  0.000165  2.049531 -0.000626 -0.457112  1.553793
  2H   3s         0.302818 -0.000071 -0.917343  0.000278  0.462490 -1.203141
  2H   1pz        0.167388 -0.272007  0.484208 -0.376951 -0.020067  0.375722
  2H   1px        0.264895  0.516871  0.223644  0.715587  0.055085  0.182365
  2H   1py        0.691050 -0.132216 -0.123264 -0.183259  0.255907 -0.060201
                     24        25        26        27        28        29   
                   2.03882   2.16698   2.33979   2.36481   2.91079   2.95659
                   0.00000   0.00000   0.00000   0.00000   0.00000   0.00000
                  --------  --------  --------  --------  --------  --------
  0N   1s         0.000007  0.053999 -0.052261 -0.000052 -0.006515 -0.000009
  0N   2s         0.000023  0.182344 -0.166287 -0.000174  0.011592 -0.000021
  0N   3s        -0.000176 -1.322135  0.859029  0.001027 -1.320190 -0.000195
  0N   4s         0.000291  1.847360 -0.236655 -0.000534  4.819148  0.001315
  0N   5s        -0.000177 -2.115760  1.535897  0.001491 -0.358574 -0.000028
  0N   1pz       -0.432423  0.033096 -0.588345 -0.289866  0.208432  0.194861
  0N   1px        0.821574  0.021502 -0.383050 -0.000312  0.135738 -0.000020
  0N   1py       -0.210323  0.016167 -0.286567  0.594790  0.101581 -0.400788
  0N   2pz        0.700211  0.182544  0.363954 -0.309616 -2.068582 -1.349241
  0N   2px       -1.330356  0.118907  0.236587  0.000253 -1.346661 -0.000212
  0N   2py        0.340584  0.088709  0.176026  0.637818 -1.006473  2.773749
  0N   3pz       -0.197259  0.582611 -0.561986 -0.241492 -0.042298  0.045292
  0N   3px        0.374833  0.379188 -0.365889 -0.000290 -0.027503 -0.000022
  0N   3py       -0.095956  0.283258 -0.273703  0.495411 -0.020494 -0.093230
  0N   1dz2       0.007127 -0.000063 -0.001605 -0.023179  0.004635 -0.111938
  0N   1dxz      -0.005140 -0.018498 -0.002140 -0.008713 -0.056992 -0.042067
  0N   1dyz       0.003995  0.021131 -0.002754  0.021012  0.080355  0.101539
  0N   1dx2y2    -0.006054  0.033274 -0.001448 -0.013393  0.118262 -0.064587
  0N   1dxy      -0.002489 -0.008991 -0.001065  0.017917 -0.027744  0.086514
  0N   2dz2      -0.287198 -0.329437 -0.181976  0.376601  0.172645  1.087050
  0N   2dxz       0.207076 -0.385118 -0.100017  0.141448  0.722779  0.408613
  0N   2dyz      -0.161223 -0.608956 -0.464674 -0.341983 -0.279867 -0.985856
  0N   2dx2y2     0.244132 -0.385908 -0.416122  0.217196 -0.739461  0.627263
  0N   2dxy       0.100495 -0.187125 -0.048170 -0.291263  0.351728 -0.840151
  0N   1f0       -0.017158 -0.002975  0.005151 -0.069860 -0.001517  0.027335
  0N   1f+1      -0.000916 -0.012395 -0.074977 -0.134319  0.084376  0.140004
  0N   1f-1       0.012222 -0.114449  0.149940  0.036191 -0.015274 -0.035131
  0N   1f+2       0.028065 -0.039246  0.049806  0.008925 -0.003695 -0.079013
  0N   1f-2      -0.027540 -0.053976  0.014182  0.133373  0.046043 -0.139047
  0N   1f+3       0.034113  0.053274 -0.115400  0.103904  0.050028 -0.108449
  0N   1f-3      -0.019577  0.044204 -0.056998  0.096405  0.005011 -0.159159
  1H   1s        -0.000013 -0.462652  0.383094 -0.441718 -0.388217  0.670689
  1H   2s        -0.000001  0.822771 -1.168740  1.804708 -2.342974  1.913710
  1H   3s         0.000024  0.335458 -0.243514 -0.187930  0.386328 -0.416147
  1H   1pz       -0.283110 -0.660797 -0.526922  0.105431  0.049694  0.303959
  1H   1px        0.537662 -0.263468 -0.407203  0.318441 -0.366364  0.453430
  1H   1py       -0.137619  0.329610 -0.507302  1.027084 -1.533312  1.146173
  2H   1s         0.000003 -0.462560  0.382234  0.442356 -0.387999 -0.671056
  2H   2s        -0.000132  0.822701 -1.165206 -1.806597 -2.342222 -1.915047
  2H   3s         0.000106  0.335506 -0.244069  0.187391  0.386114  0.416310
  2H   1pz       -0.283185 -0.148951 -0.722829 -0.874086 -1.174717 -1.089832
  2H   1px        0.537938 -0.263658 -0.406646 -0.319000 -0.365999 -0.453577
  2H   1py       -0.137703 -0.723279 -0.102035  0.551349  0.985977  0.469395
                     30        31        32        33        34        35   
                   3.76390   3.90659   4.04676   4.09580   4.15608   4.37053
                   0.00000   0.00000   0.00000   0.00000   0.00000   0.00000
                  --------  --------  --------  --------  --------  --------
  0N   1s        -0.000001  0.000586 -0.000000 -0.000000  0.000001  0.000001
  0N   2s        -0.000002 -0.001975 -0.000000 -0.000001  0.000000  0.000003
  0N   3s         0.000015  0.154884 -0.000018  0.000011  0.000019 -0.000036
  0N   4s        -0.000024 -0.528913  0.000075 -0.000011 -0.000052  0.000059
  0N   5s         0.000024 -0.120610 -0.000025  0.000006  0.000016  0.000061
  0N   1pz       -0.000617 -0.068212  0.037092 -0.000034  0.064919 -0.017149
  0N   1px        0.001185 -0.044387 -0.070483  0.000039 -0.000034  0.032592
  0N   1py       -0.000293 -0.033148  0.018073  0.000035 -0.133555 -0.008348
  0N   2pz        0.000729  0.360882 -0.107143  0.000176 -0.354488  0.069235
  0N   2px       -0.001416  0.234862  0.203595 -0.000128  0.000127 -0.131603
  0N   2py        0.000351  0.175368 -0.052296 -0.000238  0.729249  0.033689
  0N   3pz        0.001299  0.078132 -0.017021  0.000026 -0.055194  0.012612
  0N   3px       -0.002476  0.050853  0.032373 -0.000009  0.000007 -0.024031
  0N   3py        0.000636  0.037968 -0.008299 -0.000032  0.113504  0.006133
  0N   1dz2       0.024671 -0.121412  0.246815 -0.223627 -0.088358  0.675744
  0N   1dxz      -0.017782 -0.159586 -0.177875  0.245225 -0.033155 -0.487273
  0N   1dyz       0.013841 -0.204121  0.138618  0.202526  0.080131  0.379554
  0N   1dx2y2    -0.020976 -0.110262 -0.209977 -0.128944 -0.051015 -0.574735
  0N   1dxy      -0.008643 -0.077595 -0.086657 -0.504052  0.067972 -0.237128
  0N   2dz2      -0.025192 -0.046438  0.002251  0.038196  0.272911 -0.437647
  0N   2dxz       0.018169 -0.105744 -0.001685 -0.042008  0.102500  0.315591
  0N   2dyz      -0.014130 -0.026452  0.001351 -0.034598 -0.247523 -0.245830
  0N   2dx2y2     0.021424  0.038753 -0.001995  0.022058  0.157505  0.372228
  0N   2dxy       0.008821 -0.051383 -0.000766  0.086389 -0.210884  0.153578
  0N   1f0       -0.469478 -0.005242 -0.321493  0.526346  0.486055  0.150470
  0N   1f+1      -0.005698  0.745373 -0.015861 -0.268362  0.011707  0.006727
  0N   1f-1      -0.541793  0.161932  0.162714 -0.233099 -0.029225 -0.047337
  0N   1f+2       0.436427  0.068421  0.500948  0.071175  0.734680 -0.223536
  0N   1f-2       0.311494  0.526348 -0.435328  0.266738 -0.011689  0.168733
  0N   1f+3      -0.406844  0.287224  0.538189  0.207540 -0.008808 -0.207754
  0N   1f-3      -0.177648 -0.070703 -0.340360 -0.504300  0.608783  0.147361
  1H   1s         0.000006  0.046040 -0.000037 -0.000048  0.172982 -0.000009
  1H   2s        -0.000006  0.354575 -0.000141 -0.000191  0.508177 -0.000053
  1H   3s        -0.000002 -0.019152  0.000031  0.000028 -0.067753 -0.000009
  1H   1pz       -0.004129 -0.229234  0.150584  0.129315  0.356112 -0.105089
  1H   1px        0.007877 -0.060785 -0.286230 -0.245932  0.219886  0.199664
  1H   1py       -0.002016  0.233922  0.073204  0.062879  0.127312 -0.051122
  2H   1s         0.000007  0.046084  0.000024  0.000070 -0.173029 -0.000024
  2H   2s        -0.000012  0.354686  0.000094  0.000168 -0.508086 -0.000061
  2H   3s        -0.000004 -0.019166 -0.000013 -0.000022  0.067720 -0.000008
  2H   1pz       -0.004157  0.042410  0.150567 -0.129462 -0.320000 -0.105057
  2H   1px        0.007895 -0.060793 -0.285898  0.246252 -0.220033  0.199555
  2H   1py       -0.002012 -0.324747  0.073240 -0.062934 -0.201537 -0.051075
                     36        37        38        39        40        41   
                   4.41396   4.44173   4.52424   4.70471   5.21123   5.39353
                   0.00000   0.00000   0.00000   0.00000   0.00000   0.00000
                  --------  --------  --------  --------  --------  --------
  0N   1s         0.002822 -0.000001 -0.002148 -0.000001 -0.000009  0.008699
  0N   2s         0.008921 -0.000002 -0.001205 -0.000004 -0.000041  0.049584
  0N   3s        -0.111907  0.000037 -0.235400  0.000010  0.000950 -1.505929
  0N   4s         0.166588 -0.000096  1.015791  0.000133 -0.002433  4.453378
  0N   5s         0.488301  0.000020 -0.634398 -0.000104  0.000218 -0.582188
  0N   1pz        0.048098 -0.000003  0.033039 -0.011676  0.186131  0.210053
  0N   1px        0.031289  0.000017  0.021516 -0.000013 -0.000110  0.136663
  0N   1py        0.023354 -0.000012  0.016098  0.023974 -0.383218  0.101877
  0N   2pz       -0.212772  0.000039 -0.418236 -0.190982 -1.336444 -1.717910
  0N   2px       -0.138429 -0.000058 -0.272286  0.000001  0.000747 -1.117612
  0N   2py       -0.103312  0.000085 -0.203502  0.392717  2.751257 -0.832924
  0N   3pz       -0.189158  0.000004  0.163035  0.163161  0.024178  0.056601
  0N   3px       -0.123114 -0.000008  0.106132 -0.000011  0.000006  0.036821
  0N   3py       -0.091949  0.000008  0.079320 -0.335556 -0.049721  0.027420
  0N   1dz2      -0.421983  0.340373 -0.194286  0.716605  0.046686  0.034802
  0N   1dxz      -0.906411 -0.373214  0.125544  0.269253  0.017562  0.092081
  0N   1dyz      -0.303890 -0.308391 -0.764990 -0.649987 -0.042383  0.004818
  0N   1dx2y2     0.253408  0.196407 -0.865305  0.413601  0.026907 -0.052351
  0N   1dxy      -0.440654  0.767376  0.061273 -0.554000 -0.036083  0.044696
  0N   2dz2       0.298884 -0.266567  0.190594 -0.372008  1.164371  0.011399
  0N   2dxz       0.629939  0.292309  0.077953 -0.139764  0.437179  0.481583
  0N   2dyz       0.228948  0.241521  0.519146  0.337471 -1.055585 -0.520747
  0N   2dx2y2    -0.157769 -0.153786  0.485285 -0.214701  0.672693 -0.834971
  0N   2dxy       0.306193 -0.601024  0.037804  0.287621 -0.900199  0.233552
  0N   1f0        0.003975  0.393367 -0.000666  0.108734 -0.427645  0.030579
  0N   1f+1      -0.199742 -0.200472 -0.147820  0.086532 -0.659227 -0.211027
  0N   1f-1       0.053530 -0.174142 -0.095709 -0.026783  0.181047  1.025269
  0N   1f+2       0.014676  0.053452 -0.035282  0.091820 -0.086026  0.345789
  0N   1f-2      -0.101759  0.199233 -0.130149 -0.086048  0.654840  0.285252
  0N   1f+3      -0.127205  0.155121 -0.023998 -0.067021  0.511189 -0.637080
  0N   1f-3      -0.018432 -0.376615  0.038495  0.019761  0.365306 -0.392181
  1H   1s        -0.062527  0.000035 -0.052019 -0.059142  1.073485 -0.944332
  1H   2s        -0.337755  0.000059 -0.189176  0.095346  1.785912 -1.600611
  1H   3s        -0.075435 -0.000011  0.180264 -0.179579 -0.399816  0.331271
  1H   1pz        0.175495  0.152357  0.165414  0.120099  0.105643 -0.248712
  1H   1px        0.070915 -0.289353 -0.008879  0.145817  0.352257 -0.410047
  1H   1py       -0.083686  0.074119 -0.374901  0.322634  1.158726 -1.090237
  2H   1s        -0.062649  0.000007 -0.051966  0.059157 -1.072536 -0.945823
  2H   2s        -0.337889 -0.000015 -0.189076 -0.095430 -1.784091 -1.602934
  2H   3s        -0.075429  0.000000  0.180210  0.179645  0.399497  0.331848
  2H   1pz        0.042552 -0.152446 -0.192565 -0.327986 -0.975352 -1.012304
  2H   1px        0.070950  0.289563 -0.008784 -0.145792 -0.351660 -0.410396
  2H   1py        0.189776 -0.074146  0.361573  0.104968  0.632065  0.478581
                     42   
                  30.96412
                   0.00000
                  --------
  0N   1s         1.385212
  0N   2s        -1.687265
  0N   3s         1.492959
  0N   4s        -1.549051
  0N   5s         0.924035
  0N   1pz       -0.023181
  0N   1px       -0.015090
  0N   1py       -0.011273
  0N   2pz        0.087242
  0N   2px        0.056798
  0N   2py        0.042461
  0N   3pz       -0.108044
  0N   3px       -0.070323
  0N   3py       -0.052517
  0N   1dz2       0.000016
  0N   1dxz       0.001715
  0N   1dyz      -0.001925
  0N   1dx2y2    -0.003049
  0N   1dxy       0.000833
  0N   2dz2      -0.000320
  0N   2dxz      -0.013093
  0N   2dyz       0.013993
  0N   2dx2y2     0.022594
  0N   2dxy      -0.006384
  0N   1f0       -0.000569
  0N   1f+1       0.003957
  0N   1f-1      -0.018801
  0N   1f+2      -0.006341
  0N   1f-2      -0.005159
  0N   1f+3       0.011742
  0N   1f-3       0.007198
  1H   1s         0.036231
  1H   2s         0.067996
  1H   3s        -0.222849
  1H   1pz        0.003380
  1H   1px        0.002785
  1H   1py        0.003926
  2H   1s         0.036213
  2H   2s         0.067931
  2H   3s        -0.222858
  2H   1pz        0.005134
  2H   1px        0.002768
  2H   1py        0.000256

                      0         1         2         3         4         5   
                 -14.01065  -0.71689  -0.39497  -0.25777  -0.15782   0.03116
                   1.00000   1.00000   1.00000   1.00000   0.00000   0.00000
                  --------  --------  --------  --------  --------  --------
  0N   1s         0.448899 -0.095510 -0.000003 -0.042814 -0.000003  0.040849
  0N   2s         0.626179 -0.212376 -0.000007 -0.096906 -0.000006  0.095673
  0N   3s         0.035828  0.330506  0.000009  0.158205  0.000001 -0.218019
  0N   4s        -0.023563  0.380970  0.000026  0.205967  0.000040 -0.026124
  0N   5s         0.013224  0.143628 -0.000030  0.283295  0.000120 -1.510133
  0N   1pz       -0.001429 -0.079552 -0.156285  0.298257  0.194226  0.126267
  0N   1px       -0.000930 -0.051775  0.000024  0.194132 -0.368947  0.082196
  0N   1py       -0.000695 -0.038669  0.321469  0.144967  0.094456  0.061519
  0N   2pz        0.001499 -0.058767 -0.111493  0.220136  0.153748  0.035993
  0N   2px        0.000976 -0.038251  0.000014  0.143289 -0.292116  0.023396
  0N   2py        0.000729 -0.028565  0.229330  0.106997  0.074785  0.017560
  0N   3pz       -0.001662 -0.011578 -0.059555  0.213452  0.197701  0.440038
  0N   3px       -0.001082 -0.007530  0.000027  0.138926 -0.375686  0.286549
  0N   3py       -0.000808 -0.005624  0.122553  0.103727  0.096182  0.214308
  0N   1dz2       0.000123  0.001769  0.009341 -0.001806 -0.002345 -0.001176
  0N   1dxz       0.000491  0.007316  0.003511 -0.003586  0.001690 -0.001496
  0N   1dyz      -0.000173 -0.002777 -0.008472 -0.001636 -0.001316 -0.002032
  0N   1dx2y2    -0.000485 -0.007423  0.005392  0.000555  0.001993 -0.001156
  0N   1dxy       0.000239  0.003558 -0.007221 -0.001743  0.000821 -0.000726
  0N   2dz2      -0.000061  0.002759  0.009382 -0.009472 -0.014555 -0.003422
  0N   2dxz      -0.000267  0.009271  0.003519 -0.013744  0.010515  0.000748
  0N   2dyz       0.000113 -0.001853 -0.008503 -0.014443 -0.008188 -0.011745
  0N   2dx2y2     0.000284 -0.007689  0.005414 -0.006278  0.012382 -0.012562
  0N   2dxy      -0.000130  0.004504 -0.007245 -0.006680  0.005110  0.000369
  0N   1f0       -0.000001  0.000122  0.000232 -0.000078  0.003886  0.000080
  0N   1f+1       0.000000 -0.002399 -0.002334  0.003303  0.000160  0.000586
  0N   1f-1      -0.000048  0.003293  0.000546 -0.001219 -0.000682  0.003126
  0N   1f+2      -0.000017  0.001079  0.002371 -0.000356 -0.005567  0.001076
  0N   1f-2      -0.000019 -0.000149  0.002319  0.001549  0.003702  0.001629
  0N   1f+3       0.000025 -0.002904  0.001808  0.002280 -0.004539 -0.001333
  0N   1f-3       0.000019 -0.001242  0.003538  0.000432  0.003581 -0.001211
  1H   1s         0.000275  0.108777 -0.154953 -0.082208 -0.000001  0.032826
  1H   2s         0.000864  0.100119 -0.202118 -0.121524 -0.000032  0.018407
  1H   3s        -0.003182  0.012413 -0.082976 -0.059022 -0.000034  1.238541
  1H   1pz       -0.000050  0.000255 -0.010433  0.012133  0.011544 -0.003934
  1H   1px       -0.000067  0.004904 -0.009577  0.003922 -0.021948 -0.013375
  1H   1py       -0.000159  0.018635 -0.015938 -0.009655  0.005612 -0.044140
  2H   1s         0.000275  0.108784  0.154946 -0.082223  0.000001  0.032793
  2H   2s         0.000863  0.100099  0.202121 -0.121501 -0.000111  0.018421
  2H   3s        -0.003183  0.012401  0.082964 -0.058960 -0.000044  1.237256
  2H   1pz       -0.000157  0.014810  0.018982 -0.000097  0.011535 -0.037114
  2H   1px       -0.000068  0.004917  0.009592  0.003903 -0.021938 -0.013334
  2H   1py        0.000059 -0.011301 -0.001627  0.015502  0.005628  0.024168
                      6         7         8         9        10        11   
                   0.09906   0.27550   0.29992   0.34272   0.38909   0.44833
                   0.00000   0.00000   0.00000   0.00000   0.00000   0.00000
                  --------  --------  --------  --------  --------  --------
  0N   1s         0.000018 -0.000001 -0.036700 -0.000004  0.016224 -0.052575
  0N   2s         0.000042 -0.000001 -0.071904 -0.000006  0.038870 -0.105009
  0N   3s        -0.000093 -0.000026 -0.086037  0.000002 -0.012989 -0.112880
  0N   4s        -0.000013  0.000164  1.274133  0.000232 -0.165622  2.431991
  0N   5s        -0.000787 -0.000069 -1.171351 -0.001337 -1.731574 -5.170524
  0N   1pz        0.126514 -0.012888  0.198509  0.153262  0.139846 -0.154199
  0N   1px       -0.000005  0.000121  0.129251 -0.290986  0.091193 -0.100409
  0N   1py       -0.260148  0.026596  0.096468  0.074543  0.068031 -0.075279
  0N   2pz        0.052998 -0.102205  0.382726  0.355919  0.430762 -0.384382
  0N   2px       -0.000035  0.000260  0.249221 -0.675542  0.280723 -0.250328
  0N   2py       -0.109063  0.210317  0.186032  0.173128  0.209353 -0.187703
  0N   3pz        0.373546 -0.623915 -0.860099 -0.561550  0.587432  1.338570
  0N   3px        0.000138 -0.000266 -0.560071  1.067130  0.381606  0.871606
  0N   3py       -0.767641  1.283193 -0.418407 -0.272742  0.285030  0.652578
  0N   1dz2       0.002542 -0.021219 -0.002684 -0.003893 -0.000079  0.003471
  0N   1dxz       0.000956 -0.007974 -0.005393  0.002807  0.008383  0.011287
  0N   1dyz      -0.002307  0.019243 -0.002381 -0.002185 -0.009923 -0.001897
  0N   1dx2y2     0.001467 -0.012252  0.000924  0.003298 -0.015434 -0.009001
  0N   1dxy      -0.001966  0.016401 -0.002626  0.001371  0.004075  0.005492
  0N   2dz2       0.032513  0.110373  0.006495  0.000778 -0.022915 -0.007587
  0N   2dxz       0.012210  0.041484  0.026736 -0.000601 -0.054985 -0.012689
  0N   2dyz      -0.029482 -0.100114 -0.010044  0.000450 -0.009718 -0.009661
  0N   2dx2y2     0.018769  0.063705 -0.027018 -0.000635  0.024238 -0.002026
  0N   2dxy      -0.025129 -0.085310  0.013000 -0.000320 -0.026699 -0.006177
  0N   1f0       -0.003394 -0.006010  0.000208  0.002398 -0.000690  0.000151
  0N   1f+1      -0.003058 -0.012899 -0.000852  0.000105  0.006819 -0.002176
  0N   1f-1       0.000918  0.003429  0.007200 -0.000478 -0.021986  0.004532
  0N   1f+2      -0.002565  0.001938  0.002440 -0.003455 -0.007375  0.001509
  0N   1f-2       0.003037  0.012815  0.002390  0.002335 -0.004690  0.000486
  0N   1f+3       0.002368  0.009995 -0.004161 -0.002856  0.014812 -0.003441
  0N   1f-3      -0.000126  0.010177 -0.002766  0.002236  0.008385 -0.001722
  1H   1s        -0.040495  0.112199 -0.021516  0.000059  0.112695 -0.063431
  1H   2s         0.034409  1.252721 -0.367661  0.000952  1.571901  0.060042
  1H   3s        -1.739736 -0.190554  0.267597  0.000049 -0.163592  1.838936
  1H   1pz        0.014657  0.002456 -0.002022  0.002343  0.031547  0.000868
  1H   1px        0.020662  0.026087 -0.010989 -0.004372  0.034161 -0.000568
  1H   1py        0.050562  0.096893 -0.038699  0.001187  0.068509 -0.004064
  2H   1s         0.040516 -0.112181 -0.021464 -0.000004  0.112708 -0.063326
  2H   2s        -0.034280 -1.252469 -0.367301  0.000451  1.572447  0.060815
  2H   3s         1.740848  0.190263  0.267687  0.000129 -0.163220  1.835854
  2H   1pz       -0.048843 -0.077732 -0.031698  0.002360  0.073451 -0.002641
  2H   1px       -0.020645 -0.026110 -0.010971 -0.004397  0.034199 -0.000612
  2H   1py        0.019726  0.057922  0.022301  0.001115 -0.017533  0.003166
                     12        13        14        15        16        17   
                   0.47723   0.88995   0.91639   0.95893   1.22378   1.23871
                   0.00000   0.00000   0.00000   0.00000   0.00000   0.00000
                  --------  --------  --------  --------  --------  --------
  0N   1s         0.000045  0.000652  0.000001 -0.000000  0.000005 -0.006055
  0N   2s         0.000091  0.001429  0.000004 -0.000001  0.000017 -0.020980
  0N   3s         0.000083 -0.014673 -0.000004  0.000006 -0.000250  0.308975
  0N   4s        -0.002021 -0.034758 -0.000016 -0.000001  0.000758 -0.674860
  0N   5s         0.004081  0.593331 -0.000249  0.000025  0.000771 -2.000684
  0N   1pz        0.163538 -0.060084  0.000041 -0.031507  0.011591  0.000230
  0N   1px        0.000057 -0.039129  0.000019  0.059860 -0.000031  0.000150
  0N   1py       -0.336039 -0.029196  0.000012 -0.015335 -0.023860  0.000085
  0N   2pz        0.419675 -0.061198  0.000072 -0.009091 -0.469196  0.399237
  0N   2px        0.000173 -0.039826  0.000039  0.017180 -0.000116  0.259951
  0N   2py       -0.862318 -0.029763 -0.000021 -0.004374  0.964335  0.194419
  0N   3pz       -0.874212 -0.268632  0.000122 -0.037764 -0.389243  0.810280
  0N   3px       -0.000545 -0.174891  0.000021  0.071700 -0.000175  0.527470
  0N   3py        1.795572 -0.130632  0.000111 -0.018355  0.799725  0.394284
  0N   1dz2      -0.001339  0.001347  0.001909  0.006186 -0.001288  0.002459
  0N   1dxz      -0.000509  0.003326 -0.002090 -0.004461 -0.000484  0.008347
  0N   1dyz       0.001213  0.000472 -0.001730  0.003468  0.001167 -0.001754
  0N   1dx2y2    -0.000763 -0.001585  0.001105 -0.005261 -0.000743 -0.007017
  0N   1dxy       0.001027  0.001621  0.004295 -0.002166  0.000990  0.004060
  0N   2dz2       0.007278 -0.312726 -0.281137 -0.541173  0.991930 -0.118845
  0N   2dxz       0.002722 -0.440807  0.308818  0.390115  0.372966 -0.750925
  0N   2dyz      -0.006594 -0.490658  0.255546 -0.303835 -0.899705  0.483758
  0N   2dx2y2     0.004185 -0.229784 -0.162491  0.460070  0.572106  0.966936
  0N   2dxy      -0.005604 -0.214699 -0.634645  0.189394 -0.766551 -0.365561
  0N   1f0        0.000624  0.000199  0.000721  0.005273 -0.035168 -0.001603
  0N   1f+1       0.003915  0.003092 -0.000369  0.000058 -0.052428  0.017246
  0N   1f-1      -0.000981  0.008663 -0.000329  0.006146  0.014541 -0.049865
  0N   1f+2      -0.002425  0.003011  0.000101 -0.004889 -0.008608 -0.016697
  0N   1f-2      -0.003888  0.005411  0.000362 -0.003561  0.052075 -0.009506
  0N   1f+3      -0.003029 -0.002965  0.000289  0.004651  0.040581  0.034513
  0N   1f-3      -0.004626 -0.003372 -0.000692  0.001976  0.027496  0.019010
  1H   1s        -0.093387  0.011246 -0.000023 -0.000017 -0.194745 -0.094055
  1H   2s        -0.574805 -0.323208  0.000142  0.000051  2.271466  1.787813
  1H   3s         2.009435 -0.101477  0.000071 -0.000018 -0.457774  0.167496
  1H   1pz        0.004915  0.172377 -0.091813  0.072991  0.094751  0.012620
  1H   1px       -0.000969  0.073278  0.174202 -0.138618  0.127221  0.054435
  1H   1py       -0.013845 -0.068983 -0.044572  0.035504  0.302058  0.186660
  2H   1s         0.093507  0.011221  0.000014  0.000023  0.194816 -0.093888
  2H   2s         0.575079 -0.323141  0.000234 -0.000095 -2.273404  1.786286
  2H   3s        -2.012503 -0.101453 -0.000021  0.000017  0.457711  0.167852
  2H   1pz        0.007884  0.052352  0.091647  0.072988 -0.296346  0.154443
  2H   1px        0.000999  0.073044 -0.174176 -0.138633 -0.127313  0.054370
  2H   1py       -0.012408  0.178183  0.044462  0.035561  0.112202 -0.105295
                     18        19        20        21        22        23   
                   1.61650   1.78893   1.79669   1.82910   1.91381   1.97553
                   0.00000   0.00000   0.00000   0.00000   0.00000   0.00000
                  --------  --------  --------  --------  --------  --------
  0N   1s         0.000006 -0.038313  0.000003 -0.000002  0.102483 -0.000013
  0N   2s         0.000019 -0.123242  0.000010 -0.000009  0.329639 -0.000041
  0N   3s        -0.000148  1.274220 -0.000021  0.000172 -2.394105  0.000347
  0N   4s         0.000285 -3.381169 -0.000112 -0.000631  3.897969 -0.000775
  0N   5s        -0.000072  1.322926  0.000021  0.000287 -2.028636  0.000325
  0N   1pz       -0.096219 -0.572277 -0.313464 -0.000580 -0.500835 -0.426207
  0N   1px       -0.000004 -0.372471  0.595225  0.000718 -0.325997  0.000173
  0N   1py        0.198039 -0.278082 -0.152434 -0.000320 -0.243285  0.877092
  0N   2pz        0.152889  1.409930  0.290964  0.000738  0.358314  1.007820
  0N   2px       -0.000039  0.917566 -0.552276 -0.000539  0.233196 -0.000185
  0N   2py       -0.314658  0.684879  0.141488  0.000408  0.173852 -2.073198
  0N   3pz       -0.204856 -0.339511 -0.266816 -0.000473 -0.221146 -0.457677
  0N   3px       -0.000044 -0.220994  0.506704  0.000568 -0.143945  0.000112
  0N   3py        0.421414 -0.164881 -0.129726 -0.000269 -0.107347  0.941563
  0N   1dz2       0.010179  0.000357 -0.006577 -0.007770 -0.001467 -0.008174
  0N   1dxz       0.003826 -0.007802  0.004739  0.008516 -0.003528 -0.003072
  0N   1dyz      -0.009230  0.010128 -0.003709  0.007031 -0.000595  0.007413
  0N   1dx2y2     0.005874  0.015278  0.005610 -0.004470  0.001582 -0.004713
  0N   1dxy      -0.007864 -0.003782  0.002325 -0.017496 -0.001705  0.006311
  0N   2dz2      -0.186314  0.068787  0.365143  0.306411  0.123562 -0.049309
  0N   2dxz      -0.069921 -0.006604 -0.263127 -0.335798  0.161106 -0.018583
  0N   2dyz       0.168883  0.228134  0.205635 -0.277009  0.209303  0.044701
  0N   2dx2y2    -0.107435  0.238652 -0.311040  0.176435  0.114753 -0.028448
  0N   2dxy       0.144021 -0.003394 -0.128942  0.689969  0.078218  0.038104
  0N   1f0       -0.001535 -0.004566  0.003590  0.020719  0.001488  0.043959
  0N   1f+1       0.007735  0.035491  0.000335 -0.010555 -0.006361  0.070665
  0N   1f-1      -0.001757 -0.149719 -0.008255 -0.009214  0.051370 -0.019384
  0N   1f+2      -0.009028 -0.050426 -0.008073  0.002798  0.017406  0.006310
  0N   1f-2      -0.007675 -0.038691  0.012686  0.010499  0.016858 -0.070209
  0N   1f+3      -0.006001  0.095434 -0.015877  0.008177 -0.029860 -0.054742
  0N   1f-3      -0.012720  0.057243  0.006475 -0.019824 -0.019722 -0.041540
  1H   1s        -0.009717 -0.614337 -0.000046 -0.000139  0.179972  0.524106
  1H   2s        -0.212172  2.024248  0.000148  0.000438 -0.623607 -1.564242
  1H   3s         0.293955 -0.870797 -0.000054 -0.000222  0.487874  1.199835
  1H   1pz        0.648190  0.211494  0.304210 -0.374819  0.200454 -0.180071
  1H   1px        0.265849  0.227497 -0.577598  0.712312  0.047444 -0.182896
  1H   1py       -0.294946  0.454335  0.147875 -0.182244 -0.226716 -0.344167
  2H   1s         0.009881 -0.614326 -0.000016 -0.000107  0.179702 -0.523993
  2H   2s         0.211860  2.024909  0.000183  0.000436 -0.623163  1.564453
  2H   3s        -0.293857 -0.871137 -0.000068 -0.000186  0.487512 -1.199926
  2H   1pz       -0.168552  0.488023  0.303189  0.375820 -0.054496  0.382089
  2H   1px       -0.265739  0.227909 -0.575905 -0.713549  0.047659  0.182885
  2H   1py       -0.691880 -0.114612  0.147337  0.182747  0.297748 -0.071124
                     24        25        26        27        28        29   
                   2.11385   2.17401   2.35683   2.37080   2.92734   2.99155
                   0.00000   0.00000   0.00000   0.00000   0.00000   0.00000
                  --------  --------  --------  --------  --------  --------
  0N   1s        -0.000005 -0.057715  0.057412  0.000111 -0.007351  0.000009
  0N   2s        -0.000015 -0.194290  0.181769  0.000359  0.010325  0.000022
  0N   3s         0.000120  1.427361 -0.955056 -0.002022 -1.324299  0.000073
  0N   4s        -0.000211 -2.078655  0.356610  0.001016  4.845482 -0.000872
  0N   5s         0.000110  2.180742 -1.638359 -0.003131 -0.378762  0.000012
  0N   1pz        0.474299 -0.000974  0.589570  0.293202  0.220050 -0.204749
  0N   1px       -0.901088 -0.000655  0.384018  0.000666  0.143286  0.000033
  0N   1py        0.230657 -0.000565  0.287859 -0.600255  0.107188  0.421164
  0N   2pz       -0.735967 -0.184923 -0.352644  0.322258 -2.100041  1.370391
  0N   2px        1.398227 -0.120357 -0.229011 -0.000460 -1.367051  0.000087
  0N   2py       -0.357887 -0.089850 -0.169735 -0.664641 -1.021456 -2.817717
  0N   3pz        0.223239 -0.561291  0.577519  0.246429 -0.032522 -0.050531
  0N   3px       -0.424105 -0.365343  0.376148  0.000649 -0.021142  0.000018
  0N   3py        0.108548 -0.272899  0.281838 -0.504156 -0.015750  0.103973
  0N   1dz2      -0.006424  0.001395 -0.000993  0.025170  0.008324  0.113299
  0N   1dxz       0.004634  0.023496 -0.007019  0.009445 -0.046215  0.042570
  0N   1dyz      -0.003598 -0.022629  0.005093 -0.022812  0.079762 -0.102765
  0N   1dx2y2     0.005455 -0.037936  0.009527  0.014562  0.110902  0.065386
  0N   1dxy       0.002243  0.011421 -0.003364 -0.019466 -0.022495 -0.087573
  0N   2dz2       0.255295  0.331927  0.172699 -0.396695  0.176572 -1.099328
  0N   2dxz      -0.184092  0.381714  0.088853 -0.148982  0.724501 -0.413167
  0N   2dyz       0.143306  0.620785  0.446470  0.360739 -0.269675  0.996979
  0N   2dx2y2    -0.217068  0.400171  0.405035 -0.228521 -0.729886 -0.634431
  0N   2dxy      -0.089391  0.185461  0.042378  0.306948  0.352467  0.849689
  0N   1f0        0.012945  0.002688 -0.005110  0.069769 -0.001303 -0.034182
  0N   1f+1       0.000732  0.014871  0.066515  0.129454  0.065500 -0.135561
  0N   1f-1      -0.011133  0.105077 -0.150035 -0.035143 -0.016478  0.034437
  0N   1f+2      -0.021903  0.036091 -0.049994 -0.004859 -0.004451  0.064694
  0N   1f-2       0.023105  0.051713 -0.019274 -0.128510  0.033866  0.134656
  0N   1f+3      -0.028657 -0.047176  0.111399 -0.099995  0.041229  0.105021
  0N   1f-3       0.015559 -0.040620  0.057219 -0.089638  0.005665  0.144196
  1H   1s        -0.000013  0.432999 -0.377737  0.416624 -0.399422 -0.693696
  1H   2s         0.000066 -0.724588  1.174702 -1.816144 -2.343929 -1.915205
  1H   3s        -0.000049 -0.362879  0.268433  0.178711  0.393205  0.424653
  1H   1pz        0.250040  0.671618  0.504854 -0.109072  0.062693 -0.311097
  1H   1px       -0.474944  0.278760  0.400710 -0.325257 -0.361336 -0.455175
  1H   1py        0.121595 -0.291979  0.527333 -1.046217 -1.540378 -1.138305
  2H   1s        -0.000003  0.432915 -0.376144 -0.417951 -0.399318  0.694004
  2H   2s         0.000089 -0.724538  1.167776  1.820201 -2.343541  1.916089
  2H   3s        -0.000052 -0.362906  0.269303 -0.177613  0.393070 -0.424752
  2H   1pz        0.250080  0.185231  0.723266  0.892722 -1.172451  1.087832
  2H   1px       -0.475119  0.278955  0.399528  0.326538 -0.361051  0.455250
  2H   1py        0.121589  0.708538  0.073364 -0.560217  1.000657 -0.458740
[...]
    6. BD*( 1) N  1- H  2       0.00015    -0.23471
    7. BD*( 1) N  1- H  3       0.00015    -0.23459
    8. RY ( 1) N  1             0.00000     3.39033
    9. RY ( 2) N  1             0.00000     1.26942
   10. RY ( 3) N  1             0.00000    16.70913
   11. RY ( 4) N  1             0.00000     0.72007
   12. RY ( 5) N  1             0.00000     6.34843
   13. RY ( 6) N  1             0.00000     0.63891
   14. RY ( 7) N  1             0.00000     2.98427
   15. RY ( 8) N  1             0.00000     0.28405
   16. RY ( 9) N  1             0.00000     3.93822
   17. RY (10) N  1             0.00000     0.85209
   18. RY (11) N  1             0.00000     3.72809
   19. RY (12) N  1             0.00000     0.78752
   20. RY (13) N  1             0.00000     3.68820
   21. RY (14) N  1             0.00000     0.84301
   22. RY (15) N  1             0.00000     3.72926
   23. RY (16) N  1             0.00000     0.87624
   24. RY (17) N  1             0.00000     3.75191
   25. RY (18) N  1             0.00000     0.91235
   26. RY (19) N  1             0.00000     3.72653
   27. RY (20) N  1             0.00000     3.58312
   28. RY (21) N  1             0.00000     3.60637
   29. RY (22) N  1             0.00000     3.81126
   30. RY (23) N  1             0.00000     3.50648
   31. RY (24) N  1             0.00000     3.64502
   32. RY (25) N  1             0.00000     3.70104
   33. RY (26) N  1             0.00000     3.57616
   34. RY ( 1) H  2             0.00028     0.98886
   35. RY ( 2) H  2             0.00009     1.37447
   36. RY ( 3) H  2             0.00000     1.58364
   37. RY ( 4) H  2             0.00000     1.45167
   38. RY ( 5) H  2             0.00000     1.55875
   39. RY ( 1) H  3             0.00028     0.98985
   40. RY ( 2) H  3             0.00009     1.37403
   41. RY ( 3) H  3             0.00000     1.58346
   42. RY ( 4) H  3             0.00000     1.45182
   43. RY ( 5) H  3             0.00000     1.55845
          -------------------------------
                 Total Lewis    3.99895  ( 99.9737%)
           Valence non-Lewis    0.00031  (  0.0077%)
           Rydberg non-Lewis    0.00074  (  0.0186%)
          -------------------------------
               Total unit  1    4.00000  (100.0000%)
              Charge unit  1    0.50000

 $CHOOSE
  ALPHA
   LONE 1 2 END
   BOND S 1 2 S 1 3 END
  END
  BETA
   LONE 1 1 END
   BOND S 1 2 S 1 3 END
  END
 $END

 NBO analysis completed in 0.09 CPU seconds (0 wall seconds)
 Maximum scratch memory used by NBO was 418429 words (3.19 MB)
Stopping NBO...Storing NBOs: NH2·.nbo

                                *** returned from  NBO  program ***

-------
TIMINGS
-------

Total SCF time: 0 days 0 hours 0 min 1 sec 

Total time                  ....       1.255 sec
Sum of individual times     ....       1.085 sec  ( 86.5%)

Fock matrix formation       ....       0.645 sec  ( 51.4%)
  Split-RI-J                ....       0.211 sec  ( 32.7% of F)
  XC integration            ....       0.058 sec  (  8.9% of F)
    Basis function eval.    ....       0.009 sec  ( 16.3% of XC)
    Density eval.           ....       0.014 sec  ( 23.7% of XC)
    XC-Functional eval.     ....       0.004 sec  (  6.3% of XC)
    XC-Potential eval.      ....       0.014 sec  ( 23.8% of XC)
Diagonalization             ....       0.002 sec  (  0.2%)
Density matrix formation    ....       0.001 sec  (  0.1%)
Population analysis         ....       0.155 sec  ( 12.4%)
Initial guess               ....       0.009 sec  (  0.7%)
Orbital Transformation      ....       0.000 sec  (  0.0%)
Orbital Orthonormalization  ....       0.001 sec  (  0.1%)
DIIS solution               ....       0.000 sec  (  0.0%)
Grid generation             ....       0.272 sec  ( 21.7%)


-------------------------------------------------------------------------------
                          DFT DISPERSION CORRECTION                            
                                                                               
                                 DFTD4 V2.0                                    
-------------------------------------------------------------------------------
The BLYP functional is recognized
Active option DFTDOPT                   ...         5   

-------------------------   ----------------
Dispersion correction           -0.000558786
-------------------------   ----------------

------------------   -----------------
gCP correction             0.001333238
------------------   -----------------

-------------------------   --------------------
FINAL SINGLE POINT ENERGY       -55.888464250022
-------------------------   --------------------

                                *** OPTIMIZATION RUN DONE ***

                            ***************************************
                            *     ORCA property calculations      *
                            ***************************************

                                    ---------------------
                                    Active property flags
                                    ---------------------
   (+) Dipole Moment


------------------------------------------------------------------------------
                       ORCA ELECTRIC PROPERTIES CALCULATION
------------------------------------------------------------------------------

Dipole Moment Calculation                       ... on
Quadrupole Moment Calculation                   ... off
Polarizability Calculation                      ... off
GBWName                                         ... NH2·.gbw
Electron density file                           ... NH2·.scfp
The origin for moment calculation is the CENTER OF MASS  = (-7.838661, -0.959231 -0.019542)

-------------
DIPOLE MOMENT
-------------
                                X             Y             Z
Electronic contribution:      0.07198       0.05394       0.11060
Nuclear contribution   :     -0.53675      -0.40093      -0.82462
                        -----------------------------------------
Total Dipole Moment    :     -0.46478      -0.34698      -0.71403
                        -----------------------------------------
Magnitude (a.u.)       :      0.91992
Magnitude (Debye)      :      2.33825



--------------------
Rotational spectrum 
--------------------
 
Rotational constants in cm-1:    22.778876    12.759037     8.178210 
Rotational constants in MHz : 682893.532311 382506.291586 245176.568208 

 Dipole components along the rotational axes: 
x,y,z [a.u.] :    -0.000045    -0.919919     0.000046 
x,y,z [Debye]:    -0.000115    -2.338248     0.000116 

 


           ************************************************************
           *        Program running with 8 parallel MPI-processes     *
           *              working on a common directory               *
           ************************************************************

-------------------------------------------------------------------------------
                               ORCA SCF HESSIAN
-------------------------------------------------------------------------------

Hessian of the Kohn-Sham DFT energy:
Kohn-Sham wavefunction type                      ... UKS
Hartree-Fock exchange scaling                    ...    0.000
Number of operators                              ...    2
Number of atoms                                  ...    3
Basis set dimensions                             ...   43
Integral neglect threshold                       ... 2.5e-11
Integral primitive cutoff                        ... 2.5e-12

Setting up DFT Hessian calculations              ... 
Electron density on the grid                     ... found on disk
Electron density on the final grid               ... found on disk
Building xc-kernel on the grid                   ... done   (      0.0 sec)
Building xc-kernel on the final grid             ... done   (      0.0 sec)
                                                     done   (      0.0 sec)

Nuclear repulsion Hessian                        ... done   (      0.0 sec)

----------------------------------------------
Forming right-hand sides of CP-SCF equations     ...
----------------------------------------------
One electron integral derivatives                ... done   (      0.5 sec)
Transforming the overlap derivative matrices     ... done   (      0.0 sec)
Adding tr(S(x)F(y) C-PCM term to the hessian     ... done   (      0.2 sec)
Making the Q(x) pseudodensities                  ... done   (      0.0 sec)
Adding the E*S(x)*S(y) terms to the Hessian      ... done   (      0.0 sec)
Calculating energy weighted overlap derivatives  ... done   (      0.0 sec)
Two electron integral derivatives (RI)           ... done   (      0.2 sec)
Exchange-correlation integral derivatives        ... done   (      0.5 sec)
tr(F(y)Q(x)) contribution to the Hessian         ... done   (      0.0 sec)
Response fock operator R(S(x)) (RI)              ... done   (      0.2 sec)
XC Response fock operator R(S(x))                ... done   (      0.1 sec)
tr(F(y)S(x)) contribution to the Hessian         ... done   (      0.0 sec)
Transforming and finalizing RHSs                 ... done   (      0.0 sec)

----------------------------------------------
Solving the CP-SCF equations (RI)                ...
----------------------------------------------
     CP-SCF ITERATION   0: 
     CP-SCF ITERATION   1:      0.001891015180
     CP-SCF ITERATION   2:      0.000397516061
     CP-SCF ITERATION   3:      0.000009675723
     CP-SCF ITERATION   4:      0.000000772050
     CP-SCF ITERATION   5:      0.000000016439
     CP-SCF ITERATION   6:      0.000000007261

                                                 ... done   (      2.8 sec)
Forming perturbed density Hessian contributions  ... done   (      0.0 sec)
Making the perturbed densities                   ... done   (      0.0 sec)
Calculating [Q*(d^2 A/dXdY)*Q  ] C-PCM term      ... done   (      0.0 sec)
Calculating [d^2(V_N)/(dXdY)*Q ] C-PCM term      ... done   (      0.0 sec)
Calculating [d^2(V_el)/(dXdY)*Q] C-PCM term      ... done   (      0.1 sec)
Calculating C-PCM term that depends on dQ/dX     ... done   (      0.0 sec)
2nd integral derivative contribs (RI)            ... done   (      0.3 sec)
Exchange-correlation Hessian                     ... done   (      0.5 sec)
Dispersion correction in the Hessian             ... 

------------------- 
Dispersion Gradient 
------------------- 
   1  :   -0.000064479   -0.000047766   -0.000098271
   2  :    0.000033377    0.000069755    0.000028971
   3  :    0.000033374   -0.000020303    0.000072760

  |G| =    0.000469057



------------------- 
Dispersion Gradient 
------------------- 
   1  :   -0.000063870   -0.000048086   -0.000098929
   2  :    0.000033015    0.000070206    0.000029084
   3  :    0.000033012   -0.000020493    0.000073185

  |G| =    0.000469881



------------------- 
Dispersion Gradient 
------------------- 
   1  :   -0.000064440   -0.000047721   -0.000098940
   2  :    0.000033236    0.000070006    0.000029039
   3  :    0.000033367   -0.000020561    0.000073164

  |G| =    0.000470475



------------------- 
Dispersion Gradient 
------------------- 
   1  :   -0.000063913   -0.000048134   -0.000098257
   2  :    0.000033157    0.000069957    0.000029017
   3  :    0.000033022   -0.000020237    0.000072783

  |G| =    0.000468476

done   (      0.1 sec)
gCP correction in the Hessian                    ... done   (      0.0 sec)
Dipol derivatives                                ... done   (      0.1 sec)

Total SCF Hessian time: 0 days 0 hours 0 min 6 sec 

Writing the Hessian file to the disk             ... done


Maximum memory used throughout the entire calculation: 181.3 MB

-----------------------
VIBRATIONAL FREQUENCIES
-----------------------

Scaling factor for frequencies =  1.000000000  (already applied!)

   0:         0.00 cm**-1
   1:         0.00 cm**-1
   2:         0.00 cm**-1
   3:         0.00 cm**-1
   4:         0.00 cm**-1
   5:         0.00 cm**-1
   6:      1460.77 cm**-1
   7:      3240.89 cm**-1
   8:      3317.46 cm**-1


------------
NORMAL MODES
------------

These modes are the Cartesian displacements weighted by the diagonal matrix
M(i,i)=1/sqrt(m[i]) where m[i] is the mass of the displaced atom
Thus, these vectors are normalized but *not* orthogonal

                  0          1          2          3          4          5    
      0       0.000000   0.000000   0.000000   0.000000   0.000000   0.000000
      1       0.000000   0.000000   0.000000   0.000000   0.000000   0.000000
      2       0.000000   0.000000   0.000000   0.000000   0.000000   0.000000
      3       0.000000   0.000000   0.000000   0.000000   0.000000   0.000000
      4       0.000000   0.000000   0.000000   0.000000   0.000000   0.000000
      5       0.000000   0.000000   0.000000   0.000000   0.000000   0.000000
      6       0.000000   0.000000   0.000000   0.000000   0.000000   0.000000
      7       0.000000   0.000000   0.000000   0.000000   0.000000   0.000000
      8       0.000000   0.000000   0.000000   0.000000   0.000000   0.000000
                   6          7          8    
      0      -0.040426  -0.028897   0.000101
      1      -0.030164  -0.021874  -0.071152
      2      -0.062123  -0.044255   0.034792
      3       0.280753   0.201714   0.221829
      4      -0.180114   0.677376   0.658172
      5       0.620889   0.053768   0.101317
      6       0.281003   0.199838  -0.223235
      7       0.599273  -0.373419   0.330543
      8       0.242361   0.561189  -0.584782


-----------
IR SPECTRUM
-----------

 Mode    freq (cm**-1)   T**2         TX         TY         TZ
-------------------------------------------------------------------
   6:      1460.77   48.943933  (  3.533981   2.631396   5.434212)
   7:      3240.89    5.090494  ( -1.130414  -0.836626  -1.764289)
   8:      3317.46    0.000338  ( -0.001877   0.015550   0.009627)

The first frequency considered to be a vibration is 6
The total number of vibrations considered is 3


--------------------------
THERMOCHEMISTRY AT 298.15K
--------------------------

Temperature         ... 298.15 K
Pressure            ... 1.00 atm
Total Mass          ... 16.02 AMU

Throughout the following assumptions are being made:
  (1) The electronic state is orbitally nondegenerate
      but the spin degeneracy is treated
  (2) There are no thermally accessible electronically excited states
  (3) Hindered rotations indicated by low frequency modes are not
      treated as such but are treated as vibrations and this may
      cause some error
  (4) All equations used are the standard statistical mechanics
      equations for an ideal gas
  (5) All vibrations are strictly harmonic

freq.    1460.77  E(vib)   ...       0.00 
freq.    3240.89  E(vib)   ...       0.00 
freq.    3317.46  E(vib)   ...       0.00 

------------
INNER ENERGY
------------

The inner energy is: U= E(el) + E(ZPE) + E(vib) + E(rot) + E(trans)
    E(el)   - is the total energy from the electronic structure calculation
              = E(kin-el) + E(nuc-el) + E(el-el) + E(nuc-nuc)
    E(ZPE)  - the the zero temperature vibrational energy from the frequency calculation
    E(vib)  - the the finite temperature correction to E(ZPE) due to population
              of excited vibrational states
    E(rot)  - is the rotational thermal energy
    E(trans)- is the translational thermal energy

Summary of contributions to the inner energy U:
Electronic energy                ...    -55.88846425 Eh
Zero point energy                ...      0.01826890 Eh      11.46 kcal/mol
Thermal vibrational correction   ...      0.00000579 Eh       0.00 kcal/mol
Thermal rotational correction    ...      0.00141627 Eh       0.89 kcal/mol
Thermal translational correction ...      0.00141627 Eh       0.89 kcal/mol
-----------------------------------------------------------------------
Total thermal energy                    -55.86735702 Eh


Summary of corrections to the electronic energy:
(perhaps to be used in another calculation)
Total thermal correction                  0.00283833 Eh       1.78 kcal/mol
Non-thermal (ZPE) correction              0.01826890 Eh      11.46 kcal/mol
-----------------------------------------------------------------------
Total correction                          0.02110723 Eh      13.24 kcal/mol


--------
ENTHALPY
--------

The enthalpy is H = U + kB*T
                kB is Boltzmann's constant
Total free energy                 ...    -55.86735702 Eh 
Thermal Enthalpy correction       ...      0.00094421 Eh       0.59 kcal/mol
-----------------------------------------------------------------------
Total Enthalpy                    ...    -55.86641281 Eh


Note: Rotational entropy computed according to Herzberg 
Infrared and Raman Spectra, Chapter V,1, Van Nostrand Reinhold, 1945 
Point Group:  Cs, Symmetry Number:   1  
Rotational constants in cm-1:    22.778876    12.759037     8.178210 

Vibrational entropy computed according to the QRRHO of S. Grimme
Chem.Eur.J. 2012 18 9955


-------
ENTROPY
-------

The entropy contributions are T*S = T*(S(el)+S(vib)+S(rot)+S(trans))
     S(el)   - electronic entropy
     S(vib)  - vibrational entropy
     S(rot)  - rotational entropy
     S(trans)- translational entropy
The entropies will be listed as mutliplied by the temperature to get
units of energy

Electronic entropy                ...      0.00065446 Eh      0.41 kcal/mol
Vibrational entropy               ...      0.00000661 Eh      0.00 kcal/mol
Rotational entropy                ...      0.00584099 Eh      3.67 kcal/mol
Translational entropy             ...      0.01627784 Eh     10.21 kcal/mol
-----------------------------------------------------------------------
Final entropy term                ...      0.02277990 Eh     14.29 kcal/mol

In case the symmetry of your molecule has not been determined correctly
or in case you have a reason to use a different symmetry number we print 
out the resulting rotational entropy values for sn=1,12 :
 --------------------------------------------------------
|  sn= 1 | S(rot)=       0.00584099 Eh      3.67 kcal/mol|
|  sn= 2 | S(rot)=       0.00518654 Eh      3.25 kcal/mol|
|  sn= 3 | S(rot)=       0.00480370 Eh      3.01 kcal/mol|
|  sn= 4 | S(rot)=       0.00453208 Eh      2.84 kcal/mol|
|  sn= 5 | S(rot)=       0.00432139 Eh      2.71 kcal/mol|
|  sn= 6 | S(rot)=       0.00414925 Eh      2.60 kcal/mol|
|  sn= 7 | S(rot)=       0.00400370 Eh      2.51 kcal/mol|
|  sn= 8 | S(rot)=       0.00387762 Eh      2.43 kcal/mol|
|  sn= 9 | S(rot)=       0.00376642 Eh      2.36 kcal/mol|
|  sn=10 | S(rot)=       0.00366694 Eh      2.30 kcal/mol|
|  sn=11 | S(rot)=       0.00357695 Eh      2.24 kcal/mol|
|  sn=12 | S(rot)=       0.00349479 Eh      2.19 kcal/mol|
 --------------------------------------------------------


-------------------
GIBBS FREE ENERGY
-------------------

The Gibbs free energy is G = H - T*S

Total enthalpy                    ...    -55.86641281 Eh 
Total entropy correction          ...     -0.02277990 Eh    -14.29 kcal/mol
-----------------------------------------------------------------------
Final Gibbs free energy         ...    -55.88919271 Eh

For completeness - the Gibbs free energy minus the electronic energy
G-E(el)                           ...     -0.00072846 Eh     -0.46 kcal/mol


Timings for individual modules:

Sum of individual times         ...       13.366 sec (=   0.223 min)
GTO integral calculation        ...        0.835 sec (=   0.014 min)   6.3 %
SCF iterations                  ...        5.388 sec (=   0.090 min)  40.3 %
SCF Gradient evaluation         ...        0.748 sec (=   0.012 min)   5.6 %
Geometry relaxation             ...        0.026 sec (=   0.000 min)   0.2 %
Analytical frequency calculation...        6.369 sec (=   0.106 min)  47.6 %
                             ****ORCA TERMINATED NORMALLY****
TOTAL RUN TIME: 0 days 0 hours 0 minutes 13 seconds 828 msec
