
                                 *****************
                                 * O   R   C   A *
                                 *****************

           --- An Ab Initio, DFT and Semiempirical electronic structure package ---

                  #######################################################
                  #                        -***-                        #
                  #          Department of theory and spectroscopy      #
                  #               Directorship: Frank Neese             #
                  #        Max Planck Institute fuer Kohlenforschung    #
                  #                Kaiser Wilhelm Platz 1               #
                  #                 D-45470 Muelheim/Ruhr               #
                  #                      Germany                        #
                  #                                                     #
                  #                  All rights reserved                #
                  #                        -***-                        #
                  #######################################################


                         Program Version 4.2.1 -  RELEASE  -


 With contributions from (in alphabetic order):
   Daniel Aravena         : Magnetic Suceptibility
   Michael Atanasov       : Ab Initio Ligand Field Theory (pilot matlab implementation)
   Alexander A. Auer      : GIAO ZORA, VPT2
   Ute Becker             : Parallelization
   Giovanni Bistoni       : ED, misc. LED, open-shell LED, HFLD
   Martin Brehm           : Molecular dynamics
   Dmytro Bykov           : SCF Hessian
   Vijay G. Chilkuri      : MRCI spin determinant printing, contributions to CSF-ICE
   Dipayan Datta          : RHF DLPNO-CCSD density
   Achintya Kumar Dutta   : EOM-CC, STEOM-CC
   Dmitry Ganyushin       : Spin-Orbit,Spin-Spin,Magnetic field MRCI
   Miquel Garcia          : C-PCM Hessian, Gaussian charge scheme
   Yang Guo               : DLPNO-NEVPT2, CIM, IAO-localization
   Andreas Hansen         : Spin unrestricted coupled pair/coupled cluster methods
   Benjamin Helmich-Paris : CASSCF linear response (MC-RPA)
   Lee Huntington         : MR-EOM, pCC
   Robert Izsak           : Overlap fitted RIJCOSX, COSX-SCS-MP3, EOM
   Christian Kollmar      : KDIIS, OOCD, Brueckner-CCSD(T), CCSD density
   Simone Kossmann        : Meta GGA functionals, TD-DFT gradient, OOMP2, MP2 Hessian
   Martin Krupicka        : AUTO-CI
   Lucas Lang             : DCDCAS
   Dagmar Lenk            : GEPOL surface, SMD
   Dimitrios Liakos       : Extrapolation schemes; Compound Job, initial MDCI parallelization
   Dimitrios Manganas     : Further ROCIS development; embedding schemes
   Dimitrios Pantazis     : SARC Basis sets
   Taras Petrenko         : DFT Hessian,TD-DFT gradient, ASA, ECA, R-Raman, ABS, FL, XAS/XES, NRVS
   Peter Pinski           : DLPNO-MP2, DLPNO-MP2 Gradient
   Christoph Reimann      : Effective Core Potentials
   Marius Retegan         : Local ZFS, SOC
   Christoph Riplinger    : Optimizer, TS searches, QM/MM, DLPNO-CCSD(T), (RO)-DLPNO pert. Triples
   Tobias Risthaus        : Range-separated hybrids, TD-DFT gradient, RPA, STAB
   Michael Roemelt        : Original ROCIS implementation
   Masaaki Saitow         : Open-shell DLPNO-CCSD energy and density
   Barbara Sandhoefer     : DKH picture change effects
   Avijit Sen             : IP-ROCIS
   Kantharuban Sivalingam : CASSCF convergence, NEVPT2, FIC-MRCI
   Bernardo de Souza      : ESD, SOC TD-DFT
   Georgi Stoychev        : AutoAux, RI-MP2 NMR
   Willem Van den Heuvel  : Paramagnetic NMR
   Boris Wezisla          : Elementary symmetry handling
   Frank Wennmohs         : Technical directorship


 We gratefully acknowledge several colleagues who have allowed us to
 interface, adapt or use parts of their codes:
   Stefan Grimme, W. Hujo, H. Kruse,             : VdW corrections, initial TS optimization,
                  C. Bannwarth                     DFT functionals, gCP, sTDA/sTD-DF
   Ed Valeev, F. Pavosevic, A. Kumar             : LibInt (2-el integral package), F12 methods
   Garnet Chan, S. Sharma, J. Yang, R. Olivares  : DMRG
   Ulf Ekstrom                                   : XCFun DFT Library
   Mihaly Kallay                                 : mrcc  (arbitrary order and MRCC methods)
   Andreas Klamt, Michael Diedenhofen            : otool_cosmo (COSMO solvation model)
   Jiri Pittner, Ondrej Demel                    : Mk-CCSD
   Frank Weinhold                                : gennbo (NPA and NBO analysis)
   Christopher J. Cramer and Donald G. Truhlar   : smd solvation model
   Lars Goerigk                                  : TD-DFT with DH, B97 family of functionals
   V. Asgeirsson, H. Jonsson                     : NEB implementation
   FAccTs GmbH                                   : IRC, NEB, NEB-TS, Multilevel, MM, QM/MM, CI optimization
   S Lehtola, MJT Oliveira, MAL Marques          : LibXC Library


 Your calculation uses the libint2 library for the computation of 2-el integrals
 For citations please refer to: http://libint.valeyev.net

 Your ORCA version has been built with support for libXC version: 4.2.3
 For citations please refer to: https://tddft.org/programs/libxc/

 This ORCA versions uses:
   CBLAS   interface :  Fast vector & matrix operations
   LAPACKE interface :  Fast linear algebra routines
   SCALAPACK package :  Parallel linear algebra routines




***************************************
The coordinates will be read from file: NH3·OH.xyz
***************************************


Your calculation utilizes the geometrical counterpoise correction gCP
Please cite in your paper:
H.Kruse, S. Grimme J.Chem.Phys., 136, (2012), 154101 
   

Your calculation utilizes the atom-pairwise dispersion correction
based on tight binding partial charges (D4)
Cite in your paper:
E.Caldeweyher, C.Bannwarth, S.Grimme, J.Chem.Phys., (2017), 147, 034112.
E.Caldeweyher, S.Ehlert, A.Hansen, H.Neugebauer, S.Grimme, J.Chem.Phys., (2018), in progress.
   

Your calculation utilizes the SMD solvation module
Please cite in your paper:
A.V. Marenich, C.J. Cramer, D.G. Truhlar J. Phys. Chem. B, 113, (2009), 6378 

----- Orbital basis set information -----
Your calculation utilizes the basis: def2-TZVP
   F. Weigend and R. Ahlrichs, Phys. Chem. Chem. Phys. 7, 3297 (2005).

----- AuxJ basis set information -----
Your calculation utilizes the auxiliary basis: def2/J
   F. Weigend, Phys. Chem. Chem. Phys. 8, 1057 (2006).

================================================================================
                                        WARNINGS
                       Please study these warnings very carefully!
================================================================================


WARNING: your system is open-shell and RHF/RKS was chosen
  ===> : WILL SWITCH to UHF/UKS


WARNING: Geometry Optimization
  ===> : Switching off AutoStart
         For restart on a previous wavefunction, please use MOREAD

INFO   : the flag for use of LIBINT has been found!

================================================================================
                                       INPUT FILE
================================================================================
NAME = NH3·OH.inp
|  1> ! BLYP D4 gCP(DFT/TZ) def2-TZVP OptTS Freq IRC TightOpt TightSCF Grid4 FinalGrid5 PrintBasis PrintMOs NBO
|  2> # BLYP > B97 > revPBE are excellent choices for geometry optimizations
|  3> 
|  4> %geom
|  5>  ts_mode
|  6>   {B 1 4}
|  7>  end
|  8>  ts_active_atoms
|  9>   {0 1 4}
| 10>  end
| 11> end
| 12> 
| 13> %geom
| 14>  inhess read
| 15>  inhessname "freq.hess"
| 16> end
| 17> 
| 18> %irc
| 19>  maxiter 1000
| 20>  de_init_displ 0.25
| 21>  TolMAXG 1e-3
| 22>  TolRMSG 2e-4
| 23> end
| 24> 
| 25> %pal
| 26>  nprocs 12
| 27> end
| 28> 
| 29> %cpcm
| 30>  smd true
| 31>  smdsolvent "water"
| 32> end
| 33> 
| 34> *xyzfile 0 2 NH3·OH.xyz
| 35> 
| 36>                          ****END OF INPUT****
================================================================================

                       *****************************
                       * Geometry Optimization Run *
                       *****************************

Geometry optimization settings:
Update method            Update   .... Bofill
Choice of coordinates    CoordSys .... Z-matrix Internals
Initial Hessian          InHess   .... Read

Convergence Tolerances:
Energy Change            TolE     ....  1.0000e-06 Eh
Max. Gradient            TolMAXG  ....  1.0000e-04 Eh/bohr
RMS Gradient             TolRMSG  ....  3.0000e-05 Eh/bohr
Max. Displacement        TolMAXD  ....  1.0000e-03 bohr
RMS Displacement         TolRMSD  ....  6.0000e-04 bohr
Strict Convergence                ....  False
------------------------------------------------------------------------------
                        ORCA OPTIMIZATION COORDINATE SETUP
------------------------------------------------------------------------------

The optimization will be done in new redundant internal coordinates
Making redundant internal coordinates   ...  (new redundants) done
Following TS mode number                ...    internal coordinate number:  5
TS-active-atoms for coordinate setup... 0 1 4 
Evaluating the initial hessian          ... (Reading Exact Hessian)...  
InHessName: freq.hess	The file <freq.hess> is opened as a .hess file
done
done
Diagonalizing the Hessian               .... done
Dimension of the hessian                .... 14
Lowest eigenvalues of the non projected Hessian:
 -0.018322479  0.000000958  0.000007749  0.003676955  0.004993174
done
Evaluating the coordinates              ...  done
Calculating the B-matrix                .... done
Calculating the G-matrix                .... done
Diagonalizing the G-matrix              .... done
The first mode is                       ....    2
The number of degrees of freedom        ....   12

    -----------------------------------------------------------------
                    Redundant Internal Coordinates


    -----------------------------------------------------------------
         Definition                    Initial Value    d2E/dq (diagonal element)
    -----------------------------------------------------------------
      1. B(H   1,N   0)                  1.2060         0.023633   
      2. B(H   2,N   0)                  1.0378         0.394357   
      3. B(H   3,N   0)                  1.0389         0.391678   
      4. B(O   4,N   0)                  2.3772         0.043907   
      5. B(O   4,H   1)                  1.2574         0.000984   
      6. B(H   5,O   4)                  0.9881         0.435328   
      7. A(H   1,N   0,H   3)          110.7458         0.070068   
      8. A(H   2,N   0,H   3)          105.8333         0.061642   
      9. A(H   1,N   0,H   2)          109.8001         0.066064   
     10. A(N   0,H   1,O   4)          149.5887         0.044906   
     11. A(H   1,O   4,H   5)          103.0051         0.082894   
     12. D(O   4,H   1,N   0,H   3)    -64.6438         0.016956   
     13. D(O   4,H   1,N   0,H   2)     51.8729         0.015914   
     14. D(H   5,O   4,H   1,N   0)     68.9798         0.005659   
    -----------------------------------------------------------------

Number of atoms                         .... 6
Number of degrees of freedom            .... 14

         *************************************************************
         *                GEOMETRY OPTIMIZATION CYCLE   1            *
         *************************************************************
---------------------------------
CARTESIAN COORDINATES (ANGSTROEM)
---------------------------------
  N     -0.931471    0.235965    0.160609
  H      0.241554    0.367744    0.407568
  H     -1.266869   -0.676444    0.523934
  H     -1.090618    0.208211   -0.865604
  O      1.415152   -0.081960    0.368533
  H      1.632252   -0.053516   -0.595040

----------------------------
CARTESIAN COORDINATES (A.U.)
----------------------------
  NO LB      ZA    FRAG     MASS         X           Y           Z
   0 N     7.0000    0    14.007   -1.760224    0.445909    0.303507
   1 H     1.0000    0     1.008    0.456471    0.694936    0.770193
   2 H     1.0000    0     1.008   -2.394035   -1.278294    0.990091
   3 H     1.0000    0     1.008   -2.060970    0.393462   -1.635755
   4 O     8.0000    0    15.999    2.674250   -0.154883    0.696427
   5 H     1.0000    0     1.008    3.084509   -0.101130   -1.124463

--------------------------------
INTERNAL COORDINATES (ANGSTROEM)
--------------------------------
 N      0   0   0     0.000000000000     0.00000000     0.00000000
 H      1   0   0     1.205960728213     0.00000000     0.00000000
 H      1   2   0     1.037780100477   109.80012462     0.00000000
 H      1   2   3     1.038851263936   110.74580219   243.48322355
 O      2   1   3     1.257414361607   149.58871257    51.87294598
 H      5   2   1     0.988137374209   103.00508894    68.97978680

---------------------------
INTERNAL COORDINATES (A.U.)
---------------------------
 N      0   0   0     0.000000000000     0.00000000     0.00000000
 H      1   0   0     2.278935504587     0.00000000     0.00000000
 H      1   2   0     1.961120177135   109.80012462     0.00000000
 H      1   2   3     1.963144382717   110.74580219   243.48322355
 O      2   1   3     2.376168780297   149.58871257    51.87294598
 H      5   2   1     1.867309019947   103.00508894    68.97978680

---------------------
BASIS SET INFORMATION
---------------------
There are 3 groups of distinct atoms

 Group   1 Type N   : 11s6p2d1f contracted to 5s3p2d1f pattern {62111/411/11/1}
 Group   2 Type H   : 5s1p contracted to 3s1p pattern {311/1}
 Group   3 Type O   : 11s6p2d1f contracted to 5s3p2d1f pattern {62111/411/11/1}

Atom   0N    basis set group =>   1
Atom   1H    basis set group =>   2
Atom   2H    basis set group =>   2
Atom   3H    basis set group =>   2
Atom   4O    basis set group =>   3
Atom   5H    basis set group =>   2

-------------------------
BASIS SET IN INPUT FORMAT
-------------------------

 # Basis set for element : H 
 NewGTO H 
 S 3 
   1      34.0613410000      0.0254393072
   2       5.1235746000      0.1900859489
   3       1.1646626000      0.8524411301
 S 1 
   1       0.3272304100      1.0000000000
 S 1 
   1       0.1030724100      1.0000000000
 P 1 
   1       0.8000000000      1.0000000000
  end;

 # Basis set for element : N 
 NewGTO N 
 S 6 
   1   19730.8006470000      0.0005862639
   2    2957.8958745000      0.0045428821
   3     673.2213359500      0.0235584136
   4     190.6824949400      0.0947091933
   5      62.2954418980      0.2971978492
   6      22.6541611820      0.6691624689
 S 2 
   1       8.9791477428      0.6459668363
   2       3.6863002370      0.3870057440
 S 1 
   1       0.8466007680      1.0000000000
 S 1 
   1       0.3364713377      1.0000000000
 S 1 
   1       0.1364765367      1.0000000000
 P 4 
   1      49.2003805100      0.0114488252
   2      11.3467905370      0.0784223379
   3       3.4273972411      0.3081809474
   4       1.1785525134      0.7202719637
 P 1 
   1       0.4164220497      1.0000000000
 P 1 
   1       0.1426082601      1.0000000000
 D 1 
   1       1.6540000000      1.0000000000
 D 1 
   1       0.4690000000      1.0000000000
 F 1 
   1       1.0930000000      1.0000000000
  end;

 # Basis set for element : O 
 NewGTO O 
 S 6 
   1   27032.3826310000      0.0005722733
   2    4052.3871392000      0.0044353233
   3     922.3272271000      0.0230201076
   4     261.2407098900      0.0928224906
   5      85.3546413510      0.2937850002
   6      31.0350352450      0.6740160450
 S 2 
   1      12.2608607280      0.6383993702
   2       4.9987076005      0.3953458713
 S 1 
   1       1.1703108158      1.0000000000
 S 1 
   1       0.4647474099      1.0000000000
 S 1 
   1       0.1850453636      1.0000000000
 P 4 
   1      63.2749548010      0.0120183321
   2      14.6270493790      0.0830054217
   3       4.4501223456      0.3199174393
   4       1.5275799647      0.7071554292
 P 1 
   1       0.5293511794      1.0000000000
 P 1 
   1       0.1747842127      1.0000000000
 D 1 
   1       2.3140000000      1.0000000000
 D 1 
   1       0.6450000000      1.0000000000
 F 1 
   1       1.4280000000      1.0000000000
  end;

---------------------------------
AUXILIARY/J BASIS SET INFORMATION
---------------------------------
There are 3 groups of distinct atoms

 Group   1 Type N   : 12s5p4d2f1g contracted to 6s4p3d1f1g pattern {711111/2111/211/2/1}
 Group   2 Type H   : 5s2p1d contracted to 3s1p1d pattern {311/2/1}
 Group   3 Type O   : 12s5p4d2f1g contracted to 6s4p3d1f1g pattern {711111/2111/211/2/1}

Atom   0N    basis set group =>   1
Atom   1H    basis set group =>   2
Atom   2H    basis set group =>   2
Atom   3H    basis set group =>   2
Atom   4O    basis set group =>   3
Atom   5H    basis set group =>   2

-------------------------------------
AUXILIARY/J BASIS SET IN INPUT FORMAT
-------------------------------------

 # Auxiliary/J basis set for element : H 
 NewAuxJGTO H 
 S 3 
   1      15.6752927000      0.1007184237
   2       3.6063578000      0.3404257499
   3       1.2080016000      0.6491996172
 S 1 
   1       0.4726794000      1.0000000000
 S 1 
   1       0.2018100000      1.0000000000
 P 2 
   1       2.0281365000      0.5596620919
   2       0.5358730000      0.5596620919
 D 1 
   1       2.2165124000      1.0000000000
  end;

 # Auxiliary/J basis set for element : N 
 NewAuxJGTO N 
 S 7 
   1    2542.9401785000      0.0128431329
   2    1029.5472946000      0.0206655120
   3     424.9053546000      0.0652200677
   4     178.4573708000      0.1617388940
   5      76.1362742000      0.3094256941
   6      32.9338653000      0.3918849307
   7      14.4155436000      0.1822470660
 S 1 
   1       6.3718891000     -1.0000000000
 S 1 
   1       2.8381742000      1.0000000000
 S 1 
   1       1.2711793000      1.0000000000
 S 1 
   1       0.5712407000      1.0000000000
 S 1 
   1       0.2569887000      1.0000000000
 P 2 
   1      17.8975990000     -1.0974070137
   2       6.5346319000      0.1380055963
 P 1 
   1       2.3523645000      1.0000000000
 P 1 
   1       0.8397377000      1.0000000000
 P 1 
   1       0.2989335000      1.0000000000
 D 2 
   1       7.6909870000      0.1770780943
   2       2.3044972000      0.8918319220
 D 1 
   1       0.8403987000      1.0000000000
 D 1 
   1       0.3303797000      1.0000000000
 F 2 
   1       2.3331076000      0.6223178877
   2       0.8446137000      0.5036714203
 G 1 
   1       1.4037700000     -1.0000000000
  end;

 # Auxiliary/J basis set for element : O 
 NewAuxJGTO O 
 S 7 
   1    2876.8216605000      0.0168151159
   2    1004.7443032000      0.0340137548
   3     369.7579954000      0.1194951309
   4     142.9442404000      0.2664627624
   5      57.8366425000      0.4202764046
   6      24.3864983000      0.2765077335
   7      10.6622662000      0.0057008815
 S 1 
   1       4.8070437000     -1.0000000000
 S 1 
   1       2.2210770000      1.0000000000
 S 1 
   1       1.0447795000      1.0000000000
 S 1 
   1       0.4968425000      1.0000000000
 S 1 
   1       0.2371384000      1.0000000000
 P 2 
   1      64.2613382000     -0.2731534179
   2      16.3006076000     -0.8168011598
 P 1 
   1       4.3550542000      1.0000000000
 P 1 
   1       1.2019554000      1.0000000000
 P 1 
   1       0.3354196000      1.0000000000
 D 2 
   1       9.2146611000     -0.4661230638
   2       2.8435251000     -0.6600908911
 D 1 
   1       0.9955759000     -1.0000000000
 D 1 
   1       0.3649441000     -1.0000000000
 F 2 
   1       2.6420115000      0.5931563945
   2       0.7345613000      0.5931563945
 G 1 
   1       1.3931000000     -1.0000000000
  end;



           ************************************************************
           *        Program running with 12 parallel MPI-processes    *
           *              working on a common directory               *
           ************************************************************
------------------------------------------------------------------------------
                           ORCA GTO INTEGRAL CALCULATION
                           -- RI-GTO INTEGRALS CHOSEN --
------------------------------------------------------------------------------

                         BASIS SET STATISTICS AND STARTUP INFO

Gaussian basis set:
 # of primitive gaussian shells          ...   64
 # of primitive gaussian functions       ...  124
 # of contracted shells                  ...   38
 # of contracted basis functions         ...   86
 Highest angular momentum                ...    3
 Maximum contraction depth               ...    6
Auxiliary gaussian basis set:
 # of primitive gaussian shells          ...   80
 # of primitive gaussian functions       ...  204
 # of contracted shells                  ...   50
 # of contracted aux-basis functions     ...  142
 Highest angular momentum                ...    4
 Maximum contraction depth               ...    7
Ratio of auxiliary to basis functions    ...  1.65
Integral package used                  ... LIBINT
 One Electron integrals                  ... done
 Ordering auxiliary basis shells         ... done
 Integral threshhold             Thresh  ...  2.500e-11
 Primitive cut-off               TCut    ...  2.500e-12
 Pre-screening matrix                    ... done
 Shell pair data                         ... 
 Ordering of the shell pairs             ... done (   0.001 sec) 731 of 741 pairs
 Determination of significant pairs      ... done (   0.000 sec)
 Creation of shell pair data             ... done (   0.000 sec)
 Storage of shell pair data              ... done (   0.000 sec)
 Shell pair data done in (   0.004 sec)
 Computing two index integrals           ... done
 Cholesky decomposition of the V-matrix  ... done


Timings:
 Total evaluation time                   ...   0.226 sec (  0.004 min)
 One electron matrix time                ...   0.020 sec (  0.000 min) =  8.8%
 Schwartz matrix evaluation time         ...   0.168 sec (  0.003 min) = 74.5%
 Two index repulsion integral time       ...   0.005 sec (  0.000 min) =  2.3%
 Cholesky decomposition of V             ...   0.006 sec (  0.000 min) =  2.7%
 Three index repulsion integral time     ...   0.000 sec (  0.000 min) =  0.0%



           ************************************************************
           *        Program running with 12 parallel MPI-processes    *
           *              working on a common directory               *
           ************************************************************
-------------------------------------------------------------------------------
                                 ORCA SCF
-------------------------------------------------------------------------------

------------
SCF SETTINGS
------------
Hamiltonian:
 Density Functional     Method          .... DFT(GTOs)
 Exchange Functional    Exchange        .... B88
   X-Alpha parameter    XAlpha          ....  0.666667
   Becke's b parameter  XBeta           ....  0.004200
 Correlation Functional Correlation     .... LYP
 Gradients option       PostSCFGGA      .... off
   Density functional embedding theory  .... OFF
   NL short-range parameter             ....  4.000000
 RI-approximation to the Coulomb term is turned on
   Number of auxiliary basis functions  .... 142


General Settings:
 Integral files         IntName         .... NH3·OH
 Hartree-Fock type      HFTyp           .... UHF
 Total Charge           Charge          ....    0
 Multiplicity           Mult            ....    2
 Number of Electrons    NEL             ....   19
 Basis Dimension        Dim             ....   86
 Nuclear Repulsion      ENuc            ....     36.3003126705 Eh

Convergence Acceleration:
 DIIS                   CNVDIIS         .... on
   Start iteration      DIISMaxIt       ....    12
   Startup error        DIISStart       ....  0.200000
   # of expansion vecs  DIISMaxEq       ....     5
   Bias factor          DIISBfac        ....   1.050
   Max. coefficient     DIISMaxC        ....  10.000
 Newton-Raphson         CNVNR           .... off
 SOSCF                  CNVSOSCF        .... off
 Level Shifting         CNVShift        .... on
   Level shift para.    LevelShift      ....    0.2500
   Turn off err/grad.   ShiftErr        ....    0.0010
 Zerner damping         CNVZerner       .... off
 Static damping         CNVDamp         .... on
   Fraction old density DampFac         ....    0.7000
   Max. Damping (<1)    DampMax         ....    0.9800
   Min. Damping (>=0)   DampMin         ....    0.0000
   Turn off err/grad.   DampErr         ....    0.1000
 Fernandez-Rico         CNVRico         .... off

SCF Procedure:
 Maximum # iterations   MaxIter         ....   125
 SCF integral mode      SCFMode         .... Direct
   Integral package                     .... LIBINT
 Reset frequency        DirectResetFreq ....    20
 Integral Threshold     Thresh          ....  2.500e-11 Eh
 Primitive CutOff       TCut            ....  2.500e-12 Eh

Convergence Tolerance:
 Convergence Check Mode ConvCheckMode   .... Total+1el-Energy
 Convergence forced     ConvForced      .... 0
 Energy Change          TolE            ....  1.000e-08 Eh
 1-El. energy change                    ....  1.000e-05 Eh
 DIIS Error             TolErr          ....  5.000e-07


Diagonalization of the overlap matrix:
Smallest eigenvalue                        ... 5.150e-03
Time for diagonalization                   ...    0.002 sec
Threshold for overlap eigenvalues          ... 1.000e-08
Number of eigenvalues below threshold      ... 0
Time for construction of square roots      ...    0.005 sec
Total time needed                          ...    0.007 sec

-------------------
DFT GRID GENERATION
-------------------

General Integration Accuracy     IntAcc      ...  4.670
Radial Grid Type                 RadialGrid  ... Gauss-Chebyshev
Angular Grid (max. acc.)         AngularGrid ... Lebedev-302
Angular grid pruning method      GridPruning ... 3 (G Style)
Weight generation scheme         WeightScheme... Becke
Basis function cutoff            BFCut       ...    1.0000e-11
Integration weight cutoff        WCut        ...    1.0000e-14
Grids for H and He will be reduced by one unit

# of grid points (after initial pruning)     ...  26000 (   0.0 sec)
# of grid points (after weights+screening)   ...  25253 (   0.0 sec)
nearest neighbour list constructed           ...    0.0 sec
Grid point re-assignment to atoms done       ...    0.0 sec
Grid point division into batches done        ...    0.1 sec
Reduced shell lists constructed in    0.1 sec

Total number of grid points                  ...    25253
Total number of batches                      ...      398
Average number of points per batch           ...       63
Average number of grid points per atom       ...     4209
Average number of shells per batch           ...    29.31 (77.14%)
Average number of basis functions per batch  ...    66.00 (76.74%)
Average number of large shells per batch     ...    25.51 (87.04%)
Average number of large basis fcns per batch ...    55.69 (84.37%)
Maximum spatial batch extension              ...  13.57, 12.25, 13.61 au
Average spatial batch extension              ...   0.21,  0.20,  0.20 au

Time for grid setup =    0.293 sec

------------------------------
INITIAL GUESS: MODEL POTENTIAL
------------------------------
Loading Hartree-Fock densities                     ... done
Calculating cut-offs                               ... done
Setting up the integral package                    ... done
Initializing the effective Hamiltonian             ... done
Starting the Coulomb interaction                   ... done (   0.0 sec)
Reading the grid                                   ... done
Mapping shells                                     ... done
Starting the XC term evaluation                    ... done (   0.0 sec)
  promolecular density results
     # of electrons  =     18.998092145
     EX              =    -15.876163077
     EC              =     -0.626995282
     EX+EC           =    -16.503158359
Transforming the Hamiltonian                       ... done (   0.0 sec)
Diagonalizing the Hamiltonian                      ... done (   0.0 sec)
Back transforming the eigenvectors                 ... done (   0.0 sec)
Now organizing SCF variables                       ... done
                      ------------------
                      INITIAL GUESS DONE (   0.5 sec)
                      ------------------

--------------------
CPCM SOLVATION MODEL
--------------------
CPCM parameters:
  Epsilon                                         ...      78.3550
  Refrac                                          ...       1.0000
  Rsolv                                           ...       1.3000
  Surface type                                    ...    GEPOL SES
  Epsilon function type                           ...         CPCM
Solvent:                                     ... WATER
SMD-CDS solvent descriptors:
  Soln                                       ...    1.3328
  Soln25                                     ...    1.3323
  Sola                                       ...    0.0000
  Solb                                       ...    0.0000
  Solg                                       ...    0.0000
  Solc                                       ...    0.0000
  Solh                                       ...    0.0000
Radii:
 Radius for N  used is    3.5716 Bohr (=   1.8900 Ang.)
 Radius for H  used is    2.2677 Bohr (=   1.2000 Ang.)
 Radius for O  used is    2.8724 Bohr (=   1.5200 Ang.)
Calculating surface                               ...        done! (  0.0s)
GEPOL surface points                              ...          243
GEPOL Volume                                      ...     306.0416
GEPOL Surface-area                                ...     242.5566
Calculating surface distance matrix               ...        done! (  0.0s)
Performing Cholesky decomposition & store         ...        done! (  0.0s)
Overall time for CPCM initialization              ...                 0.0s
--------------
SCF ITERATIONS
--------------
ITER       Energy         Delta-E        Max-DP      RMS-DP      [F,P]     Damp
               ***  Starting incremental Fock matrix formation  ***
  0   -132.2291481080   0.000000000000 0.03714915  0.00132429  0.3239264 0.7000
  1   -132.2902637248  -0.061115616858 0.01902562  0.00077653  0.0973870 0.7000
                               ***Turning on DIIS***
  2   -132.3062404089  -0.015976684027 0.01522089  0.00085031  0.0277858 0.0000
  3   -132.3408271314  -0.034586722484 0.01226869  0.00053325  0.0558692 0.0000
  4   -132.3454761554  -0.004649024003 0.00342363  0.00016970  0.0217558 0.0000
  5   -132.3464566144  -0.000980459061 0.00090194  0.00005117  0.0030723 0.0000
  6   -132.3464912581  -0.000034643652 0.00099637  0.00003990  0.0003910 0.0000
  7   -132.3464971148  -0.000005856700 0.00017028  0.00000901  0.0007235 0.0000
  8   -132.3464983560  -0.000001241233 0.00024801  0.00000602  0.0003178 0.0000
  9   -132.3464984374  -0.000000081411 0.00006903  0.00000265  0.0003982 0.0000
 10   -132.3464986351  -0.000000197703 0.00001362  0.00000067  0.0000369 0.0000
 11   -132.3464986405  -0.000000005406 0.00000362  0.00000017  0.0000176 0.0000
 12   -132.3464986412  -0.000000000697 0.00000175  0.00000009  0.0000043 0.0000
                 **** Energy Check signals convergence ****

               *****************************************************
               *                     SUCCESS                       *
               *           SCF CONVERGED AFTER  13 CYCLES          *
               *****************************************************

Setting up the final grid:

General Integration Accuracy     IntAcc      ...  5.010
Radial Grid Type                 RadialGrid  ... Gauss-Chebyshev
Angular Grid (max. acc.)         AngularGrid ... Lebedev-434
Angular grid pruning method      GridPruning ... 3 (G Style)
Weight generation scheme         WeightScheme... Becke
Basis function cutoff            BFCut       ...    1.0000e-11
Integration weight cutoff        WCut        ...    1.0000e-14
Grids for H and He will be reduced by one unit

# of grid points (after initial pruning)     ...  48200 (   0.0 sec)
# of grid points (after weights+screening)   ...  46730 (   0.0 sec)
nearest neighbour list constructed           ...    0.0 sec
Grid point re-assignment to atoms done       ...    0.0 sec
Grid point division into batches done        ...    0.4 sec
Reduced shell lists constructed in    0.4 sec

Total number of grid points                  ...    46730
Total number of batches                      ...      733
Average number of points per batch           ...       63
Average number of grid points per atom       ...     7788
Average number of shells per batch           ...    29.19 (76.82%)
Average number of basis functions per batch  ...    65.54 (76.21%)
Average number of large shells per batch     ...    25.37 (86.90%)
Average number of large basis fcns per batch ...    55.27 (84.33%)
Maximum spatial batch extension              ...  14.48, 11.44, 12.63 au
Average spatial batch extension              ...   0.17,  0.17,  0.18 au

Final grid set up in    0.6 sec
Final integration                            ... done (   0.1 sec)
Change in XC energy                          ...    -0.000000039
Integrated number of electrons               ...    19.000006205
Previous integrated no of electrons          ...    19.000041201

SMD CDS free energy correction energy :                 2.36161     Kcal/mol
Total Energy after SMD CDS correction =              -132.342735213 Eh

----------------
TOTAL SCF ENERGY
----------------

Total Energy       :         -132.34273521 Eh           -3601.22891 eV

Components:
Nuclear Repulsion  :           36.30031267 Eh             987.78173 eV
Electronic Energy  :         -168.64304788 Eh           -4589.01063 eV
One Electron Energy:         -252.60342507 Eh           -6873.68865 eV
Two Electron Energy:           83.96037718 Eh            2284.67801 eV
CPCM Dielectric    :           -0.02251429 Eh              -0.61264 eV
SMD CDS (Gcds)     :            0.00376347 Eh               0.10241 eV

Virial components:
Potential Energy   :         -264.16853365 Eh           -7188.39125 eV
Kinetic Energy     :          131.82579844 Eh            3587.16234 eV
Virial Ratio       :            2.00392136


DFT components:
N(Alpha)           :       10.000002840022 electrons
N(Beta)            :        9.000003364811 electrons
N(Total)           :       19.000006204833 electrons
E(X)               :      -16.233067034017 Eh       
E(C)               :       -0.631968267938 Eh       
E(XC)              :      -16.865035301954 Eh       
DFET-embed. en.    :        0.000000000000 Eh       
CPCM Solvation Model Properties:
Surface-charge          :           -0.02852866
Charge-correction       :           -0.00003124 Eh              -0.00085 eV
Free-energy (cav+disp)  :            0.00283729 Eh               0.07721 eV
Corrected G(solv)       :         -132.33992916 Eh           -3601.15255 eV

---------------
SCF CONVERGENCE
---------------

  Last Energy change         ...    1.7678e-10  Tolerance :   1.0000e-08
  Last MAX-Density change    ...    2.5717e-07  Tolerance :   1.0000e-07
  Last RMS-Density change    ...    1.0428e-08  Tolerance :   5.0000e-09
  Last DIIS Error            ...    6.9793e-07  Tolerance :   5.0000e-07

             **** THE GBW FILE WAS UPDATED (NH3·OH.gbw) ****
             **** DENSITY FILE WAS UPDATED (NH3·OH.scfp) ****
             **** ENERGY FILE WAS UPDATED (NH3·OH.en.tmp) ****
----------------------
UHF SPIN CONTAMINATION
----------------------

Warning: in a DFT calculation there is little theoretical justification to 
         calculate <S**2> as in Hartree-Fock theory. We will do it anyways
         but you should keep in mind that the values have only limited relevance

Expectation value of <S**2>     :     0.753665
Ideal value S*(S+1) for S=0.5   :     0.750000
Deviation                       :     0.003665

             **** THE GBW FILE WAS UPDATED (NH3·OH.gbw) ****
             **** DENSITY FILE WAS UPDATED (NH3·OH.scfp) ****
----------------
ORBITAL ENERGIES
----------------
                 SPIN UP ORBITALS
  NO   OCC          E(Eh)            E(eV) 
   0   1.0000     -18.768658      -510.7211 
   1   1.0000     -14.036224      -381.9451 
   2   1.0000      -0.878036       -23.8926 
   3   1.0000      -0.777691       -21.1620 
   4   1.0000      -0.452461       -12.3121 
   5   1.0000      -0.426409       -11.6032 
   6   1.0000      -0.364102        -9.9077 
   7   1.0000      -0.292815        -7.9679 
   8   1.0000      -0.252276        -6.8648 
   9   1.0000      -0.240282        -6.5384 
  10   0.0000       0.009682         0.2635 
  11   0.0000       0.060512         1.6466 
  12   0.0000       0.092555         2.5185 
  13   0.0000       0.154205         4.1961 
  14   0.0000       0.254054         6.9132 
  15   0.0000       0.271220         7.3803 
  16   0.0000       0.315055         8.5731 
  17   0.0000       0.358295         9.7497 
  18   0.0000       0.371895        10.1198 
  19   0.0000       0.388118        10.5612 
  20   0.0000       0.408432        11.1140 
  21   0.0000       0.442961        12.0536 
  22   0.0000       0.461712        12.5638 
  23   0.0000       0.525192        14.2912 
  24   0.0000       0.554774        15.0962 
  25   0.0000       0.650966        17.7137 
  26   0.0000       0.844954        22.9924 
  27   0.0000       0.914412        24.8824 
  28   0.0000       1.084532        29.5116 
  29   0.0000       1.150867        31.3167 
  30   0.0000       1.170939        31.8629 
  31   0.0000       1.227917        33.4133 
  32   0.0000       1.232309        33.5328 
  33   0.0000       1.408735        38.3336 
  34   0.0000       1.542794        41.9816 
  35   0.0000       1.584913        43.1277 
  36   0.0000       1.642841        44.7040 
  37   0.0000       1.671278        45.4778 
  38   0.0000       1.773534        48.2603 
  39   0.0000       1.838134        50.0182 
  40   0.0000       1.887079        51.3500 
  41   0.0000       1.921630        52.2902 
  42   0.0000       1.997048        54.3425 
  43   0.0000       2.013153        54.7807 
  44   0.0000       2.042806        55.5876 
  45   0.0000       2.093802        56.9752 
  46   0.0000       2.190085        59.5952 
  47   0.0000       2.293258        62.4027 
  48   0.0000       2.339075        63.6495 
  49   0.0000       2.352492        64.0146 
  50   0.0000       2.365611        64.3716 
  51   0.0000       2.405185        65.4484 
  52   0.0000       2.492468        67.8235 
  53   0.0000       2.534708        68.9729 
  54   0.0000       2.706306        73.6423 
  55   0.0000       2.880772        78.3898 
  56   0.0000       3.002061        81.6902 
  57   0.0000       3.113121        84.7123 
  58   0.0000       3.335855        90.7732 
  59   0.0000       3.655843        99.4805 
  60   0.0000       3.945429       107.3606 
  61   0.0000       4.130614       112.3997 
  62   0.0000       4.134608       112.5084 
  63   0.0000       4.248616       115.6107 
  64   0.0000       4.434099       120.6580 
  65   0.0000       4.450571       121.1062 
  66   0.0000       4.465999       121.5260 
  67   0.0000       4.607176       125.3676 
  68   0.0000       4.704501       128.0160 
  69   0.0000       4.888535       133.0238 
  70   0.0000       5.006855       136.2435 
  71   0.0000       5.056934       137.6062 
  72   0.0000       5.160039       140.4118 
  73   0.0000       5.246046       142.7522 
  74   0.0000       5.281109       143.7063 
  75   0.0000       5.300803       144.2422 
  76   0.0000       5.412658       147.2859 
  77   0.0000       5.818363       158.3257 
  78   0.0000       6.030099       164.0873 
  79   0.0000       6.192836       168.5156 
  80   0.0000       6.241647       169.8439 
  81   0.0000       6.301727       171.4787 
  82   0.0000       6.618150       180.0890 
  83   0.0000       6.876214       187.1113 
  84   0.0000      31.149938       847.6329 
  85   0.0000      42.903846      1167.4730 

                 SPIN DOWN ORBITALS
  NO   OCC          E(Eh)            E(eV) 
   0   1.0000     -18.759342      -510.4676 
   1   1.0000     -14.024242      -381.6190 
   2   1.0000      -0.857471       -23.3330 
   3   1.0000      -0.750824       -20.4310 
   4   1.0000      -0.438245       -11.9253 
   5   1.0000      -0.418031       -11.3752 
   6   1.0000      -0.352170        -9.5830 
   7   1.0000      -0.260344        -7.0843 
   8   1.0000      -0.242212        -6.5909 
   9   0.0000      -0.180049        -4.8994 
  10   0.0000       0.014039         0.3820 
  11   0.0000       0.064438         1.7534 
  12   0.0000       0.095060         2.5867 
  13   0.0000       0.156947         4.2707 
  14   0.0000       0.255053         6.9404 
  15   0.0000       0.277233         7.5439 
  16   0.0000       0.336475         9.1560 
  17   0.0000       0.364617         9.9217 
  18   0.0000       0.378064        10.2877 
  19   0.0000       0.406053        11.0493 
  20   0.0000       0.413510        11.2522 
  21   0.0000       0.451248        12.2791 
  22   0.0000       0.466838        12.7033 
  23   0.0000       0.534018        14.5314 
  24   0.0000       0.559812        15.2333 
  25   0.0000       0.655878        17.8473 
  26   0.0000       0.865302        23.5461 
  27   0.0000       0.923234        25.1225 
  28   0.0000       1.108614        30.1669 
  29   0.0000       1.158715        31.5302 
  30   0.0000       1.176049        32.0019 
  31   0.0000       1.235647        33.6237 
  32   0.0000       1.240499        33.7557 
  33   0.0000       1.427896        38.8550 
  34   0.0000       1.545027        42.0423 
  35   0.0000       1.584732        43.1228 
  36   0.0000       1.644728        44.7553 
  37   0.0000       1.686573        45.8940 
  38   0.0000       1.791266        48.7428 
  39   0.0000       1.856188        50.5094 
  40   0.0000       1.907797        51.9138 
  41   0.0000       1.932100        52.5751 
  42   0.0000       2.005121        54.5621 
  43   0.0000       2.018898        54.9370 
  44   0.0000       2.049149        55.7602 
  45   0.0000       2.103544        57.2403 
  46   0.0000       2.205006        60.0013 
  47   0.0000       2.305011        62.7225 
  48   0.0000       2.349334        63.9286 
  49   0.0000       2.359704        64.2108 
  50   0.0000       2.373319        64.5813 
  51   0.0000       2.420169        65.8561 
  52   0.0000       2.497685        67.9655 
  53   0.0000       2.543033        69.1994 
  54   0.0000       2.723197        74.1020 
  55   0.0000       2.891747        78.6884 
  56   0.0000       3.021931        82.2309 
  57   0.0000       3.124221        85.0144 
  58   0.0000       3.358239        91.3823 
  59   0.0000       3.664567        99.7179 
  60   0.0000       3.982449       108.3679 
  61   0.0000       4.166585       113.3785 
  62   0.0000       4.182685       113.8166 
  63   0.0000       4.263717       116.0216 
  64   0.0000       4.455303       121.2350 
  65   0.0000       4.503875       122.5567 
  66   0.0000       4.523773       123.0981 
  67   0.0000       4.658697       126.7696 
  68   0.0000       4.713204       128.2528 
  69   0.0000       4.927485       134.0837 
  70   0.0000       5.029661       136.8640 
  71   0.0000       5.080237       138.2403 
  72   0.0000       5.182866       141.0330 
  73   0.0000       5.264323       143.2495 
  74   0.0000       5.300956       144.2463 
  75   0.0000       5.319985       144.7642 
  76   0.0000       5.429700       147.7497 
  77   0.0000       5.837983       158.8596 
  78   0.0000       6.056343       164.8015 
  79   0.0000       6.213439       169.0763 
  80   0.0000       6.276143       170.7825 
  81   0.0000       6.333850       172.3528 
  82   0.0000       6.644645       180.8100 
  83   0.0000       6.897558       187.6921 
  84   0.0000      31.166060       848.0716 
  85   0.0000      42.915607      1167.7930 
------------------
MOLECULAR ORBITALS
------------------
                      0         1         2         3         4         5   
                 -18.76866 -14.03622  -0.87804  -0.77769  -0.45246  -0.42641
                   1.00000   1.00000   1.00000   1.00000   1.00000   1.00000
                  --------  --------  --------  --------  --------  --------
  0N   1s         0.000005  0.448460  0.020932  0.096607  0.003330  0.000150
  0N   2s        -0.000030  0.625939  0.046593  0.216024  0.007619  0.000331
  0N   3s         0.000074  0.038761 -0.069009 -0.337252 -0.018573  0.000378
  0N   4s         0.000012 -0.028008 -0.089157 -0.402950  0.001076 -0.002834
  0N   5s         0.000401  0.018634 -0.021662 -0.130228 -0.010979 -0.004772
  0N   1pz        0.000019 -0.000704  0.004334  0.038828  0.116876  0.286383
  0N   1px        0.000075  0.000224 -0.017062  0.003954  0.211224 -0.084772
  0N   1py       -0.000018 -0.001134  0.010314  0.060643  0.048963 -0.209183
  0N   2pz       -0.000002  0.000414  0.002458  0.029599  0.088779  0.213901
  0N   2px        0.000114 -0.001468 -0.019379 -0.002853  0.174378 -0.066565
  0N   2py        0.000154  0.000854  0.007643  0.046587  0.035516 -0.156075
  0N   3pz        0.000747 -0.001073  0.001627  0.004940  0.046592  0.112027
  0N   3px        0.000692  0.000992 -0.003476  0.000300  0.084124 -0.036355
  0N   3py        0.000931 -0.001794  0.001209  0.007173  0.020365 -0.083054
  0N   1dz2      -0.000029 -0.000140  0.000674 -0.000223 -0.005208 -0.009948
  0N   1dxz      -0.000025 -0.000050 -0.000243  0.000084  0.000185 -0.002973
  0N   1dyz      -0.000041 -0.000010  0.000270  0.001238 -0.000280 -0.005094
  0N   1dx2y2     0.000064  0.000209 -0.001302 -0.000630  0.005242 -0.006370
  0N   1dxy      -0.000073 -0.000180  0.000171  0.000165 -0.001679  0.003986
  0N   2dz2      -0.000067  0.000356  0.002865  0.001016 -0.007925 -0.011137
  0N   2dxz       0.000253 -0.000195 -0.001077 -0.000429  0.000446  0.002565
  0N   2dyz       0.000202 -0.000053 -0.000279  0.000747 -0.003990 -0.006081
  0N   2dx2y2     0.000108 -0.000646 -0.005696 -0.003144  0.011464 -0.009814
  0N   2dxy       0.000356  0.000029  0.000599  0.000309 -0.005631  0.001892
  0N   1f0       -0.000029  0.000036  0.000997  0.003268 -0.000155 -0.000577
  0N   1f+1      -0.000039  0.000122  0.000961  0.001186 -0.001558  0.000431
  0N   1f-1      -0.000029  0.000005 -0.000017 -0.000317 -0.000246 -0.000172
  0N   1f+2       0.000102 -0.000073 -0.000344  0.000857  0.001318  0.000474
  0N   1f-2       0.000062  0.000001 -0.000290 -0.000904 -0.000733 -0.000048
  0N   1f+3      -0.000029  0.000159  0.001452  0.002015 -0.002438  0.000688
  0N   1f-3      -0.000124  0.000004  0.000329  0.000764  0.000011  0.000615
  1H   1s         0.000073  0.000218 -0.057055 -0.044413  0.147814 -0.026665
  1H   2s         0.000201  0.002452 -0.041395 -0.035827  0.169936 -0.031200
  1H   3s        -0.004328 -0.003827 -0.006176 -0.000764  0.058229 -0.006771
  1H   1pz       -0.000065 -0.000267  0.002216  0.002462  0.001841  0.009509
  1H   1px        0.001162 -0.000414 -0.008275  0.013172 -0.004641  0.000703
  1H   1py       -0.000497 -0.000345  0.004026  0.001071 -0.004473 -0.005303
  2H   1s        -0.000054  0.000310 -0.016347 -0.092178 -0.036537  0.158320
  2H   2s         0.000603 -0.000233 -0.013266 -0.078355 -0.040906  0.193333
  2H   3s         0.000405 -0.003088 -0.001415 -0.006570 -0.010021  0.065563
  2H   1pz       -0.000023  0.000148  0.001152  0.007448  0.006937 -0.000899
  2H   1px        0.000130 -0.000152 -0.001644 -0.005754  0.005384  0.007071
  2H   1py        0.000048 -0.000272 -0.002558 -0.013832 -0.004594  0.020024
  3H   1s        -0.000045  0.000321 -0.016219 -0.091932 -0.075704 -0.135642
  3H   2s         0.000396 -0.000132 -0.012481 -0.077552 -0.088862 -0.166418
  3H   3s         0.000851 -0.003285 -0.000279 -0.006991 -0.024746 -0.057545
  3H   1pz        0.000042 -0.000294 -0.002853 -0.016248 -0.010906 -0.016313
  3H   1px        0.000132 -0.000104 -0.001033 -0.002633  0.004900 -0.007153
  3H   1py       -0.000023  0.000034  0.000137  0.001414  0.001591 -0.008084
  4O   1s         0.435304  0.000003  0.097494 -0.026112  0.002223 -0.004218
  4O   2s         0.638730 -0.000034  0.227518 -0.061198  0.005493 -0.010023
  4O   3s         0.037327  0.000249 -0.336705  0.093565 -0.013821  0.016668
  4O   4s        -0.025282 -0.000204 -0.436109  0.118278 -0.002318  0.019246
  4O   5s         0.012197 -0.000642 -0.187024  0.054988  0.006448  0.018651
  4O   1pz       -0.001274  0.000034  0.071770 -0.024640  0.158463  0.013856
  4O   1px       -0.000433 -0.000134  0.015442  0.020141 -0.217639  0.033254
  4O   1py        0.000305  0.000047 -0.012073 -0.001165  0.049779 -0.021445
  4O   2pz        0.002429 -0.000186  0.058348 -0.020098  0.121049  0.009160
  4O   2px        0.000884  0.000530  0.018941  0.017281 -0.179561  0.027337
  4O   2py       -0.000640 -0.000196 -0.012405 -0.001211  0.042209 -0.016506
  4O   3pz       -0.000974  0.000761  0.009313 -0.002833  0.061585  0.012355
  4O   3px       -0.001417  0.000517  0.003031  0.007341 -0.093946  0.016689
  4O   3py        0.000712  0.000158 -0.001977 -0.000253  0.022680 -0.014634
  4O   1dz2       0.000021 -0.000020 -0.002409  0.001212 -0.005325  0.000187
  4O   1dxz       0.000005  0.000013  0.000481 -0.000358  0.002276 -0.000420
  4O   1dyz      -0.000002 -0.000007  0.000189 -0.000019 -0.000029  0.000213
  4O   1dx2y2     0.000278  0.000096 -0.003071  0.000293  0.001733 -0.000092
  4O   1dxy      -0.000028 -0.000028  0.000384  0.000183 -0.001514  0.000321
  4O   2dz2      -0.000630  0.000139 -0.005128  0.004467 -0.015768  0.000449
  4O   2dxz       0.000370 -0.000068  0.000911 -0.001499  0.005996 -0.002741
  4O   2dyz       0.000042  0.000027  0.000913 -0.000200 -0.000125  0.000977
  4O   2dx2y2    -0.000413 -0.000406 -0.008563 -0.001483  0.008734 -0.001001
  4O   2dxy       0.000243  0.000120  0.003327  0.001490 -0.008409  0.002869
  4O   1f0        0.000250 -0.000005  0.002462 -0.000762  0.001329 -0.000102
  4O   1f+1      -0.000257 -0.000012 -0.001898  0.000031  0.000238 -0.000048
  4O   1f-1       0.000023 -0.000003  0.000005  0.000199 -0.000394 -0.000004
  4O   1f+2       0.000019  0.000006  0.000679 -0.000198  0.001333  0.000172
  4O   1f-2       0.000011 -0.000010 -0.000032  0.000043 -0.000196 -0.000015
  4O   1f+3      -0.000069 -0.000033 -0.000497 -0.000471  0.002374 -0.000365
  4O   1f-3       0.000130  0.000005  0.001057  0.000459 -0.002237  0.000646
  5H   1s         0.000945 -0.000013 -0.095415  0.030595 -0.095202  0.000003
  5H   2s         0.001474  0.000290 -0.066000  0.023525 -0.107218 -0.000782
  5H   3s        -0.001992  0.000610 -0.008010  0.003308 -0.039240 -0.001253
  5H   1pz        0.001313 -0.000067 -0.016134  0.004851 -0.011068  0.000487
  5H   1px       -0.000260 -0.000015  0.004792 -0.000489 -0.004357  0.002551
  5H   1py       -0.000052  0.000009  0.000131 -0.000240  0.002546 -0.001123
                      6         7         8         9        10        11   
                  -0.36410  -0.29281  -0.25228  -0.24028   0.00968   0.06051
                   1.00000   1.00000   1.00000   1.00000   0.00000   0.00000
                  --------  --------  --------  --------  --------  --------
  0N   1s        -0.006418  0.032588 -0.010340  0.000090  0.037873  0.021384
  0N   2s        -0.014650  0.073943 -0.023691  0.000489  0.089891  0.050961
  0N   3s         0.024534 -0.120160  0.042772 -0.005442 -0.207796 -0.125231
  0N   4s         0.029027 -0.185661  0.044917  0.001042 -0.026812  0.013102
  0N   5s         0.068860 -0.120740  0.118905 -0.007395 -1.400218 -0.934012
  0N   1pz        0.092883 -0.183949  0.026202  0.059722  0.066349  0.000853
  0N   1px        0.144728  0.047111  0.131441 -0.307511  0.014457  0.107680
  0N   1py        0.027427 -0.294137  0.043789  0.162663  0.076354  0.101416
  0N   2pz        0.066487 -0.147267  0.020560  0.048828  0.030985 -0.003708
  0N   2px        0.115805  0.042256  0.099710 -0.256082  0.007146  0.090647
  0N   2py        0.020321 -0.235371  0.028528  0.135033  0.028148  0.038077
  0N   3pz        0.036860 -0.118659  0.027146  0.045353  0.202879  0.011310
  0N   3px        0.089873  0.069704  0.111896 -0.217107 -0.037678  0.131301
  0N   3py        0.025861 -0.193494  0.011848  0.120340  0.267844  0.338898
  0N   1dz2      -0.003738  0.001937  0.000079  0.000188  0.002464  0.001117
  0N   1dxz      -0.001058  0.000182 -0.000655  0.001214  0.001141 -0.000043
  0N   1dyz      -0.000739  0.001512  0.000379 -0.001303 -0.002475 -0.002519
  0N   1dx2y2     0.001859 -0.004489  0.001034  0.001517 -0.000709 -0.001700
  0N   1dxy      -0.001259  0.001365 -0.002320  0.001342  0.003167  0.001693
  0N   2dz2      -0.000068 -0.002098  0.000038 -0.000832  0.012163  0.008454
  0N   2dxz      -0.004521 -0.000888 -0.004972  0.007855 -0.001033 -0.003284
  0N   2dyz      -0.001377  0.013620 -0.004249 -0.004892 -0.008754 -0.013911
  0N   2dx2y2     0.005143 -0.007086 -0.005192  0.011067 -0.012207 -0.017976
  0N   2dxy      -0.004284 -0.002927 -0.008724  0.008198  0.008031  0.010396
  0N   1f0       -0.000028 -0.000013  0.000324 -0.000151 -0.002059 -0.002403
  0N   1f+1      -0.000156 -0.000438  0.000640 -0.000243 -0.000022  0.000327
  0N   1f-1      -0.000127  0.000434  0.000204 -0.000204  0.000074  0.000867
  0N   1f+2       0.000298 -0.001001 -0.000887  0.001129 -0.000798 -0.001755
  0N   1f-2      -0.000395 -0.000187 -0.000226  0.001039  0.000579  0.000864
  0N   1f+3      -0.000480 -0.000131  0.000705  0.000416 -0.000513 -0.001424
  0N   1f-3       0.000344  0.001547  0.000463 -0.001017 -0.000779 -0.001266
  1H   1s         0.050496  0.004327 -0.008982 -0.016135  0.021566  0.002355
  1H   2s         0.059575 -0.007686 -0.012948 -0.024240  0.058855  0.012849
  1H   3s        -0.044922 -0.077910 -0.083345 -0.001514  0.495705  0.014871
  1H   1pz       -0.010657 -0.006317 -0.000992  0.004097  0.002998 -0.002644
  1H   1px       -0.016354  0.018354 -0.028061  0.026940  0.002445 -0.010868
  1H   1py        0.001938 -0.015378 -0.006506 -0.003302  0.003504  0.003894
  2H   1s        -0.011967  0.058113 -0.027470 -0.008334  0.032312  0.036427
  2H   2s        -0.008047  0.076450 -0.058359 -0.011209  0.060900  0.036078
  2H   3s        -0.007201  0.043764 -0.008038  0.015037  0.816310  1.102847
  2H   1pz        0.003848 -0.012090  0.003991  0.003918  0.012735  0.014671
  2H   1px        0.004784  0.006192  0.003690 -0.012334 -0.008422 -0.010338
  2H   1py        0.000340 -0.001793 -0.004860  0.004755 -0.026670 -0.034910
  3H   1s        -0.052337  0.060226 -0.013966 -0.004518  0.032646  0.022653
  3H   2s        -0.077017  0.075107 -0.020673 -0.011581  0.071348  0.025786
  3H   3s        -0.018750  0.046324 -0.015890  0.023112  0.889187  0.464055
  3H   1pz       -0.008225  0.003927 -0.000886  0.000094 -0.032819 -0.018241
  3H   1px        0.004111  0.003653  0.004640 -0.012515 -0.001569 -0.003791
  3H   1py        0.000760 -0.012288  0.002089  0.007092  0.000209  0.002817
  4O   1s         0.035003  0.002290 -0.001095 -0.004647  0.022435 -0.021298
  4O   2s         0.082984  0.005252 -0.002654 -0.011234  0.054979 -0.052825
  4O   3s        -0.133024 -0.006303  0.005242  0.020228 -0.111203  0.116534
  4O   4s        -0.171383 -0.016210 -0.006041  0.028992 -0.056576  0.011421
  4O   5s        -0.191997  0.016355  0.025158  0.037405 -0.570560  0.684386
  4O   1pz       -0.361786 -0.054836  0.013244 -0.081953  0.098084 -0.164436
  4O   1px       -0.029166 -0.231534  0.058813 -0.337815  0.007158  0.086370
  4O   1py        0.032802 -0.059541 -0.453402 -0.101189 -0.017845  0.006649
  4O   2pz       -0.273349 -0.043190  0.007238 -0.061743  0.053619 -0.093573
  4O   2px       -0.023092 -0.181665  0.046781 -0.267250  0.008327  0.073047
  4O   2py        0.023501 -0.047004 -0.352739 -0.079017 -0.008034  0.007042
  4O   3pz       -0.186183 -0.037393  0.021256 -0.064822  0.209215 -0.374695
  4O   3px       -0.039975 -0.160595  0.029361 -0.243031  0.042997  0.074653
  4O   3py        0.027481 -0.039583 -0.333312 -0.073448 -0.058774  0.006419
  4O   1dz2       0.006538 -0.000048  0.000428  0.000606  0.000472 -0.001121
  4O   1dxz      -0.001139  0.001830 -0.000278  0.002187 -0.001168  0.000589
  4O   1dyz      -0.000753  0.000312  0.003024  0.000686  0.000112 -0.000071
  4O   1dx2y2    -0.000316  0.000710  0.000126  0.000234 -0.000408 -0.000052
  4O   1dxy      -0.000173 -0.000216  0.001064 -0.000473 -0.000746  0.000270
  4O   2dz2       0.012425  0.001725 -0.000053  0.004074  0.007429 -0.011971
  4O   2dxz       0.004686  0.009690 -0.001996  0.011012 -0.005465  0.006588
  4O   2dyz      -0.004407  0.001668  0.015646  0.002672  0.000820 -0.001399
  4O   2dx2y2     0.001408  0.001976  0.005893 -0.000062 -0.003366  0.003925
  4O   2dxy      -0.003590  0.001203  0.004338 -0.000583  0.001947 -0.001597
  4O   1f0       -0.001854 -0.000234  0.000068 -0.000756 -0.000277  0.000619
  4O   1f+1       0.001082 -0.000784  0.000349 -0.001038 -0.000035  0.000246
  4O   1f-1       0.000119 -0.000209 -0.002538 -0.000460 -0.000003 -0.000231
  4O   1f+2      -0.002277 -0.000266 -0.000030  0.000046  0.000518 -0.000880
  4O   1f-2       0.000488  0.000166  0.000414  0.000358 -0.000050  0.000305
  4O   1f+3       0.000535  0.001639  0.000785  0.002197 -0.000310 -0.000233
  4O   1f-3      -0.000964  0.000778  0.003019  0.000787  0.000447 -0.000553
  5H   1s         0.135527 -0.002837 -0.002621 -0.000517  0.040009 -0.060976
  5H   2s         0.174180 -0.002245 -0.002114  0.002624  0.067182 -0.112996
  5H   3s         0.071957  0.001900  0.023185 -0.033655  0.697063 -1.282147
  5H   1pz        0.011204 -0.002623 -0.000544 -0.001300 -0.027987  0.041815
  5H   1px       -0.007486 -0.010812  0.002385 -0.014302  0.004741 -0.007351
  5H   1py        0.000648 -0.002902 -0.021092 -0.005081  0.001398 -0.000911
                     12        13        14        15        16        17   
                   0.09255   0.15421   0.25405   0.27122   0.31506   0.35829
                   0.00000   0.00000   0.00000   0.00000   0.00000   0.00000
                  --------  --------  --------  --------  --------  --------
  0N   1s         0.002474  0.017166 -0.006932  0.009022 -0.007344  0.025662
  0N   2s         0.005722  0.040167 -0.015183  0.020154 -0.010922  0.053349
  0N   3s        -0.012593 -0.070451  0.016634 -0.058778 -0.080345  0.049912
  0N   4s        -0.012201 -0.066307  0.109967  0.021217  0.528487 -0.901653
  0N   5s        -0.032903 -1.190773 -0.098831  0.369500 -0.830757  0.669634
  0N   1pz        0.252848 -0.073305  0.018483 -0.046211  0.103323  0.028147
  0N   1px        0.005918 -0.114546  0.008282  0.006999 -0.217645 -0.005943
  0N   1py       -0.128575 -0.146735  0.037995 -0.079339  0.169369  0.001616
  0N   2pz        0.121281 -0.046958  0.197929 -0.081235  0.221021  0.136273
  0N   2px        0.010986 -0.012952 -0.048749  0.063832 -0.414658 -0.034200
  0N   2py       -0.064398 -0.116386 -0.026666 -0.241670  0.397251  0.026372
  0N   3pz        0.756460 -0.111004  1.083142 -0.093090 -0.713052  0.591296
  0N   3px        0.022106 -0.943723  0.154449 -1.291447  0.292273  0.474055
  0N   3py       -0.374798 -0.208710 -0.710851 -0.470249 -0.866873  0.314982
  0N   1dz2       0.005282  0.000353  0.027288 -0.011180 -0.006511  0.014460
  0N   1dxz       0.002006  0.004434  0.007249  0.008433  0.002866  0.002781
  0N   1dyz       0.001473  0.002146  0.009848  0.009329 -0.002683 -0.001960
  0N   1dx2y2     0.001459  0.002683  0.007376  0.027486  0.008840 -0.004441
  0N   1dxy      -0.002401  0.004242 -0.008660 -0.004365  0.003515  0.005864
  0N   2dz2       0.046887 -0.010963 -0.113749  0.002080  0.013922 -0.055073
  0N   2dxz       0.023105  0.015281 -0.023132 -0.000709  0.026174 -0.034780
  0N   2dyz       0.014053  0.021821 -0.058572 -0.021075  0.011161 -0.020051
  0N   2dx2y2     0.015313  0.002604 -0.058323 -0.059593  0.001961  0.014876
  0N   2dxy      -0.019457  0.005661  0.022500  0.049195  0.023136  0.015779
  0N   1f0       -0.004547  0.004202  0.008619 -0.008030 -0.004856  0.015687
  0N   1f+1      -0.002526  0.000278  0.007829  0.003388 -0.001034  0.004017
  0N   1f-1      -0.002876 -0.000708  0.002817  0.003167 -0.000117 -0.000361
  0N   1f+2       0.002492  0.002397 -0.005630 -0.011237  0.000061  0.002359
  0N   1f-2      -0.002291 -0.001044  0.006838  0.004668 -0.000038 -0.001432
  0N   1f+3       0.003484  0.001304 -0.010308 -0.001574 -0.000306  0.000936
  0N   1f-3       0.002518  0.001149 -0.004884 -0.001084 -0.000702 -0.000500
  1H   1s        -0.004536  0.060687 -0.034439  0.130773  0.082007  0.032199
  1H   2s        -0.005866  0.078533 -0.205462  1.222857  0.392499  0.433761
  1H   3s        -0.350197  3.652607 -0.112034 -0.079499  0.829880 -1.035757
  1H   1pz        0.005727  0.005366  0.021268 -0.008288 -0.002593  0.001144
  1H   1px       -0.006178  0.016877  0.000295 -0.033395  0.001516  0.022563
  1H   1py       -0.003974  0.003744 -0.011290 -0.015271  0.017230 -0.006474
  2H   1s        -0.043103 -0.008790 -0.092150 -0.072277 -0.002733  0.054389
  2H   2s        -0.024744  0.102590 -1.029909 -0.895786 -0.077560  0.476697
  2H   3s        -1.428626 -0.792850  0.210946  0.007581 -0.042135 -0.074468
  2H   1pz       -0.008970 -0.011417  0.044715  0.013616 -0.003183  0.009321
  2H   1px        0.015784  0.007683 -0.019699 -0.044147 -0.010190 -0.005331
  2H   1py        0.041178  0.020779 -0.071476 -0.059834 -0.007555  0.024491
  3H   1s         0.056246  0.013913  0.104836 -0.024331 -0.012371  0.097905
  3H   2s         0.023280  0.186595  1.143108 -0.337592 -0.265727  1.123833
  3H   3s         1.828688 -0.397557 -0.103150 -0.115180  0.023571 -0.440302
  3H   1pz       -0.056926  0.020384  0.090534 -0.020380 -0.027388  0.072656
  3H   1px       -0.011203 -0.001738  0.011626 -0.027918 -0.015844  0.018353
  3H   1py       -0.006964 -0.003919 -0.006842 -0.014106 -0.002772  0.007293
  4O   1s        -0.009428  0.016584  0.005936  0.015123  0.016123 -0.010243
  4O   2s        -0.023008  0.040979  0.013080  0.034483  0.037147 -0.022347
  4O   3s         0.045565 -0.085470 -0.002303 -0.034455 -0.042745 -0.012230
  4O   4s         0.029832  0.002455 -0.102623 -0.229762 -0.236028  0.296148
  4O   5s         0.258218 -0.845642 -0.129082  0.167028  0.116179  0.166844
  4O   1pz       -0.023555 -0.126257 -0.047334 -0.025953 -0.108412 -0.116788
  4O   1px        0.017327  0.077325 -0.029428  0.072525  0.080689 -0.092384
  4O   1py       -0.002835 -0.111214  0.093930 -0.026589  0.011488 -0.051908
  4O   2pz       -0.003417 -0.085744 -0.048900 -0.052022 -0.185374 -0.269264
  4O   2px        0.024484  0.000023 -0.047178  0.065180  0.020650 -0.187996
  4O   2py       -0.010128 -0.090881  0.134070 -0.022390  0.052845 -0.092266
  4O   3pz       -0.073967 -0.166107  0.367074 -0.110933 -0.036686 -0.372610
  4O   3px       -0.051962  0.598617 -0.052347  0.254223  0.477799  0.659269
  4O   3py        0.035821 -0.228192 -0.116012 -0.113672 -0.191488  0.138863
  4O   1dz2       0.000065  0.000290  0.006600 -0.007099 -0.006229 -0.017002
  4O   1dxz       0.000106 -0.001489 -0.002638 -0.000406  0.002803  0.007108
  4O   1dyz       0.000092  0.000789 -0.001480  0.000386 -0.000202  0.001502
  4O   1dx2y2     0.000039  0.000760 -0.000320  0.004630  0.003479  0.005118
  4O   1dxy       0.000432 -0.002920  0.001212 -0.005271 -0.002453 -0.003448
  4O   2dz2      -0.004567 -0.006676 -0.017669  0.009804 -0.001787  0.044681
  4O   2dxz       0.003075 -0.000580 -0.010810 -0.013705  0.002783 -0.031400
  4O   2dyz       0.001263  0.005783  0.005314  0.003975  0.001192 -0.003068
  4O   2dx2y2     0.004431 -0.013734  0.001222  0.009046 -0.003576 -0.002087
  4O   2dxy      -0.001973 -0.002003  0.014463 -0.000689  0.000375 -0.004885
  4O   1f0        0.000339  0.001298  0.001394 -0.001416  0.000225 -0.007233
  4O   1f+1      -0.000046 -0.001047 -0.001953  0.001318  0.001279  0.003395
  4O   1f-1      -0.000066 -0.000655  0.000366 -0.000160 -0.000170  0.000577
  4O   1f+2      -0.000117 -0.000426  0.001022 -0.000666 -0.001444 -0.001333
  4O   1f-2      -0.000117  0.000400 -0.000677  0.000049  0.000225  0.000349
  4O   1f+3       0.000228 -0.000945  0.000501 -0.000378 -0.001117 -0.000888
  4O   1f-3      -0.000265  0.001363  0.000009  0.000082 -0.000055  0.001033
  5H   1s        -0.017806 -0.004149  0.041561 -0.010433 -0.057699 -0.108085
  5H   2s        -0.010657  0.097065  0.423372 -0.198335 -0.359623 -1.234041
  5H   3s        -0.312649 -0.958323  0.006743  0.133046 -0.263090  0.834360
  5H   1pz        0.010802  0.023139  0.031992 -0.013804 -0.007039 -0.067753
  5H   1px       -0.004878 -0.005642  0.003620  0.019380 -0.014954  0.029436
  5H   1py       -0.001606 -0.002079  0.000549 -0.004684  0.000589 -0.003438
                     18        19        20        21        22        23   
                   0.37189   0.38812   0.40843   0.44296   0.46171   0.52519
                   0.00000   0.00000   0.00000   0.00000   0.00000   0.00000
                  --------  --------  --------  --------  --------  --------
  0N   1s        -0.021610  0.030137 -0.032484 -0.027662  0.007769  0.003843
  0N   2s        -0.048126  0.064754 -0.066322 -0.055089  0.015626  0.003598
  0N   3s         0.014589 -0.015030 -0.062323 -0.075210  0.016430  0.069649
  0N   4s         0.476021 -1.003824  1.344387  1.498996 -0.427267 -0.700758
  0N   5s        -0.008117  2.039079 -2.215584 -3.519792  1.154635  2.348253
  0N   1pz       -0.018754 -0.017110  0.028417 -0.199241 -0.266562 -0.075211
  0N   1px        0.033130 -0.215138  0.006519 -0.176621  0.055190 -0.095422
  0N   1py       -0.102429 -0.034265 -0.032425 -0.122310  0.218939 -0.023398
  0N   2pz       -0.090052  0.036778  0.098838 -0.485127 -0.679835 -0.237245
  0N   2px        0.053260 -0.271522  0.002036 -0.403161  0.155210 -0.306290
  0N   2py       -0.311448 -0.083487 -0.133568 -0.274179  0.547628 -0.114594
  0N   3pz       -0.018892  0.310857  0.182964  1.207631  1.413566  0.511603
  0N   3px       -0.111705  0.655196 -0.261059  1.041241 -0.365342  1.242337
  0N   3py        0.127643 -0.044056 -0.190563  1.105068 -1.374766 -0.247374
  0N   1dz2      -0.001287  0.005886  0.005130 -0.000556  0.000428  0.002147
  0N   1dxz      -0.004781  0.001641  0.001545  0.002544 -0.003277 -0.001576
  0N   1dyz       0.005106  0.003938  0.004183 -0.000052  0.001423  0.005245
  0N   1dx2y2    -0.002065  0.000404  0.006390 -0.001298  0.001317 -0.005111
  0N   1dxy      -0.007024 -0.003201 -0.006821  0.006905 -0.001305 -0.002529
  0N   2dz2      -0.006735 -0.080209 -0.027680 -0.008003 -0.018467 -0.020567
  0N   2dxz      -0.042196 -0.019371 -0.048655  0.035614 -0.013062 -0.065432
  0N   2dyz       0.007054  0.012062  0.003749 -0.013496  0.004000  0.028283
  0N   2dx2y2    -0.036394  0.076306 -0.023836  0.040087 -0.008123 -0.023603
  0N   2dxy      -0.052608  0.008041  0.069414  0.005737  0.007783 -0.033087
  0N   1f0       -0.007628  0.008311 -0.002948 -0.004685 -0.000407 -0.003012
  0N   1f+1      -0.003244 -0.001230  0.000928 -0.002030 -0.001525 -0.002130
  0N   1f-1       0.001813  0.000253  0.001973 -0.000091 -0.000013  0.000998
  0N   1f+2      -0.002854  0.001950 -0.006964  0.000704  0.000979 -0.002623
  0N   1f-2       0.004277  0.001541  0.005664 -0.000102 -0.000905  0.002991
  0N   1f+3      -0.004293 -0.004944 -0.006896 -0.000840  0.001316 -0.003769
  0N   1f-3      -0.000939 -0.000527 -0.006237 -0.000076  0.000044 -0.001866
  1H   1s        -0.094508  0.119651 -0.039913  0.078577 -0.005378  0.001642
  1H   2s        -0.695376 -0.230179 -0.292441  0.634040 -0.212865 -0.318341
  1H   3s         0.644766 -1.050824  0.829815 -1.218969  0.047182 -1.488921
  1H   1pz       -0.017699  0.025040  0.003881  0.004261 -0.011299 -0.009528
  1H   1px        0.016339  0.017513 -0.006521  0.022712 -0.003480 -0.001528
  1H   1py       -0.012656  0.030758 -0.007736  0.005477  0.006715 -0.018038
  2H   1s        -0.079569 -0.026617 -0.084417 -0.025401  0.093208 -0.023197
  2H   2s        -0.733732 -0.299675 -0.786550  0.278528  0.390023 -0.620858
  2H   3s         0.331180 -0.101541  0.947317  1.220105 -2.283142 -0.024619
  2H   1pz        0.009699  0.004783  0.023055 -0.007362 -0.010442  0.000832
  2H   1px        0.007355  0.003509 -0.031326 -0.005085  0.001640 -0.005637
  2H   1py       -0.032500  0.000063 -0.051944  0.009955  0.004697 -0.026180
  3H   1s        -0.063469  0.024627 -0.019229 -0.076518 -0.083830 -0.042574
  3H   2s        -0.593805  0.322566  0.086380 -0.132226 -0.587866 -0.597120
  3H   3s         0.160145 -0.518683  0.310278  2.072096  1.480338  0.665473
  3H   1pz       -0.025224  0.045341  0.008324 -0.009566 -0.011912 -0.011631
  3H   1px        0.015254  0.018761  0.010919 -0.013187  0.008702  0.005722
  3H   1py       -0.008350 -0.009678 -0.020035  0.006664  0.000407 -0.016109
  4O   1s        -0.011161 -0.004721 -0.020131 -0.001745 -0.007945  0.028622
  4O   2s        -0.026296 -0.007820 -0.043678 -0.003042 -0.016694  0.060866
  4O   3s         0.022917 -0.035202 -0.001381 -0.012937 -0.011031  0.028855
  4O   4s         0.122235  0.162832  0.501606  0.162049  0.255271 -1.069647
  4O   5s         0.376308  0.328624 -0.397256 -0.278511 -0.260625  2.121014
  4O   1pz       -0.130472  0.130127  0.024935 -0.035093 -0.065638  0.140870
  4O   1px       -0.044546  0.257590 -0.015779  0.045231  0.036644 -0.147783
  4O   1py        0.167731  0.012947 -0.222955  0.016511 -0.022588 -0.056374
  4O   2pz       -0.301970  0.256633  0.040236 -0.046215 -0.119786  0.256429
  4O   2px       -0.045530  0.412650  0.034247  0.071726  0.066844 -0.420874
  4O   2py        0.316006  0.040611 -0.490642  0.071960 -0.075313 -0.143235
  4O   3pz       -0.381199 -0.798423 -0.552543  0.291753  0.056010 -0.634328
  4O   3px        0.110751 -0.694751 -0.097393 -0.042156 -0.150524  0.958061
  4O   3py       -0.447404  0.016260  0.941229 -0.215848  0.208371  0.411048
  4O   1dz2      -0.010988 -0.007500 -0.005430  0.000449 -0.001286 -0.003355
  4O   1dxz       0.006335 -0.000525  0.001650 -0.001894  0.000623  0.002790
  4O   1dyz      -0.001619  0.000683  0.003590 -0.000375  0.000284  0.000770
  4O   1dx2y2    -0.004009 -0.000876 -0.002204  0.003957 -0.000904  0.000464
  4O   1dxy       0.001535  0.002512  0.002396 -0.003300  0.001393  0.000739
  4O   2dz2       0.045439 -0.002729  0.031067 -0.014590  0.000901  0.009680
  4O   2dxz       0.003608 -0.013273 -0.006209 -0.018455 -0.006589  0.001954
  4O   2dyz      -0.004989 -0.001020 -0.004300  0.001738  0.006321 -0.004979
  4O   2dx2y2    -0.006290  0.030170 -0.008337  0.002541  0.011160  0.045220
  4O   2dxy       0.021046 -0.024182  0.017113 -0.027185  0.014086  0.014479
  4O   1f0       -0.006335 -0.001749 -0.004079  0.000546 -0.001396 -0.000270
  4O   1f+1       0.003739  0.002678  0.002015 -0.001294  0.000696  0.001030
  4O   1f-1       0.001017 -0.000163 -0.000165  0.000051  0.000154 -0.000150
  4O   1f+2      -0.001962  0.000166 -0.000118  0.000556 -0.000110 -0.000628
  4O   1f-2      -0.000110 -0.000111 -0.000242  0.000469 -0.000770 -0.000272
  4O   1f+3       0.000106 -0.000351  0.000558 -0.001024  0.000681  0.000973
  4O   1f-3       0.000405 -0.002082  0.001320 -0.000180  0.000076  0.000209
  5H   1s        -0.112693 -0.026807 -0.036654  0.001707 -0.038558  0.069239
  5H   2s        -1.260424 -0.463821 -0.620690  0.209148 -0.307591  0.217739
  5H   3s         0.413269  0.154227  0.218985  0.248883  0.369843 -1.392865
  5H   1pz       -0.065611 -0.027872 -0.041185  0.018333 -0.006266 -0.019472
  5H   1px        0.003302  0.016209  0.015382  0.012822  0.005013 -0.007155
  5H   1py        0.010891 -0.004637  0.000055 -0.006419 -0.003285  0.007406
                     24        25        26        27        28        29   
                   0.55477   0.65097   0.84495   0.91441   1.08453   1.15087
                   0.00000   0.00000   0.00000   0.00000   0.00000   0.00000
                  --------  --------  --------  --------  --------  --------
  0N   1s        -0.018218  0.003840  0.001416  0.001058  0.002846  0.000792
  0N   2s        -0.034779  0.002217  0.002448  0.002616  0.008115  0.003639
  0N   3s        -0.072893  0.100811  0.009547 -0.004240 -0.097456 -0.070874
  0N   4s         1.286801 -0.722055 -0.120016 -0.110845 -0.167229  0.110226
  0N   5s        -4.189227  1.365155  0.395416 -0.014202  2.851010  0.935965
  0N   1pz       -0.003398  0.024994  0.023459 -0.000987 -0.050178 -0.014220
  0N   1px        0.101815  0.010792 -0.000356 -0.041247  0.055429 -0.020091
  0N   1py        0.076643  0.007426 -0.028356 -0.000685 -0.083312 -0.021357
  0N   2pz       -0.001025  0.011100  0.008628  0.030322 -0.243816  0.386997
  0N   2px        0.248705 -0.310979 -0.044723 -0.042305 -0.217084 -0.128782
  0N   2py        0.214765  0.004165 -0.032383  0.041548 -0.178478 -0.384530
  0N   3pz        0.294162 -0.726064  0.077276 -0.495441 -0.252568 -0.034384
  0N   3px       -1.501703 -0.086570  0.122366 -0.415305  0.470001 -0.181267
  0N   3py       -0.449795 -0.800752 -0.022275 -0.630451 -0.505105 -0.441701
  0N   1dz2       0.002496 -0.008044 -0.002076 -0.001705 -0.004977  0.002535
  0N   1dxz       0.004131  0.001964 -0.000737 -0.001779  0.001375 -0.005339
  0N   1dyz      -0.003182  0.003160  0.000244  0.000288  0.003299  0.003746
  0N   1dx2y2     0.008189  0.008990  0.000158  0.000942  0.002704  0.003062
  0N   1dxy       0.002411 -0.001041  0.000730 -0.002931 -0.003125 -0.000885
  0N   2dz2       0.006767  0.053749  0.116193  0.075718  0.484891 -0.297404
  0N   2dxz      -0.049915  0.069980 -0.604689 -0.226268  0.430965 -0.317673
  0N   2dyz       0.007471  0.185022  0.185478 -0.554015 -0.476860 -0.470244
  0N   2dx2y2    -0.039472 -0.227297  0.196434  0.338364  0.000289 -0.502150
  0N   2dxy       0.082712  0.119884  0.386891 -0.250733  0.713057  0.396466
  0N   1f0        0.004003 -0.005026  0.001576  0.000095 -0.031778  0.005002
  0N   1f+1       0.001798  0.003334  0.003164  0.000620 -0.002167  0.014892
  0N   1f-1       0.000914 -0.000238 -0.000564  0.001132  0.000742  0.013777
  0N   1f+2      -0.003801 -0.002394 -0.003189 -0.003577 -0.012776 -0.019302
  0N   1f-2       0.000998  0.002232  0.002627  0.000768 -0.000422  0.017593
  0N   1f+3       0.000585  0.004062 -0.003191  0.001538 -0.005694 -0.022377
  0N   1f-3      -0.001148 -0.003626 -0.002421  0.003171 -0.004607 -0.019702
  1H   1s        -0.057860 -0.035766 -0.004270  0.029079 -0.085503 -0.052022
  1H   2s         0.443743  0.819821  0.084069  0.247056 -0.314539  0.129947
  1H   3s         4.004986  1.893337 -0.447068  2.142092 -1.114770 -0.456446
  1H   1pz        0.006154  0.014400 -0.147019 -0.075870  0.011475  0.231935
  1H   1px        0.023066 -0.005078  0.016166  0.045342 -0.029449 -0.023043
  1H   1py        0.014607 -0.011326  0.094821 -0.149638  0.079303  0.060200
  2H   1s         0.023942 -0.028357  0.010168 -0.018300 -0.003533  0.087661
  2H   2s         0.384688 -0.623602 -0.145819 -0.284422 -1.107341 -1.593743
  2H   3s        -0.476205 -0.333680 -0.004580 -0.319082 -0.168869  0.198332
  2H   1pz        0.011585 -0.056054  0.023635  0.130130  0.077464  0.060700
  2H   1px       -0.018164 -0.012213 -0.140457  0.016743 -0.079382 -0.111361
  2H   1py        0.000638 -0.053263  0.050756  0.046986 -0.025056 -0.180313
  3H   1s         0.002337 -0.023929 -0.007439 -0.021415  0.021532 -0.072379
  3H   2s         0.486173 -0.622470  0.046140 -0.284983 -1.374804  0.364145
  3H   3s         0.508818 -0.639964  0.014616 -0.347890 -0.079852 -0.321115
  3H   1pz        0.016492 -0.028124 -0.018977 -0.008491 -0.111943  0.099241
  3H   1px       -0.002352 -0.010593  0.131551  0.056119 -0.120031  0.171251
  3H   1py       -0.001532 -0.067858 -0.068234  0.130874  0.062284  0.049853
  4O   1s        -0.000851 -0.038449  0.001079 -0.016228 -0.002016  0.004264
  4O   2s        -0.001004 -0.077229  0.002374 -0.032820 -0.007093  0.009925
  4O   3s        -0.020846 -0.120858  0.001568 -0.058179  0.049990 -0.010809
  4O   4s         0.097893  2.024974 -0.007493  1.029675 -0.160820 -0.169539
  4O   5s        -0.311144 -4.139942 -0.144649 -2.386381  0.461593  0.529585
  4O   1pz        0.208992  0.015059 -0.025111  0.033495  0.004597 -0.051081
  4O   1px       -0.091653 -0.080601  0.011400 -0.015373 -0.040033 -0.042904
  4O   1py        0.115161  0.037665  0.013695  0.015979  0.012929  0.005329
  4O   2pz        0.439671  0.129139 -0.062436  0.083073  0.016403 -0.046674
  4O   2px       -0.113112 -0.273355  0.026155 -0.175637 -0.015364  0.050390
  4O   2py        0.290541  0.099270  0.039330  0.023804 -0.010781 -0.014323
  4O   3pz       -1.773792  0.528685  0.485425  0.180067  0.047236 -0.145957
  4O   3px        0.844433  1.313771 -0.112529  0.892093  0.038378 -0.234642
  4O   3py       -0.885910 -0.526600 -0.092659 -0.287380  0.128055  0.163125
  4O   1dz2      -0.014049  0.003809  0.001765  0.000808  0.001437 -0.003265
  4O   1dxz       0.002014 -0.002072 -0.003153 -0.003568  0.005104 -0.002908
  4O   1dyz      -0.000216 -0.001395  0.000303 -0.000153 -0.000020  0.001378
  4O   1dx2y2     0.002442  0.011915  0.000678  0.002862 -0.000801  0.003791
  4O   1dxy      -0.004070 -0.006002  0.002698 -0.004589  0.002585 -0.001150
  4O   2dz2       0.070023 -0.028721  0.055056 -0.023846  0.036529 -0.049602
  4O   2dxz      -0.042374 -0.010119  0.110153  0.031041  0.099455 -0.447729
  4O   2dyz       0.008839  0.015929 -0.026414 -0.014287 -0.046155  0.194185
  4O   2dx2y2    -0.066528  0.005023 -0.031429  0.149447 -0.065057 -0.083823
  4O   2dxy      -0.009571 -0.017558 -0.072386  0.009033  0.069816  0.067541
  4O   1f0       -0.006246  0.005640  0.003677  0.003741  0.002356 -0.010021
  4O   1f+1       0.001215 -0.005528 -0.001498 -0.003274 -0.001749  0.000346
  4O   1f-1       0.001478  0.000366 -0.000022  0.001393 -0.000525  0.000829
  4O   1f+2       0.000905  0.000371 -0.003425 -0.002898  0.001450  0.005697
  4O   1f-2      -0.000106 -0.000166  0.001922  0.001386  0.000196 -0.005134
  4O   1f+3      -0.001925 -0.003170 -0.002163  0.002120 -0.003115 -0.002648
  4O   1f-3       0.001726  0.002068 -0.002934  0.004235 -0.000561  0.000222
  5H   1s         0.037992 -0.001861  0.004631  0.004270 -0.019631  0.035703
  5H   2s        -0.490709  0.911484  0.322364  0.552925 -0.014232 -0.318030
  5H   3s        -1.391297  0.162618  0.122912 -0.247072  0.025148  0.066061
  5H   1pz       -0.074039  0.065656  0.010040  0.040178 -0.009342  0.029792
  5H   1px        0.029880 -0.010813 -0.064658  0.023191 -0.146028  0.321043
  5H   1py       -0.010601 -0.013570 -0.010194  0.005658  0.040522 -0.138818
                     30        31        32        33        34        35   
                   1.17094   1.22792   1.23231   1.40873   1.54279   1.58491
                   0.00000   0.00000   0.00000   0.00000   0.00000   0.00000
                  --------  --------  --------  --------  --------  --------
  0N   1s         0.000547  0.000993  0.001228 -0.005738 -0.000641  0.007119
  0N   2s         0.001798  0.003398  0.002947 -0.021628 -0.004632  0.022218
  0N   3s         0.025056 -0.073493 -0.035712  0.340670  0.079902 -0.193459
  0N   4s        -0.134206  0.317661  0.145758 -1.452897 -0.167165  0.534222
  0N   5s        -0.290442 -0.052318 -0.042085  1.654113 -0.397754 -0.502560
  0N   1pz        0.009229 -0.000404  0.003171 -0.058412 -0.084632 -0.064400
  0N   1px        0.028971 -0.047199 -0.029607  0.119709  0.004419 -0.038150
  0N   1py        0.020179  0.015951 -0.005339 -0.160927 -0.032702  0.118486
[...]
   58      -132.343388   -0.732872    0.000418  0.000245
   59      -132.343388   -0.732929    0.000441  0.000231
   60      -132.343391   -0.734496    0.000460  0.000218
   61      -132.343393   -0.735691    0.000468  0.000225
   62      -132.343395   -0.736794    0.000460  0.000215
   63      -132.343397   -0.738332    0.000455  0.000215
   64      -132.343400   -0.739926    0.000453  0.000219
   65      -132.343403   -0.742175    0.000447  0.000209
   66      -132.343406   -0.744236    0.000445  0.000220
   67      -132.343412   -0.747916    0.000442  0.000220
   68      -132.343408   -0.745343    0.000443  0.000223
   69      -132.343411   -0.747269    0.000438  0.000204
   70      -132.343417   -0.751197    0.000431  0.000193

                      ***********************HURRAY********************
                      ***            THE IRC HAS CONVERGED          ***
                      *************************************************


         *************************************************************
         *                          BACKWARD IRC                     *
         *************************************************************

Iteration    E(Eh)      dE(kcal/mol)  max(|G|)   RMS(G) 
Convergence thresholds                0.001000  0.000200            
    0      -132.342504   -0.177761    0.005200  0.001471
    1      -132.344034   -1.137885    0.010521  0.003379
    2      -132.345760   -2.220908    0.009627  0.002994
    3      -132.347197   -3.122597    0.004971  0.002459
    4      -132.347505   -3.315850    0.005496  0.002362
    5      -132.347710   -3.445016    0.005037  0.001903
    6      -132.347971   -3.608866    0.004187  0.001653
    7      -132.348221   -3.765565    0.003802  0.001511
    8      -132.348447   -3.907228    0.003250  0.001370
    9      -132.348654   -4.037190    0.002895  0.001248
   10      -132.348846   -4.157320    0.002551  0.001137
   11      -132.349020   -4.266587    0.002133  0.001058
   12      -132.349179   -4.366787    0.002122  0.000971
   13      -132.349331   -4.461991    0.001852  0.000901
   14      -132.349469   -4.548633    0.001871  0.000828
   15      -132.349598   -4.629631    0.001715  0.000774
   16      -132.349723   -4.707826    0.001671  0.000734
   17      -132.349839   -4.780768    0.001646  0.000703
   18      -132.349952   -4.851843    0.001348  0.000679
   19      -132.350055   -4.916129    0.001326  0.000663
   20      -132.350150   -4.975764    0.001402  0.000621
   21      -132.350250   -5.038635    0.001188  0.000592
   22      -132.350341   -5.095719    0.001333  0.000592
   23      -132.350426   -5.148940    0.001127  0.000645
   24      -132.350450   -5.164419    0.001120  0.000620
   25      -132.350490   -5.188970    0.001142  0.000542
   26      -132.350532   -5.215369    0.001077  0.000530
   27      -132.350572   -5.240766    0.001089  0.000526
   28      -132.350615   -5.267404    0.001035  0.000508
   29      -132.350657   -5.293958    0.001039  0.000500
   30      -132.350697   -5.319411    0.000997  0.000490
   31      -132.350736   -5.343848    0.000959  0.000488
   32      -132.350774   -5.367390    0.000952  0.000479
   33      -132.350814   -5.392870    0.000948  0.000478
   34      -132.350852   -5.416672    0.000923  0.000462
   35      -132.350891   -5.440884    0.000915  0.000458
   36      -132.350928   -5.463825    0.000904  0.000450
   37      -132.350965   -5.487350    0.000887  0.000445
   38      -132.350998   -5.507897    0.000907  0.000438
   39      -132.351035   -5.531169    0.000915  0.000433
   40      -132.351069   -5.552353    0.000863  0.000424
   41      -132.351103   -5.573913    0.000787  0.000435
   42      -132.351135   -5.593995    0.000844  0.000420
   43      -132.351163   -5.611617    0.000872  0.000441
   44      -132.351193   -5.630625    0.000960  0.000471
   45      -132.351204   -5.637437    0.000874  0.000409
   46      -132.351221   -5.647808    0.000785  0.000389
   47      -132.351238   -5.658349    0.000797  0.000385
   48      -132.351252   -5.667571    0.000758  0.000383
   49      -132.351267   -5.676548    0.000789  0.000379
   50      -132.351282   -5.686088    0.000792  0.000378
   51      -132.351298   -5.696392    0.000734  0.000377
   52      -132.351311   -5.704348    0.000772  0.000371
   53      -132.351325   -5.713042    0.000780  0.000370
   54      -132.351340   -5.722522    0.000714  0.000371
   55      -132.351355   -5.732065    0.000771  0.000366
   56      -132.351369   -5.740555    0.000731  0.000363
   57      -132.351384   -5.750188    0.000753  0.000361
   58      -132.351399   -5.759632    0.000700  0.000358
   59      -132.351412   -5.767930    0.000711  0.000353
   60      -132.351427   -5.777014    0.000698  0.000351
   61      -132.351442   -5.786478    0.000704  0.000348
   62      -132.351457   -5.795935    0.000675  0.000349
   63      -132.351471   -5.804754    0.000693  0.000344
   64      -132.351484   -5.812845    0.000712  0.000341
   65      -132.351495   -5.820106    0.000675  0.000339
   66      -132.351508   -5.828359    0.000675  0.000337
   67      -132.351520   -5.835512    0.000659  0.000335
   68      -132.351533   -5.843966    0.000667  0.000331
   69      -132.351547   -5.852558    0.000701  0.000331
   70      -132.351559   -5.860271    0.000635  0.000330
   71      -132.351573   -5.868667    0.000647  0.000324
   72      -132.351586   -5.877093    0.000630  0.000323
   73      -132.351598   -5.884789    0.000638  0.000319
   74      -132.351611   -5.892519    0.000631  0.000317
   75      -132.351623   -5.900041    0.000589  0.000321
   76      -132.351635   -5.908001    0.000629  0.000311
   77      -132.351646   -5.914840    0.000645  0.000309
   78      -132.351693   -5.944194    0.002091  0.000822
   79      -132.351649   -5.916820    0.003358  0.001265
   80      -132.351702   -5.950083    0.001229  0.000543
   81      -132.351656   -5.920850    0.003516  0.001344
   82      -132.351712   -5.956039    0.001059  0.000491
   83      -132.351715   -5.958007    0.000744  0.000365
   84      -132.351718   -5.959738    0.000716  0.000341
   85      -132.351728   -5.966288    0.000585  0.000300
   86      -132.351740   -5.973783    0.000575  0.000299
   87      -132.351752   -5.981252    0.000599  0.000295
   88      -132.351764   -5.988531    0.000572  0.000293
   89      -132.351776   -5.996040    0.000576  0.000290
   90      -132.351786   -6.002455    0.000610  0.000290
   91      -132.351797   -6.009381    0.000590  0.000285
   92      -132.351808   -6.016028    0.000548  0.000282
   93      -132.351818   -6.022406    0.000531  0.000279
   94      -132.351829   -6.029195    0.000539  0.000275
   95      -132.351839   -6.036056    0.000535  0.000272
   96      -132.351848   -6.041588    0.000582  0.000274
   97      -132.351857   -6.047113    0.000549  0.000269
   98      -132.351867   -6.053317    0.000560  0.000268
   99      -132.351877   -6.059452    0.000501  0.000264
  100      -132.351887   -6.065940    0.000496  0.000261
  101      -132.351896   -6.071432    0.000502  0.000256
  102      -132.351905   -6.077153    0.000514  0.000253
  103      -132.351913   -6.082339    0.000498  0.000250
  104      -132.351922   -6.088008    0.000523  0.000252
  105      -132.351931   -6.093428    0.000458  0.000250
  106      -132.351940   -6.099449    0.000429  0.000247
  107      -132.351949   -6.104967    0.000442  0.000242
  108      -132.351958   -6.110270    0.000414  0.000240
  109      -132.351967   -6.116134    0.000405  0.000242
  110      -132.351974   -6.120698    0.000412  0.000231
  111      -132.351983   -6.126245    0.000399  0.000232
  112      -132.351990   -6.130643    0.000398  0.000225
  113      -132.351998   -6.135494    0.000400  0.000223
  114      -132.352006   -6.140689    0.000386  0.000219
  115      -132.352014   -6.145496    0.000390  0.000216
  116      -132.352019   -6.148865    0.000392  0.000212
  117      -132.352027   -6.153954    0.000390  0.000224
  118      -132.352034   -6.158281    0.000457  0.000214
  119      -132.352041   -6.162236    0.000373  0.000197

                      ***********************HURRAY********************
                      ***            THE IRC HAS CONVERGED          ***
                      *************************************************


---------------------------------------------------------------
                       IRC PATH SUMMARY              
---------------------------------------------------------------
All gradients are in Eh/Bohr.

Step        E(Eh)      dE(kcal/mol)  max(|G|)   RMS(G) 
   1      -132.352041   -6.162236    0.000373  0.000197
   2      -132.352034   -6.158281    0.000457  0.000214
   3      -132.352027   -6.153954    0.000390  0.000224
   4      -132.352019   -6.148865    0.000392  0.000212
   5      -132.352014   -6.145496    0.000390  0.000216
   6      -132.352006   -6.140689    0.000386  0.000219
   7      -132.351998   -6.135494    0.000400  0.000223
   8      -132.351990   -6.130643    0.000398  0.000225
   9      -132.351983   -6.126245    0.000399  0.000232
  10      -132.351974   -6.120698    0.000412  0.000231
  11      -132.351967   -6.116134    0.000405  0.000242
  12      -132.351958   -6.110270    0.000414  0.000240
  13      -132.351949   -6.104967    0.000442  0.000242
  14      -132.351940   -6.099449    0.000429  0.000247
  15      -132.351931   -6.093428    0.000458  0.000250
  16      -132.351922   -6.088008    0.000523  0.000252
  17      -132.351913   -6.082339    0.000498  0.000250
  18      -132.351905   -6.077153    0.000514  0.000253
  19      -132.351896   -6.071432    0.000502  0.000256
  20      -132.351887   -6.065940    0.000496  0.000261
  21      -132.351877   -6.059452    0.000501  0.000264
  22      -132.351867   -6.053317    0.000560  0.000268
  23      -132.351857   -6.047113    0.000549  0.000269
  24      -132.351848   -6.041588    0.000582  0.000274
  25      -132.351839   -6.036056    0.000535  0.000272
  26      -132.351829   -6.029195    0.000539  0.000275
  27      -132.351818   -6.022406    0.000531  0.000279
  28      -132.351808   -6.016028    0.000548  0.000282
  29      -132.351797   -6.009381    0.000590  0.000285
  30      -132.351786   -6.002455    0.000610  0.000290
  31      -132.351776   -5.996040    0.000576  0.000290
  32      -132.351764   -5.988531    0.000572  0.000293
  33      -132.351752   -5.981252    0.000599  0.000295
  34      -132.351740   -5.973783    0.000575  0.000299
  35      -132.351728   -5.966288    0.000585  0.000300
  36      -132.351718   -5.959738    0.000716  0.000341
  37      -132.351715   -5.958007    0.000744  0.000365
  38      -132.351712   -5.956039    0.001059  0.000491
  39      -132.351656   -5.920850    0.003516  0.001344
  40      -132.351702   -5.950083    0.001229  0.000543
  41      -132.351649   -5.916820    0.003358  0.001265
  42      -132.351693   -5.944194    0.002091  0.000822
  43      -132.351646   -5.914840    0.000645  0.000309
  44      -132.351635   -5.908001    0.000629  0.000311
  45      -132.351623   -5.900041    0.000589  0.000321
  46      -132.351611   -5.892519    0.000631  0.000317
  47      -132.351598   -5.884789    0.000638  0.000319
  48      -132.351586   -5.877093    0.000630  0.000323
  49      -132.351573   -5.868667    0.000647  0.000324
  50      -132.351559   -5.860271    0.000635  0.000330
  51      -132.351547   -5.852558    0.000701  0.000331
  52      -132.351533   -5.843966    0.000667  0.000331
  53      -132.351520   -5.835512    0.000659  0.000335
  54      -132.351508   -5.828359    0.000675  0.000337
  55      -132.351495   -5.820106    0.000675  0.000339
  56      -132.351484   -5.812845    0.000712  0.000341
  57      -132.351471   -5.804754    0.000693  0.000344
  58      -132.351457   -5.795935    0.000675  0.000349
  59      -132.351442   -5.786478    0.000704  0.000348
  60      -132.351427   -5.777014    0.000698  0.000351
  61      -132.351412   -5.767930    0.000711  0.000353
  62      -132.351399   -5.759632    0.000700  0.000358
  63      -132.351384   -5.750188    0.000753  0.000361
  64      -132.351369   -5.740555    0.000731  0.000363
  65      -132.351355   -5.732065    0.000771  0.000366
  66      -132.351340   -5.722522    0.000714  0.000371
  67      -132.351325   -5.713042    0.000780  0.000370
  68      -132.351311   -5.704348    0.000772  0.000371
  69      -132.351298   -5.696392    0.000734  0.000377
  70      -132.351282   -5.686088    0.000792  0.000378
  71      -132.351267   -5.676548    0.000789  0.000379
  72      -132.351252   -5.667571    0.000758  0.000383
  73      -132.351238   -5.658349    0.000797  0.000385
  74      -132.351221   -5.647808    0.000785  0.000389
  75      -132.351204   -5.637437    0.000874  0.000409
  76      -132.351193   -5.630625    0.000960  0.000471
  77      -132.351163   -5.611617    0.000872  0.000441
  78      -132.351135   -5.593995    0.000844  0.000420
  79      -132.351103   -5.573913    0.000787  0.000435
  80      -132.351069   -5.552353    0.000863  0.000424
  81      -132.351035   -5.531169    0.000915  0.000433
  82      -132.350998   -5.507897    0.000907  0.000438
  83      -132.350965   -5.487350    0.000887  0.000445
  84      -132.350928   -5.463825    0.000904  0.000450
  85      -132.350891   -5.440884    0.000915  0.000458
  86      -132.350852   -5.416672    0.000923  0.000462
  87      -132.350814   -5.392870    0.000948  0.000478
  88      -132.350774   -5.367390    0.000952  0.000479
  89      -132.350736   -5.343848    0.000959  0.000488
  90      -132.350697   -5.319411    0.000997  0.000490
  91      -132.350657   -5.293958    0.001039  0.000500
  92      -132.350615   -5.267404    0.001035  0.000508
  93      -132.350572   -5.240766    0.001089  0.000526
  94      -132.350532   -5.215369    0.001077  0.000530
  95      -132.350490   -5.188970    0.001142  0.000542
  96      -132.350450   -5.164419    0.001120  0.000620
  97      -132.350426   -5.148940    0.001127  0.000645
  98      -132.350341   -5.095719    0.001333  0.000592
  99      -132.350250   -5.038635    0.001188  0.000592
 100      -132.350150   -4.975764    0.001402  0.000621
 101      -132.350055   -4.916129    0.001326  0.000663
 102      -132.349952   -4.851843    0.001348  0.000679
 103      -132.349839   -4.780768    0.001646  0.000703
 104      -132.349723   -4.707826    0.001671  0.000734
 105      -132.349598   -4.629631    0.001715  0.000774
 106      -132.349469   -4.548633    0.001871  0.000828
 107      -132.349331   -4.461991    0.001852  0.000901
 108      -132.349179   -4.366787    0.002122  0.000971
 109      -132.349020   -4.266587    0.002133  0.001058
 110      -132.348846   -4.157320    0.002551  0.001137
 111      -132.348654   -4.037190    0.002895  0.001248
 112      -132.348447   -3.907228    0.003250  0.001370
 113      -132.348221   -3.765565    0.003802  0.001511
 114      -132.347971   -3.608866    0.004187  0.001653
 115      -132.347710   -3.445016    0.005037  0.001903
 116      -132.347505   -3.315850    0.005496  0.002362
 117      -132.347197   -3.122597    0.004971  0.002459
 118      -132.345760   -2.220908    0.009627  0.002994
 119      -132.344034   -1.137885    0.010521  0.003379
 120      -132.342504   -0.177761    0.005200  0.001471
 121      -132.342220    0.000000    0.000039  0.000018 <= TS
 122      -132.342349   -0.080524    0.004425  0.001510
 123      -132.342394   -0.108811    0.002530  0.001032
 124      -132.342429   -0.131116    0.001919  0.000787
 125      -132.342468   -0.155649    0.001728  0.000738
 126      -132.342515   -0.184723    0.001949  0.000663
 127      -132.342566   -0.217068    0.001862  0.000644
 128      -132.342619   -0.249825    0.001784  0.000641
 129      -132.342669   -0.281462    0.001737  0.000616
 130      -132.342719   -0.313084    0.001582  0.000598
 131      -132.342767   -0.343009    0.001522  0.000570
 132      -132.342814   -0.372807    0.001391  0.000546
 133      -132.342857   -0.399232    0.001320  0.000518
 134      -132.342899   -0.425734    0.001132  0.000502
 135      -132.342936   -0.448856    0.001094  0.000482
 136      -132.342972   -0.471474    0.001053  0.000448
 137      -132.343004   -0.491595    0.000991  0.000427
 138      -132.343039   -0.513402    0.000932  0.000400
 139      -132.343071   -0.533939    0.000919  0.000385
 140      -132.343097   -0.550313    0.000870  0.000364
 141      -132.343125   -0.567485    0.000800  0.000343
 142      -132.343149   -0.582942    0.000842  0.000359
 143      -132.343161   -0.590113    0.000758  0.000354
 144      -132.343173   -0.597700    0.000744  0.000326
 145      -132.343184   -0.604469    0.000729  0.000306
 146      -132.343195   -0.611827    0.000726  0.000306
 147      -132.343206   -0.618274    0.000673  0.000291
 148      -132.343219   -0.626432    0.000715  0.000295
 149      -132.343229   -0.632861    0.000707  0.000303
 150      -132.343238   -0.638553    0.000674  0.000280
 151      -132.343251   -0.647023    0.000612  0.000272
 152      -132.343252   -0.647505    0.000770  0.000346
 153      -132.343244   -0.642106    0.000683  0.000293
 154      -132.343253   -0.648171    0.000667  0.000282
 155      -132.343262   -0.653781    0.000614  0.000257
 156      -132.343274   -0.660898    0.000594  0.000247
 157      -132.343283   -0.666842    0.000557  0.000242
 158      -132.343273   -0.660816    0.000798  0.000356
 159      -132.343278   -0.663602    0.000537  0.000238
 160      -132.343289   -0.670487    0.000736  0.000397
 161      -132.343289   -0.670638    0.000667  0.000352
 162      -132.343289   -0.670696    0.000646  0.000321
 163      -132.343289   -0.670274    0.000624  0.000291
 164      -132.343290   -0.671437    0.000599  0.000268
 165      -132.343292   -0.672540    0.000613  0.000302
 166      -132.343294   -0.673896    0.000575  0.000255
 167      -132.343298   -0.676045    0.000582  0.000289
 168      -132.343299   -0.676730    0.000558  0.000253
 169      -132.343303   -0.679536    0.000535  0.000238
 170      -132.343311   -0.684485    0.000509  0.000238
 171      -132.343318   -0.688982    0.000503  0.000217
 172      -132.343327   -0.694187    0.000486  0.000219
 173      -132.343336   -0.700048    0.000477  0.000224
 174      -132.343345   -0.705428    0.000478  0.000208
 175      -132.343352   -0.709986    0.000460  0.000224
 176      -132.343359   -0.714509    0.000480  0.000221
 177      -132.343366   -0.718812    0.000491  0.000231
 178      -132.343374   -0.723603    0.000427  0.000205
 179      -132.343382   -0.729114    0.000537  0.000221
 180      -132.343388   -0.732872    0.000418  0.000245
 181      -132.343388   -0.732929    0.000441  0.000231
 182      -132.343391   -0.734496    0.000460  0.000218
 183      -132.343393   -0.735691    0.000468  0.000225
 184      -132.343395   -0.736794    0.000460  0.000215
 185      -132.343397   -0.738332    0.000455  0.000215
 186      -132.343400   -0.739926    0.000453  0.000219
 187      -132.343403   -0.742175    0.000447  0.000209
 188      -132.343406   -0.744236    0.000445  0.000220
 189      -132.343412   -0.747916    0.000442  0.000220
 190      -132.343408   -0.745343    0.000443  0.000223
 191      -132.343411   -0.747269    0.000438  0.000204
 192      -132.343417   -0.751197    0.000431  0.000193

Timings for individual modules:

Sum of individual times         ...    14430.598 sec (= 240.510 min)
GTO integral calculation        ...     1153.278 sec (=  19.221 min)   8.0 %
SCF iterations                  ...    12132.748 sec (= 202.212 min)  84.1 %
SCF Gradient evaluation         ...     1120.781 sec (=  18.680 min)   7.8 %
Geometry relaxation             ...        0.258 sec (=   0.004 min)   0.0 %
Analytical frequency calculation...       23.532 sec (=   0.392 min)   0.2 %
                             ****ORCA TERMINATED NORMALLY****
TOTAL RUN TIME: 0 days 4 hours 4 minutes 44 seconds 660 msec
