
                                 *****************
                                 * O   R   C   A *
                                 *****************

           --- An Ab Initio, DFT and Semiempirical electronic structure package ---

                  #######################################################
                  #                        -***-                        #
                  #          Department of theory and spectroscopy      #
                  #               Directorship: Frank Neese             #
                  #        Max Planck Institute fuer Kohlenforschung    #
                  #                Kaiser Wilhelm Platz 1               #
                  #                 D-45470 Muelheim/Ruhr               #
                  #                      Germany                        #
                  #                                                     #
                  #                  All rights reserved                #
                  #                        -***-                        #
                  #######################################################


                         Program Version 4.2.1 -  RELEASE  -


 With contributions from (in alphabetic order):
   Daniel Aravena         : Magnetic Suceptibility
   Michael Atanasov       : Ab Initio Ligand Field Theory (pilot matlab implementation)
   Alexander A. Auer      : GIAO ZORA, VPT2
   Ute Becker             : Parallelization
   Giovanni Bistoni       : ED, misc. LED, open-shell LED, HFLD
   Martin Brehm           : Molecular dynamics
   Dmytro Bykov           : SCF Hessian
   Vijay G. Chilkuri      : MRCI spin determinant printing, contributions to CSF-ICE
   Dipayan Datta          : RHF DLPNO-CCSD density
   Achintya Kumar Dutta   : EOM-CC, STEOM-CC
   Dmitry Ganyushin       : Spin-Orbit,Spin-Spin,Magnetic field MRCI
   Miquel Garcia          : C-PCM Hessian, Gaussian charge scheme
   Yang Guo               : DLPNO-NEVPT2, CIM, IAO-localization
   Andreas Hansen         : Spin unrestricted coupled pair/coupled cluster methods
   Benjamin Helmich-Paris : CASSCF linear response (MC-RPA)
   Lee Huntington         : MR-EOM, pCC
   Robert Izsak           : Overlap fitted RIJCOSX, COSX-SCS-MP3, EOM
   Christian Kollmar      : KDIIS, OOCD, Brueckner-CCSD(T), CCSD density
   Simone Kossmann        : Meta GGA functionals, TD-DFT gradient, OOMP2, MP2 Hessian
   Martin Krupicka        : AUTO-CI
   Lucas Lang             : DCDCAS
   Dagmar Lenk            : GEPOL surface, SMD
   Dimitrios Liakos       : Extrapolation schemes; Compound Job, initial MDCI parallelization
   Dimitrios Manganas     : Further ROCIS development; embedding schemes
   Dimitrios Pantazis     : SARC Basis sets
   Taras Petrenko         : DFT Hessian,TD-DFT gradient, ASA, ECA, R-Raman, ABS, FL, XAS/XES, NRVS
   Peter Pinski           : DLPNO-MP2, DLPNO-MP2 Gradient
   Christoph Reimann      : Effective Core Potentials
   Marius Retegan         : Local ZFS, SOC
   Christoph Riplinger    : Optimizer, TS searches, QM/MM, DLPNO-CCSD(T), (RO)-DLPNO pert. Triples
   Tobias Risthaus        : Range-separated hybrids, TD-DFT gradient, RPA, STAB
   Michael Roemelt        : Original ROCIS implementation
   Masaaki Saitow         : Open-shell DLPNO-CCSD energy and density
   Barbara Sandhoefer     : DKH picture change effects
   Avijit Sen             : IP-ROCIS
   Kantharuban Sivalingam : CASSCF convergence, NEVPT2, FIC-MRCI
   Bernardo de Souza      : ESD, SOC TD-DFT
   Georgi Stoychev        : AutoAux, RI-MP2 NMR
   Willem Van den Heuvel  : Paramagnetic NMR
   Boris Wezisla          : Elementary symmetry handling
   Frank Wennmohs         : Technical directorship


 We gratefully acknowledge several colleagues who have allowed us to
 interface, adapt or use parts of their codes:
   Stefan Grimme, W. Hujo, H. Kruse,             : VdW corrections, initial TS optimization,
                  C. Bannwarth                     DFT functionals, gCP, sTDA/sTD-DF
   Ed Valeev, F. Pavosevic, A. Kumar             : LibInt (2-el integral package), F12 methods
   Garnet Chan, S. Sharma, J. Yang, R. Olivares  : DMRG
   Ulf Ekstrom                                   : XCFun DFT Library
   Mihaly Kallay                                 : mrcc  (arbitrary order and MRCC methods)
   Andreas Klamt, Michael Diedenhofen            : otool_cosmo (COSMO solvation model)
   Jiri Pittner, Ondrej Demel                    : Mk-CCSD
   Frank Weinhold                                : gennbo (NPA and NBO analysis)
   Christopher J. Cramer and Donald G. Truhlar   : smd solvation model
   Lars Goerigk                                  : TD-DFT with DH, B97 family of functionals
   V. Asgeirsson, H. Jonsson                     : NEB implementation
   FAccTs GmbH                                   : IRC, NEB, NEB-TS, Multilevel, MM, QM/MM, CI optimization
   S Lehtola, MJT Oliveira, MAL Marques          : LibXC Library


 Your calculation uses the libint2 library for the computation of 2-el integrals
 For citations please refer to: http://libint.valeyev.net

 Your ORCA version has been built with support for libXC version: 4.2.3
 For citations please refer to: https://tddft.org/programs/libxc/

 This ORCA versions uses:
   CBLAS   interface :  Fast vector & matrix operations
   LAPACKE interface :  Fast linear algebra routines
   SCALAPACK package :  Parallel linear algebra routines




***************************************
The coordinates will be read from file: NH4+.xyz
***************************************


Your calculation utilizes the geometrical counterpoise correction gCP
Please cite in your paper:
H.Kruse, S. Grimme J.Chem.Phys., 136, (2012), 154101 
   

Your calculation utilizes the atom-pairwise dispersion correction
based on tight binding partial charges (D4)
Cite in your paper:
E.Caldeweyher, C.Bannwarth, S.Grimme, J.Chem.Phys., (2017), 147, 034112.
E.Caldeweyher, S.Ehlert, A.Hansen, H.Neugebauer, S.Grimme, J.Chem.Phys., (2018), in progress.
   

Your calculation utilizes the SMD solvation module
Please cite in your paper:
A.V. Marenich, C.J. Cramer, D.G. Truhlar J. Phys. Chem. B, 113, (2009), 6378 

----- Orbital basis set information -----
Your calculation utilizes the basis: def2-TZVP
   F. Weigend and R. Ahlrichs, Phys. Chem. Chem. Phys. 7, 3297 (2005).

----- AuxJ basis set information -----
Your calculation utilizes the auxiliary basis: def2/J
   F. Weigend, Phys. Chem. Chem. Phys. 8, 1057 (2006).

================================================================================
                                        WARNINGS
                       Please study these warnings very carefully!
================================================================================


WARNING: Geometry Optimization
  ===> : Switching off AutoStart
         For restart on a previous wavefunction, please use MOREAD

INFO   : the flag for use of LIBINT has been found!

================================================================================
                                       INPUT FILE
================================================================================
NAME = NH4+.inp
|  1> ! UHF BLYP D4 gCP(DFT/TZ) def2-TZVP Opt Freq TightOpt TightSCF Grid4 FinalGrid5 PrintBasis PrintMOs NBO
|  2> # BLYP > B97 > revPBE are excellent choices for geometry optimizations
|  3> 
|  4> %pal
|  5>  nprocs 8
|  6> end
|  7> 
|  8> %cpcm
|  9>  smd true
| 10>  smdsolvent "water"
| 11> end
| 12> 
| 13> *xyzfile +1 1 NH4+.xyz
| 14> 
| 15>                          ****END OF INPUT****
================================================================================

                       *****************************
                       * Geometry Optimization Run *
                       *****************************

Geometry optimization settings:
Update method            Update   .... BFGS
Choice of coordinates    CoordSys .... Z-matrix Internals
Initial Hessian          InHess   .... Almoef's Model

Convergence Tolerances:
Energy Change            TolE     ....  1.0000e-06 Eh
Max. Gradient            TolMAXG  ....  1.0000e-04 Eh/bohr
RMS Gradient             TolRMSG  ....  3.0000e-05 Eh/bohr
Max. Displacement        TolMAXD  ....  1.0000e-03 bohr
RMS Displacement         TolRMSD  ....  6.0000e-04 bohr
Strict Convergence                ....  False
------------------------------------------------------------------------------
                        ORCA OPTIMIZATION COORDINATE SETUP
------------------------------------------------------------------------------

The optimization will be done in new redundant internal coordinates
Making redundant internal coordinates   ...  (new redundants) done
Evaluating the initial hessian          ...  (Almloef) done
Evaluating the coordinates              ...  done
Calculating the B-matrix                .... done
Calculating the G-matrix                .... done
Diagonalizing the G-matrix              .... done
The first mode is                       ....    1
The number of degrees of freedom        ....    9

    -----------------------------------------------------------------
                    Redundant Internal Coordinates


    -----------------------------------------------------------------
         Definition                    Initial Value    Approx d2E/dq
    -----------------------------------------------------------------
      1. B(H   1,N   0)                  1.0444         0.381310   
      2. B(H   2,N   0)                  1.0444         0.381321   
      3. B(H   3,N   0)                  1.0444         0.381308   
      4. B(H   4,N   0)                  1.0444         0.381304   
      5. A(H   1,N   0,H   3)          109.4706         0.291337   
      6. A(H   2,N   0,H   3)          109.4719         0.291338   
      7. A(H   1,N   0,H   4)          109.4710         0.291337   
      8. A(H   2,N   0,H   4)          109.4710         0.291338   
      9. A(H   3,N   0,H   4)          109.4713         0.291336   
     10. A(H   1,N   0,H   2)          109.4715         0.291339   
    -----------------------------------------------------------------

Number of atoms                         .... 5
Number of degrees of freedom            .... 10

         *************************************************************
         *                GEOMETRY OPTIMIZATION CYCLE   1            *
         *************************************************************
---------------------------------
CARTESIAN COORDINATES (ANGSTROEM)
---------------------------------
  N     -4.189110   -0.412070    0.117960
  H     -3.145740   -0.403670    0.164050
  H     -4.527480   -1.398920    0.068640
  H     -4.504230    0.106910   -0.731850
  H     -4.578980    0.047420    0.971010

----------------------------
CARTESIAN COORDINATES (A.U.)
----------------------------
  NO LB      ZA    FRAG     MASS         X           Y           Z
   0 N     7.0000    0    14.007   -7.916271   -0.778699    0.222912
   1 H     1.0000    0     1.008   -5.944587   -0.762826    0.310010
   2 H     1.0000    0     1.008   -8.555697   -2.643576    0.129711
   3 H     1.0000    0     1.008   -8.511761    0.202031   -1.382996
   4 H     1.0000    0     1.008   -8.653018    0.089611    1.834943

--------------------------------
INTERNAL COORDINATES (ANGSTROEM)
--------------------------------
 N      0   0   0     0.000000000000     0.00000000     0.00000000
 H      1   0   0     1.044421277550     0.00000000     0.00000000
 H      1   2   0     1.044413539648   109.47151208     0.00000000
 H      1   2   3     1.044422276141   109.47063284   239.99931442
 H      1   2   3     1.044425190954   109.47095548   119.99973524

---------------------------
INTERNAL COORDINATES (A.U.)
---------------------------
 N      0   0   0     0.000000000000     0.00000000     0.00000000
 H      1   0   0     1.973670183010     0.00000000     0.00000000
 H      1   2   0     1.973655560494   109.47151208     0.00000000
 H      1   2   3     1.973672070074   109.47063284   239.99931442
 H      1   2   3     1.973677578272   109.47095548   119.99973524

---------------------
BASIS SET INFORMATION
---------------------
There are 2 groups of distinct atoms

 Group   1 Type N   : 11s6p2d1f contracted to 5s3p2d1f pattern {62111/411/11/1}
 Group   2 Type H   : 5s1p contracted to 3s1p pattern {311/1}

Atom   0N    basis set group =>   1
Atom   1H    basis set group =>   2
Atom   2H    basis set group =>   2
Atom   3H    basis set group =>   2
Atom   4H    basis set group =>   2

-------------------------
BASIS SET IN INPUT FORMAT
-------------------------

 # Basis set for element : H 
 NewGTO H 
 S 3 
   1      34.0613410000      0.0254393072
   2       5.1235746000      0.1900859489
   3       1.1646626000      0.8524411301
 S 1 
   1       0.3272304100      1.0000000000
 S 1 
   1       0.1030724100      1.0000000000
 P 1 
   1       0.8000000000      1.0000000000
  end;

 # Basis set for element : N 
 NewGTO N 
 S 6 
   1   19730.8006470000      0.0005862639
   2    2957.8958745000      0.0045428821
   3     673.2213359500      0.0235584136
   4     190.6824949400      0.0947091933
   5      62.2954418980      0.2971978492
   6      22.6541611820      0.6691624689
 S 2 
   1       8.9791477428      0.6459668363
   2       3.6863002370      0.3870057440
 S 1 
   1       0.8466007680      1.0000000000
 S 1 
   1       0.3364713377      1.0000000000
 S 1 
   1       0.1364765367      1.0000000000
 P 4 
   1      49.2003805100      0.0114488252
   2      11.3467905370      0.0784223379
   3       3.4273972411      0.3081809474
   4       1.1785525134      0.7202719637
 P 1 
   1       0.4164220497      1.0000000000
 P 1 
   1       0.1426082601      1.0000000000
 D 1 
   1       1.6540000000      1.0000000000
 D 1 
   1       0.4690000000      1.0000000000
 F 1 
   1       1.0930000000      1.0000000000
  end;

---------------------------------
AUXILIARY/J BASIS SET INFORMATION
---------------------------------
There are 2 groups of distinct atoms

 Group   1 Type N   : 12s5p4d2f1g contracted to 6s4p3d1f1g pattern {711111/2111/211/2/1}
 Group   2 Type H   : 5s2p1d contracted to 3s1p1d pattern {311/2/1}

Atom   0N    basis set group =>   1
Atom   1H    basis set group =>   2
Atom   2H    basis set group =>   2
Atom   3H    basis set group =>   2
Atom   4H    basis set group =>   2

-------------------------------------
AUXILIARY/J BASIS SET IN INPUT FORMAT
-------------------------------------

 # Auxiliary/J basis set for element : H 
 NewAuxJGTO H 
 S 3 
   1      15.6752927000      0.1007184237
   2       3.6063578000      0.3404257499
   3       1.2080016000      0.6491996172
 S 1 
   1       0.4726794000      1.0000000000
 S 1 
   1       0.2018100000      1.0000000000
 P 2 
   1       2.0281365000      0.5596620919
   2       0.5358730000      0.5596620919
 D 1 
   1       2.2165124000      1.0000000000
  end;

 # Auxiliary/J basis set for element : N 
 NewAuxJGTO N 
 S 7 
   1    2542.9401785000      0.0128431329
   2    1029.5472946000      0.0206655120
   3     424.9053546000      0.0652200677
   4     178.4573708000      0.1617388940
   5      76.1362742000      0.3094256941
   6      32.9338653000      0.3918849307
   7      14.4155436000      0.1822470660
 S 1 
   1       6.3718891000     -1.0000000000
 S 1 
   1       2.8381742000      1.0000000000
 S 1 
   1       1.2711793000      1.0000000000
 S 1 
   1       0.5712407000      1.0000000000
 S 1 
   1       0.2569887000      1.0000000000
 P 2 
   1      17.8975990000     -1.0974070137
   2       6.5346319000      0.1380055963
 P 1 
   1       2.3523645000      1.0000000000
 P 1 
   1       0.8397377000      1.0000000000
 P 1 
   1       0.2989335000      1.0000000000
 D 2 
   1       7.6909870000      0.1770780943
   2       2.3044972000      0.8918319220
 D 1 
   1       0.8403987000      1.0000000000
 D 1 
   1       0.3303797000      1.0000000000
 F 2 
   1       2.3331076000      0.6223178877
   2       0.8446137000      0.5036714203
 G 1 
   1       1.4037700000     -1.0000000000
  end;



           ************************************************************
           *        Program running with 8 parallel MPI-processes     *
           *              working on a common directory               *
           ************************************************************
------------------------------------------------------------------------------
                           ORCA GTO INTEGRAL CALCULATION
                           -- RI-GTO INTEGRALS CHOSEN --
------------------------------------------------------------------------------

                         BASIS SET STATISTICS AND STARTUP INFO

Gaussian basis set:
 # of primitive gaussian shells          ...   44
 # of primitive gaussian functions       ...   78
 # of contracted shells                  ...   27
 # of contracted basis functions         ...   55
 Highest angular momentum                ...    3
 Maximum contraction depth               ...    6
Auxiliary gaussian basis set:
 # of primitive gaussian shells          ...   56
 # of primitive gaussian functions       ...  134
 # of contracted shells                  ...   35
 # of contracted aux-basis functions     ...   93
 Highest angular momentum                ...    4
 Maximum contraction depth               ...    7
Ratio of auxiliary to basis functions    ...  1.69
Integral package used                  ... LIBINT
 One Electron integrals                  ... done
 Ordering auxiliary basis shells         ... done
 Integral threshhold             Thresh  ...  2.500e-11
 Primitive cut-off               TCut    ...  2.500e-12
 Pre-screening matrix                    ... done
 Shell pair data                         ... 
 Ordering of the shell pairs             ... done (   0.000 sec) 378 of 378 pairs
 Determination of significant pairs      ... done (   0.000 sec)
 Creation of shell pair data             ... done (   0.000 sec)
 Storage of shell pair data              ... done (   0.023 sec)
 Shell pair data done in (   0.023 sec)
 Computing two index integrals           ... done
 Cholesky decomposition of the V-matrix  ... done


Timings:
 Total evaluation time                   ...   0.134 sec (  0.002 min)
 One electron matrix time                ...   0.008 sec (  0.000 min) =  6.3%
 Schwartz matrix evaluation time         ...   0.083 sec (  0.001 min) = 62.5%
 Two index repulsion integral time       ...   0.000 sec (  0.000 min) =  0.3%
 Cholesky decomposition of V             ...   0.001 sec (  0.000 min) =  0.4%
 Three index repulsion integral time     ...   0.000 sec (  0.000 min) =  0.0%



           ************************************************************
           *        Program running with 8 parallel MPI-processes     *
           *              working on a common directory               *
           ************************************************************
-------------------------------------------------------------------------------
                                 ORCA SCF
-------------------------------------------------------------------------------

------------
SCF SETTINGS
------------
Hamiltonian:
 Density Functional     Method          .... DFT(GTOs)
 Exchange Functional    Exchange        .... B88
   X-Alpha parameter    XAlpha          ....  0.666667
   Becke's b parameter  XBeta           ....  0.004200
 Correlation Functional Correlation     .... LYP
 Gradients option       PostSCFGGA      .... off
   Density functional embedding theory  .... OFF
   NL short-range parameter             ....  4.000000
 RI-approximation to the Coulomb term is turned on
   Number of auxiliary basis functions  .... 93


General Settings:
 Integral files         IntName         .... NH4+
 Hartree-Fock type      HFTyp           .... UHF
 Total Charge           Charge          ....    1
 Multiplicity           Mult            ....    1
 Number of Electrons    NEL             ....   10
 Basis Dimension        Dim             ....   55
 Nuclear Repulsion      ENuc            ....     16.0484037874 Eh

Convergence Acceleration:
 DIIS                   CNVDIIS         .... on
   Start iteration      DIISMaxIt       ....    12
   Startup error        DIISStart       ....  0.200000
   # of expansion vecs  DIISMaxEq       ....     5
   Bias factor          DIISBfac        ....   1.050
   Max. coefficient     DIISMaxC        ....  10.000
 Newton-Raphson         CNVNR           .... off
 SOSCF                  CNVSOSCF        .... off
 Level Shifting         CNVShift        .... on
   Level shift para.    LevelShift      ....    0.2500
   Turn off err/grad.   ShiftErr        ....    0.0010
 Zerner damping         CNVZerner       .... off
 Static damping         CNVDamp         .... on
   Fraction old density DampFac         ....    0.7000
   Max. Damping (<1)    DampMax         ....    0.9800
   Min. Damping (>=0)   DampMin         ....    0.0000
   Turn off err/grad.   DampErr         ....    0.1000
 Fernandez-Rico         CNVRico         .... off

SCF Procedure:
 Maximum # iterations   MaxIter         ....   125
 SCF integral mode      SCFMode         .... Direct
   Integral package                     .... LIBINT
 Reset frequency        DirectResetFreq ....    20
 Integral Threshold     Thresh          ....  2.500e-11 Eh
 Primitive CutOff       TCut            ....  2.500e-12 Eh

Convergence Tolerance:
 Convergence Check Mode ConvCheckMode   .... Total+1el-Energy
 Convergence forced     ConvForced      .... 0
 Energy Change          TolE            ....  1.000e-08 Eh
 1-El. energy change                    ....  1.000e-05 Eh
 DIIS Error             TolErr          ....  5.000e-07


Diagonalization of the overlap matrix:
Smallest eigenvalue                        ... 4.662e-03
Time for diagonalization                   ...    0.001 sec
Threshold for overlap eigenvalues          ... 1.000e-08
Number of eigenvalues below threshold      ... 0
Time for construction of square roots      ...    0.001 sec
Total time needed                          ...    0.002 sec

-------------------
DFT GRID GENERATION
-------------------

General Integration Accuracy     IntAcc      ...  4.670
Radial Grid Type                 RadialGrid  ... Gauss-Chebyshev
Angular Grid (max. acc.)         AngularGrid ... Lebedev-302
Angular grid pruning method      GridPruning ... 3 (G Style)
Weight generation scheme         WeightScheme... Becke
Basis function cutoff            BFCut       ...    1.0000e-11
Integration weight cutoff        WCut        ...    1.0000e-14
Grids for H and He will be reduced by one unit

# of grid points (after initial pruning)     ...  19788 (   0.0 sec)
# of grid points (after weights+screening)   ...  19280 (   0.0 sec)
nearest neighbour list constructed           ...    0.0 sec
Grid point re-assignment to atoms done       ...    0.0 sec
Grid point division into batches done        ...    0.1 sec
Reduced shell lists constructed in    0.1 sec

Total number of grid points                  ...    19280
Total number of batches                      ...      304
Average number of points per batch           ...       63
Average number of grid points per atom       ...     3856
Average number of shells per batch           ...    26.23 (97.15%)
Average number of basis functions per batch  ...    53.51 (97.30%)
Average number of large shells per batch     ...    26.18 (99.80%)
Average number of large basis fcns per batch ...    53.46 (99.90%)
Maximum spatial batch extension              ...   1.25,  1.34,  1.27 au
Average spatial batch extension              ...   0.10,  0.10,  0.10 au

Time for grid setup =    0.090 sec

------------------------------
INITIAL GUESS: MODEL POTENTIAL
------------------------------
Loading Hartree-Fock densities                     ... done
Calculating cut-offs                               ... done
Setting up the integral package                    ... done
Initializing the effective Hamiltonian             ... done
Starting the Coulomb interaction                   ... done (   0.0 sec)
Reading the grid                                   ... done
Mapping shells                                     ... done
Starting the XC term evaluation                    ... done (   0.0 sec)
  promolecular density results
     # of electrons  =     10.998052954
     EX              =     -7.780449555
     EC              =     -0.339612244
     EX+EC           =     -8.120061799
Transforming the Hamiltonian                       ... done (   0.0 sec)
Diagonalizing the Hamiltonian                      ... done (   0.0 sec)
Back transforming the eigenvectors                 ... done (   0.0 sec)
Now organizing SCF variables                       ... done
                      ------------------
                      INITIAL GUESS DONE (   0.2 sec)
                      ------------------

--------------------
CPCM SOLVATION MODEL
--------------------
CPCM parameters:
  Epsilon                                         ...      78.3550
  Refrac                                          ...       1.0000
  Rsolv                                           ...       1.3000
  Surface type                                    ...    GEPOL SES
  Epsilon function type                           ...         CPCM
Solvent:                                     ... WATER
SMD-CDS solvent descriptors:
  Soln                                       ...    1.3328
  Soln25                                     ...    1.3323
  Sola                                       ...    0.0000
  Solb                                       ...    0.0000
  Solg                                       ...    0.0000
  Solc                                       ...    0.0000
  Solh                                       ...    0.0000
Radii:
 Radius for N  used is    3.5716 Bohr (=   1.8900 Ang.)
 Radius for H  used is    2.2677 Bohr (=   1.2000 Ang.)
Calculating surface                               ...        done! (  0.0s)
GEPOL surface points                              ...          160
GEPOL Volume                                      ...     213.6576
GEPOL Surface-area                                ...     177.0400
Calculating surface distance matrix               ...        done! (  0.0s)
Performing Cholesky decomposition & store         ...        done! (  0.0s)
Overall time for CPCM initialization              ...                 0.0s
--------------
SCF ITERATIONS
--------------
ITER       Energy         Delta-E        Max-DP      RMS-DP      [F,P]     Damp
               ***  Starting incremental Fock matrix formation  ***
  0    -56.9950097479   0.000000000000 0.01574994  0.00077051  0.1770593 0.7000
  1    -57.0127710617  -0.017761313832 0.00850016  0.00042521  0.0681431 0.7000
                               ***Turning on DIIS***
  2    -57.0178429608  -0.005071899052 0.00801428  0.00039563  0.0103797 0.0000
  3    -57.0272479835  -0.009405022724 0.00406354  0.00023041  0.0414586 0.0000
  4    -57.0291079690  -0.001859985492 0.00105911  0.00007012  0.0104476 0.0000
  5    -57.0292353016  -0.000127332555 0.00029929  0.00002239  0.0023321 0.0000
  6    -57.0292424450  -0.000007143466 0.00015483  0.00001073  0.0005086 0.0000
  7    -57.0292428910  -0.000000445994 0.00000814  0.00000042  0.0000413 0.0000
                 **** Energy Check signals convergence ****

               *****************************************************
               *                     SUCCESS                       *
               *           SCF CONVERGED AFTER   8 CYCLES          *
               *****************************************************

Setting up the final grid:

General Integration Accuracy     IntAcc      ...  5.010
Radial Grid Type                 RadialGrid  ... Gauss-Chebyshev
Angular Grid (max. acc.)         AngularGrid ... Lebedev-434
Angular grid pruning method      GridPruning ... 3 (G Style)
Weight generation scheme         WeightScheme... Becke
Basis function cutoff            BFCut       ...    1.0000e-11
Integration weight cutoff        WCut        ...    1.0000e-14
Grids for H and He will be reduced by one unit

# of grid points (after initial pruning)     ...  37358 (   0.0 sec)
# of grid points (after weights+screening)   ...  36314 (   0.0 sec)
nearest neighbour list constructed           ...    0.0 sec
Grid point re-assignment to atoms done       ...    0.0 sec
Grid point division into batches done        ...    0.2 sec
Reduced shell lists constructed in    0.3 sec

Total number of grid points                  ...    36314
Total number of batches                      ...      570
Average number of points per batch           ...       63
Average number of grid points per atom       ...     7263
Average number of shells per batch           ...    26.58 (98.43%)
Average number of basis functions per batch  ...    54.19 (98.53%)
Average number of large shells per batch     ...    26.38 (99.28%)
Average number of large basis fcns per batch ...    54.00 (99.65%)
Maximum spatial batch extension              ...   1.15,  1.21,  1.30 au
Average spatial batch extension              ...   0.08,  0.08,  0.08 au

Final grid set up in    0.3 sec
Final integration                            ... done (   0.1 sec)
Change in XC energy                          ...    -0.000000130
Integrated number of electrons               ...     9.999999120
Previous integrated no of electrons          ...     9.999989577

SMD CDS free energy correction energy :                 2.98810     Kcal/mol
Total Energy after SMD CDS correction =               -57.024481180 Eh

----------------
TOTAL SCF ENERGY
----------------

Total Energy       :          -57.02448118 Eh           -1551.71502 eV

Components:
Nuclear Repulsion  :           16.04840379 Eh             436.69927 eV
Electronic Energy  :          -73.07288497 Eh           -1988.41429 eV
One Electron Energy:         -104.44634229 Eh           -2842.12946 eV
Two Electron Energy:           31.37345732 Eh             853.71518 eV
CPCM Dielectric    :           -0.13534263 Eh              -3.68286 eV
SMD CDS (Gcds)     :            0.00476184 Eh               0.12958 eV

Virial components:
Potential Energy   :         -113.60428674 Eh           -3091.32980 eV
Kinetic Energy     :           56.57980556 Eh            1539.61478 eV
Virial Ratio       :            2.00785926


DFT components:
N(Alpha)           :        4.999999559842 electrons
N(Beta)            :        4.999999559842 electrons
N(Total)           :        9.999999119684 electrons
E(X)               :       -7.762474967007 Eh       
E(C)               :       -0.317456752361 Eh       
E(XC)              :       -8.079931719367 Eh       
DFET-embed. en.    :        0.000000000000 Eh       
CPCM Solvation Model Properties:
Surface-charge          :           -1.00870432
Charge-correction       :            0.00116790 Eh               0.03178 eV
Free-energy (cav+disp)  :            0.00263953 Eh               0.07183 eV
Corrected G(solv)       :          -57.02067375 Eh           -1551.61142 eV

---------------
SCF CONVERGENCE
---------------

  Last Energy change         ...   -2.2751e-09  Tolerance :   1.0000e-08
  Last MAX-Density change    ...    1.4025e-07  Tolerance :   1.0000e-07
  Last RMS-Density change    ...    1.0102e-08  Tolerance :   5.0000e-09
  Last DIIS Error            ...    9.6563e-07  Tolerance :   5.0000e-07

             **** THE GBW FILE WAS UPDATED (NH4+.gbw) ****
             **** DENSITY FILE WAS UPDATED (NH4+.scfp) ****
             **** ENERGY FILE WAS UPDATED (NH4+.en.tmp) ****
----------------------
UHF SPIN CONTAMINATION
----------------------

Warning: in a DFT calculation there is little theoretical justification to 
         calculate <S**2> as in Hartree-Fock theory. We will do it anyways
         but you should keep in mind that the values have only limited relevance

Expectation value of <S**2>     :     0.000000
Ideal value S*(S+1) for S=0.0   :     0.000000
Deviation                       :     0.000000

             **** THE GBW FILE WAS UPDATED (NH4+.gbw) ****
             **** DENSITY FILE WAS UPDATED (NH4+.scfp) ****
----------------
ORBITAL ENERGIES
----------------
                 SPIN UP ORBITALS
  NO   OCC          E(Eh)            E(eV) 
   0   1.0000     -14.115370      -384.0987 
   1   1.0000      -0.884536       -24.0694 
   2   1.0000      -0.496006       -13.4970 
   3   1.0000      -0.495981       -13.4963 
   4   1.0000      -0.495970       -13.4960 
   5   0.0000      -0.015447        -0.4203 
   6   0.0000       0.065751         1.7892 
   7   0.0000       0.065773         1.7898 
   8   0.0000       0.065815         1.7909 
   9   0.0000       0.223090         6.0706 
  10   0.0000       0.223142         6.0720 
  11   0.0000       0.223222         6.0742 
  12   0.0000       0.366356         9.9691 
  13   0.0000       0.424701        11.5567 
  14   0.0000       0.424718        11.5572 
  15   0.0000       0.424747        11.5579 
  16   0.0000       0.565555        15.3895 
  17   0.0000       0.739415        20.1205 
  18   0.0000       0.739494        20.1227 
  19   0.0000       1.130785        30.7702 
  20   0.0000       1.130842        30.7718 
  21   0.0000       1.130868        30.7725 
  22   0.0000       1.453917        39.5631 
  23   0.0000       1.454025        39.5660 
  24   0.0000       1.454111        39.5684 
  25   0.0000       1.712405        46.5969 
  26   0.0000       1.712436        46.5978 
  27   0.0000       1.712483        46.5990 
  28   0.0000       1.740746        47.3681 
  29   0.0000       2.100752        57.1644 
  30   0.0000       2.100770        57.1649 
  31   0.0000       2.100800        57.1657 
  32   0.0000       2.281028        62.0699 
  33   0.0000       2.281030        62.0700 
  34   0.0000       2.281075        62.0712 
  35   0.0000       2.298719        62.5513 
  36   0.0000       2.382933        64.8429 
  37   0.0000       2.383100        64.8474 
  38   0.0000       2.872548        78.1660 
  39   0.0000       3.059716        83.2591 
  40   0.0000       3.059723        83.2593 
  41   0.0000       3.059770        83.2606 
  42   0.0000       4.222202       114.8920 
  43   0.0000       4.222226       114.8926 
  44   0.0000       4.222252       114.8933 
  45   0.0000       4.370480       118.9268 
  46   0.0000       4.370499       118.9273 
  47   0.0000       4.617527       125.6493 
  48   0.0000       4.617537       125.6496 
  49   0.0000       4.617544       125.6498 
  50   0.0000       5.089714       138.4981 
  51   0.0000       5.089725       138.4985 
  52   0.0000       5.089759       138.4994 
  53   0.0000       5.576274       151.7381 
  54   0.0000      31.078355       845.6850 

                 SPIN DOWN ORBITALS
  NO   OCC          E(Eh)            E(eV) 
   0   1.0000     -14.115370      -384.0987 
   1   1.0000      -0.884536       -24.0694 
   2   1.0000      -0.496006       -13.4970 
   3   1.0000      -0.495981       -13.4963 
   4   1.0000      -0.495970       -13.4960 
   5   0.0000      -0.015447        -0.4203 
   6   0.0000       0.065751         1.7892 
   7   0.0000       0.065773         1.7898 
   8   0.0000       0.065815         1.7909 
   9   0.0000       0.223090         6.0706 
  10   0.0000       0.223142         6.0720 
  11   0.0000       0.223222         6.0742 
  12   0.0000       0.366356         9.9691 
  13   0.0000       0.424701        11.5567 
  14   0.0000       0.424718        11.5572 
  15   0.0000       0.424747        11.5579 
  16   0.0000       0.565555        15.3895 
  17   0.0000       0.739415        20.1205 
  18   0.0000       0.739494        20.1227 
  19   0.0000       1.130785        30.7702 
  20   0.0000       1.130842        30.7718 
  21   0.0000       1.130868        30.7725 
  22   0.0000       1.453917        39.5631 
  23   0.0000       1.454025        39.5660 
  24   0.0000       1.454111        39.5684 
  25   0.0000       1.712405        46.5969 
  26   0.0000       1.712436        46.5978 
  27   0.0000       1.712483        46.5990 
  28   0.0000       1.740746        47.3681 
  29   0.0000       2.100752        57.1644 
  30   0.0000       2.100770        57.1649 
  31   0.0000       2.100800        57.1657 
  32   0.0000       2.281028        62.0699 
  33   0.0000       2.281030        62.0700 
  34   0.0000       2.281075        62.0712 
  35   0.0000       2.298719        62.5513 
  36   0.0000       2.382933        64.8429 
  37   0.0000       2.383100        64.8474 
  38   0.0000       2.872548        78.1660 
  39   0.0000       3.059716        83.2591 
  40   0.0000       3.059723        83.2593 
  41   0.0000       3.059770        83.2606 
  42   0.0000       4.222202       114.8920 
  43   0.0000       4.222226       114.8926 
  44   0.0000       4.222252       114.8933 
  45   0.0000       4.370480       118.9268 
  46   0.0000       4.370499       118.9273 
  47   0.0000       4.617527       125.6493 
  48   0.0000       4.617537       125.6496 
  49   0.0000       4.617544       125.6498 
  50   0.0000       5.089714       138.4981 
  51   0.0000       5.089725       138.4985 
  52   0.0000       5.089759       138.4994 
  53   0.0000       5.576274       151.7381 
  54   0.0000      31.078355       845.6850 
------------------
MOLECULAR ORBITALS
------------------
                      0         1         2         3         4         5   
                 -14.11537  -0.88454  -0.49601  -0.49598  -0.49597  -0.01545
                   1.00000   1.00000   1.00000   1.00000   1.00000   0.00000
                  --------  --------  --------  --------  --------  --------
  0N   1s         0.448664  0.100017  0.000002  0.000008 -0.000002 -0.055135
  0N   2s         0.625839  0.223019  0.000004  0.000019 -0.000004 -0.130696
  0N   3s         0.037846 -0.342854 -0.000009 -0.000024  0.000012  0.296098
  0N   4s        -0.025773 -0.421691  0.000002 -0.000090 -0.000010  0.119963
  0N   5s         0.019511 -0.095214 -0.000021  0.000065  0.000041  1.687855
  0N   1pz        0.000000 -0.000001  0.074922  0.062848  0.365859 -0.000009
  0N   1px        0.000000 -0.000012  0.317333  0.182794 -0.096393  0.000119
  0N   1py       -0.000000  0.000014  0.192591 -0.325649  0.016497 -0.000104
  0N   2pz       -0.000000  0.000002  0.057989  0.048623  0.283084 -0.000019
  0N   2px       -0.000000 -0.000015  0.245505  0.141459 -0.074585  0.000074
  0N   2py        0.000000  0.000014  0.148983 -0.251994  0.012782 -0.000053
  0N   3pz        0.000000 -0.000008  0.028286  0.023670  0.137818  0.000004
  0N   3px        0.000000 -0.000006  0.119539  0.068839 -0.036319  0.000190
  0N   3py       -0.000000  0.000015  0.072544 -0.122665  0.006209 -0.000207
  0N   1dz2      -0.000000 -0.000001 -0.000673 -0.008643  0.001696 -0.000001
  0N   1dxz       0.000000  0.000001 -0.000476 -0.000181 -0.006049  0.000002
  0N   1dyz      -0.000000  0.000001  0.000765  0.002179  0.008033  0.000001
  0N   1dx2y2     0.000000 -0.000000  0.009798  0.000695 -0.000995 -0.000000
  0N   1dxy       0.000000 -0.000001 -0.002854  0.005041 -0.000644 -0.000002
  0N   2dz2       0.000000  0.000010 -0.000380 -0.004805  0.000950  0.000048
  0N   2dxz      -0.000000 -0.000008 -0.000279 -0.000104 -0.003337 -0.000017
  0N   2dyz      -0.000000 -0.000006  0.000445  0.001197  0.004430 -0.000007
  0N   2dx2y2    -0.000000  0.000001  0.005399  0.000380 -0.000557 -0.000017
  0N   2dxy      -0.000000  0.000005 -0.001574  0.002775 -0.000352 -0.000005
  0N   1f0        0.000001 -0.000037 -0.000023  0.000013  0.000066 -0.000011
  0N   1f+1      -0.000053  0.003294 -0.000191  0.000111 -0.000015  0.000992
  0N   1f-1       0.000074 -0.004566 -0.000153 -0.000120  0.000028 -0.001373
  0N   1f+2       0.000012 -0.000760 -0.000009 -0.000014 -0.000081 -0.000224
  0N   1f-2      -0.000004  0.000244 -0.000023 -0.000046 -0.000241  0.000072
  0N   1f+3      -0.000068  0.004162 -0.000047 -0.000194  0.000048  0.001258
  0N   1f-3      -0.000021  0.001295  0.000094 -0.000076 -0.000017  0.000392
  1H   1s         0.000297 -0.076737  0.153620  0.087222 -0.038186 -0.040338
  1H   2s        -0.000414 -0.060958  0.179047  0.101627 -0.044483 -0.092841
  1H   3s        -0.002583 -0.003873  0.033979  0.019318 -0.008444 -0.663423
  1H   1pz        0.000019  0.000610  0.001160  0.001363  0.012982 -0.001248
  1H   1px        0.000432  0.013939 -0.021713 -0.012228  0.004786 -0.027879
  1H   1py        0.000003  0.000105  0.006405 -0.011397  0.000631 -0.000241
  2H   1s         0.000297 -0.076736 -0.137609  0.117166 -0.000781 -0.040325
  2H   2s        -0.000414 -0.060955 -0.160401  0.136503 -0.000913 -0.092885
  2H   3s        -0.002583 -0.003866 -0.030419  0.025921 -0.000198 -0.663110
  2H   1pz       -0.000020 -0.000652  0.001219  0.003332  0.012621  0.001332
  2H   1px       -0.000140 -0.004514  0.001480  0.014385 -0.003381  0.009061
  2H   1py       -0.000409 -0.013188 -0.021042  0.012315  0.000416  0.026346
  3H   1s         0.000297 -0.076727 -0.029113 -0.127957 -0.124276 -0.040312
  3H   2s        -0.000414 -0.060946 -0.033863 -0.149094 -0.144826 -0.092924
  3H   3s        -0.002583 -0.003868 -0.006431 -0.028315 -0.027476 -0.662242
  3H   1pz       -0.000352 -0.011348 -0.002446 -0.019981 -0.008884  0.022673
  3H   1px       -0.000131 -0.004220  0.009084 -0.001918 -0.011328  0.008385
  3H   1py        0.000215  0.006931  0.009720  0.002275  0.013711 -0.013852
  4H   1s         0.000297 -0.076726  0.013103 -0.076444  0.163246 -0.040306
  4H   2s        -0.000414 -0.060942  0.015218 -0.089055  0.190213 -0.092936
  4H   3s        -0.002583 -0.003860  0.002895 -0.016929  0.036086 -0.662128
  4H   1pz        0.000353  0.011391  0.000316  0.015451 -0.015735 -0.022761
  4H   1px       -0.000162 -0.005204  0.011993  0.000252  0.009627  0.010416
  4H   1py        0.000190  0.006150  0.005422 -0.004082 -0.014736 -0.012233
                      6         7         8         9        10        11   
                   0.06575   0.06577   0.06582   0.22309   0.22314   0.22322
                   0.00000   0.00000   0.00000   0.00000   0.00000   0.00000
                  --------  --------  --------  --------  --------  --------
  0N   1s         0.000028 -0.000006 -0.000004 -0.000013  0.000001  0.000009
  0N   2s         0.000066 -0.000014 -0.000011 -0.000029  0.000005  0.000020
  0N   3s        -0.000171  0.000029  0.000045  0.000013 -0.000050 -0.000030
  0N   4s        -0.000002  0.000028 -0.000077  0.000270  0.000184 -0.000163
  0N   5s        -0.000851  0.000127  0.000258  0.000123 -0.000438  0.000187
  0N   1pz        0.032613  0.053786  0.292029  0.002316  0.021395 -0.026195
  0N   1px        0.253195  0.148439 -0.055611 -0.017355  0.023240  0.017480
  0N   1py       -0.155086  0.253595 -0.029382  0.029153  0.012126  0.012503
  0N   2pz        0.021281  0.035064  0.190446 -0.013662 -0.126286  0.154310
  0N   2px        0.165133  0.096813 -0.036289  0.101982 -0.137418 -0.103435
  0N   2py       -0.101158  0.165395 -0.019179 -0.171330 -0.071720 -0.073843
  0N   3pz        0.091480  0.150724  0.820585 -0.092743 -0.856238  1.047773
  0N   3px        0.711671  0.416794 -0.156145  0.692047 -0.932521 -0.700476
  0N   3py       -0.436194  0.712677 -0.082480 -1.162808 -0.486975 -0.500573
  0N   1dz2       0.009423 -0.004107 -0.000381  0.029459 -0.003141 -0.000271
  0N   1dxz      -0.000492  0.000985  0.006980 -0.004171 -0.010633  0.016848
  0N   1dyz      -0.001389 -0.000404 -0.009620 -0.000760  0.015347 -0.023437
  0N   1dx2y2    -0.006194 -0.009601  0.001157 -0.002320  0.027825  0.017790
  0N   1dxy      -0.003676  0.005699 -0.000221 -0.017141 -0.007267 -0.005936
  0N   2dz2       0.053032 -0.023110 -0.002143 -0.117567  0.012507  0.001081
  0N   2dxz      -0.002753  0.005596  0.039325  0.016623  0.042410 -0.067114
  0N   2dyz      -0.007842 -0.002368 -0.054209  0.003020 -0.061217  0.093349
  0N   2dx2y2    -0.034894 -0.054130  0.006551  0.009239 -0.110876 -0.070934
  0N   2dxy      -0.020663  0.032102 -0.001260  0.068376  0.028963  0.023669
  0N   1f0        0.000164  0.000431 -0.001382 -0.000160 -0.000899  0.005898
  0N   1f+1      -0.000170  0.004414 -0.000028  0.009402  0.013355  0.007768
  0N   1f-1       0.003577  0.001565 -0.000166 -0.009687  0.011377  0.005720
  0N   1f+2       0.000130  0.000149  0.001620  0.000346  0.003713 -0.005539
  0N   1f-2       0.000354  0.000367  0.004865  0.001001  0.010831 -0.016794
  0N   1f+3       0.003933 -0.001048 -0.000343 -0.016258  0.003590  0.002013
  0N   1f-3       0.000390 -0.002306  0.000600 -0.005808 -0.005301 -0.005993
  1H   1s        -0.075604 -0.045605  0.012805 -0.064159  0.092140  0.062278
  1H   2s        -0.161037 -0.096886  0.027235 -0.731734  1.050125  0.710047
  1H   3s        -1.543419 -0.931151  0.261435  0.196238 -0.281029 -0.190731
  1H   1pz       -0.001293  0.000503  0.011420  0.000143 -0.021613  0.020610
  1H   1px       -0.046898 -0.028490  0.007473  0.063721 -0.090061 -0.062445
  1H   1py       -0.006317  0.009276 -0.001029 -0.024859 -0.011130 -0.011260
  2H   1s        -0.018802  0.086699 -0.009544 -0.083158 -0.075983 -0.061583
  2H   2s        -0.040241  0.184520 -0.020322 -0.948487 -0.865813 -0.702062
  2H   3s        -0.383762  1.769953 -0.195003  0.254167  0.231600  0.188378
  2H   1pz        0.001900 -0.001068  0.011331 -0.004980 -0.021263  0.020488
  2H   1px        0.014090 -0.015430  0.000224 -0.005454 -0.038928 -0.030368
  2H   1py        0.007403 -0.051676  0.005650 -0.084952 -0.065033 -0.055051
  3H   1s         0.053797 -0.011223  0.070344  0.067259 -0.069670  0.084228
  3H   2s         0.114621 -0.024170  0.149734  0.767209 -0.794420  0.960086
  3H   3s         1.097987 -0.228690  1.435572 -0.205746  0.213147 -0.257180
  3H   1pz       -0.031484  0.008808 -0.031787  0.039611 -0.061635  0.074727
  3H   1px       -0.002575  0.008096 -0.017924  0.030436 -0.036185  0.004107
  3H   1py        0.014144  0.005402  0.025031 -0.050614  0.015752 -0.042615
  4H   1s         0.040701 -0.029894 -0.073612  0.079979  0.053514 -0.084903
  4H   2s         0.086864 -0.063533 -0.156695  0.912332  0.610294 -0.967778
  4H   3s         0.830468 -0.610321 -1.502282 -0.244605 -0.163454  0.259286
  4H   1pz        0.026054 -0.016247 -0.033954 -0.051686 -0.051768  0.075356
  4H   1px       -0.001824  0.013947  0.018470  0.037699 -0.005029 -0.039243
  4H   1py        0.007514 -0.000282 -0.025279 -0.051958 -0.028437  0.017517
                     12        13        14        15        16        17   
                   0.36636   0.42470   0.42472   0.42475   0.56556   0.73941
                   0.00000   0.00000   0.00000   0.00000   0.00000   0.00000
                  --------  --------  --------  --------  --------  --------
  0N   1s         0.068624 -0.000006 -0.000026 -0.000010  0.011184  0.000003
  0N   2s         0.143754 -0.000011 -0.000056 -0.000023  0.017134  0.000007
  0N   3s         0.093964 -0.000022 -0.000025  0.000003  0.093920 -0.000019
  0N   4s        -2.637234  0.000237  0.000860  0.000239 -1.643415 -0.000021
  0N   5s         3.947390 -0.000206 -0.000723  0.000173  7.033570  0.000005
  0N   1pz       -0.000063  0.039547 -0.035040 -0.354280  0.000045 -0.000009
  0N   1px       -0.000095  0.211179 -0.284684  0.051738  0.000035 -0.000002
  0N   1py        0.000129  0.286598  0.214600  0.010769 -0.000041  0.000021
  0N   2pz       -0.000184  0.098528 -0.087375 -0.883224  0.000098  0.000030
  0N   2px       -0.000197  0.526561 -0.709613  0.128882  0.000049  0.000023
  0N   2py        0.000327  0.714562  0.534867  0.026852  0.000018 -0.000076
  0N   3pz        0.000308 -0.232721  0.206345  2.086963 -0.000268  0.000020
  0N   3px        0.000649 -1.244091  1.676842 -0.304589 -0.000166 -0.000184
  0N   3py       -0.000776 -1.688318 -1.263877 -0.063334  0.000313  0.000224
  0N   1dz2       0.000004 -0.001289 -0.004021  0.000286 -0.000003 -0.002259
  0N   1dxz      -0.000003  0.000156  0.000221 -0.002898 -0.000001 -0.000552
  0N   1dyz       0.000002  0.000097  0.000583  0.003965 -0.000001 -0.000373
  0N   1dx2y2    -0.000002 -0.004204  0.002154 -0.000153 -0.000002 -0.001191
  0N   1dxy       0.000001  0.002188  0.001735 -0.000097  0.000003 -0.003565
  0N   2dz2      -0.000005 -0.007510 -0.023364  0.001714  0.000074 -0.385094
  0N   2dxz      -0.000002  0.000907  0.001299 -0.016743  0.000059 -0.094554
  0N   2dyz       0.000011  0.000492  0.003356  0.022867  0.000031 -0.063756
  0N   2dx2y2     0.000024 -0.024283  0.012431 -0.000936  0.000061 -0.203319
  0N   2dxy      -0.000009  0.012675  0.010037 -0.000548 -0.000093 -0.608249
  0N   1f0       -0.000139 -0.000379  0.000076 -0.000906  0.000045  0.000002
  0N   1f+1       0.012280 -0.002938 -0.000400  0.000223 -0.004023 -0.000001
  0N   1f-1      -0.017026 -0.001283  0.002297 -0.000009  0.005565  0.000004
  0N   1f+2      -0.002849 -0.000017  0.000087  0.001095  0.000933 -0.000000
  0N   1f-2       0.000915  0.000006  0.000236  0.003276 -0.000299 -0.000004
  0N   1f+3       0.015530  0.000424  0.002687 -0.000287 -0.005065  0.000002
  0N   1f-3       0.004834  0.001536  0.000412  0.000276 -0.001576 -0.000002
  1H   1s         0.097524 -0.075163  0.099311 -0.012662 -0.056842  0.000007
  1H   2s         0.611092 -0.377814  0.498701 -0.063642 -1.216693  0.000091
  1H   3s        -1.033954  1.549563 -2.047523  0.260266 -0.781020  0.000091
  1H   1pz       -0.001740  0.001290 -0.001178 -0.010367  0.000874 -0.025922
  1H   1px       -0.039719  0.009299 -0.012363  0.002015  0.019873  0.002249
  1H   1py       -0.000297  0.008368  0.006250  0.000313  0.000160 -0.137467
  2H   1s         0.097529  0.119220  0.038054  0.003547 -0.056864  0.000014
  2H   2s         0.611242  0.599088  0.190824  0.017685 -1.216529  0.000024
  2H   3s        -1.033945 -2.457927 -0.784166 -0.073289 -0.781020  0.000089
  2H   1pz        0.001844  0.001357 -0.000970 -0.010377 -0.000938  0.025320
  2H   1px        0.012871  0.007734 -0.007818  0.001557 -0.006444  0.129734
  2H   1py        0.037601  0.013039  0.007700  0.000440 -0.018752 -0.045772
  3H   1s         0.097469 -0.016272 -0.077345 -0.097214 -0.056807  0.000007
  3H   2s         0.610821 -0.081782 -0.388642 -0.488617 -1.216753  0.000034
  3H   3s        -1.032364  0.335413  1.592969  2.003464 -0.781528 -0.000113
  3H   1pz        0.032342  0.000607 -0.003598 -0.013632 -0.016212  0.081196
  3H   1px        0.012034  0.005968 -0.009317  0.000273 -0.006042 -0.052318
  3H   1py       -0.019754  0.008726  0.007848  0.002314  0.009898  0.101155
  4H   1s         0.097526 -0.027846 -0.060206  0.106238 -0.056839  0.000010
  4H   2s         0.611180 -0.139877 -0.302502  0.533589 -1.216836 -0.000045
  4H   3s        -1.033213  0.573298  1.240027 -2.190115 -0.780995 -0.000112
  4H   1pz       -0.032479  0.002080  0.000967 -0.013905  0.016272 -0.080566
  4H   1px        0.014833  0.005771 -0.009232  0.003123 -0.007429 -0.079661
  4H   1py       -0.017529  0.008900  0.007385 -0.001628  0.008792  0.082009
                     18        19        20        21        22        23   
                   0.73949   1.13079   1.13084   1.13087   1.45392   1.45402
                   0.00000   0.00000   0.00000   0.00000   0.00000   0.00000
                  --------  --------  --------  --------  --------  --------
  0N   1s        -0.000001 -0.000005  0.000001 -0.000000 -0.000001  0.000000
  0N   2s        -0.000003 -0.000016  0.000004 -0.000002 -0.000005  0.000001
  0N   3s         0.000037  0.000104 -0.000046  0.000017  0.000040 -0.000013
  0N   4s        -0.000200 -0.000127  0.000085 -0.000017 -0.000054  0.000037
  0N   5s         0.000739 -0.000317  0.000077 -0.000036  0.000072  0.000035
  0N   1pz        0.000003  0.016432 -0.002435 -0.045469 -0.000042  0.000001
  0N   1px       -0.000031 -0.000396 -0.048309  0.002449 -0.000017  0.000049
  0N   1py        0.000009  0.045573  0.000519  0.016401  0.000003  0.000034
  0N   2pz        0.000055  0.324082 -0.048540 -0.896701  0.000002 -0.000075
  0N   2px       -0.000027 -0.007387 -0.953504  0.048951 -0.000083 -0.000081
  0N   2py       -0.000042  0.898092  0.009575  0.324046 -0.000108 -0.000062
  0N   3pz       -0.000010  0.396293 -0.059391 -1.096682 -0.000068  0.000122
  0N   3px        0.000063 -0.009005 -1.165960  0.059938  0.000092  0.000117
  0N   3py       -0.000091  1.098061  0.011692  0.396267  0.000097  0.000078
  0N   1dz2      -0.000091 -0.001673 -0.001278 -0.000511 -0.000003 -0.000001
  0N   1dxz      -0.003535  0.000582  0.000189 -0.001361 -0.000008 -0.000003
  0N   1dyz      -0.002553 -0.000432  0.000022  0.001998  0.000004  0.000006
  0N   1dx2y2     0.000255 -0.001077  0.002153 -0.000222  0.000002  0.000000
  0N   1dxy       0.000790  0.001373  0.000062  0.000398  0.000002  0.000002
  0N   2dz2      -0.015098  1.074631  0.826155  0.331645 -0.000029 -0.000010
  0N   2dxz      -0.602952 -0.373337 -0.118516  0.875186  0.000044  0.000079
  0N   2dyz      -0.434740  0.275551 -0.013019 -1.290966 -0.000021 -0.000114
  0N   2dx2y2     0.042720  0.692857 -1.389626  0.141879 -0.000268 -0.000008
  0N   2dxy       0.134539 -0.882748 -0.038832 -0.258025  0.000146 -0.000006
  0N   1f0        0.000003  0.000484  0.007289 -0.018095  0.001054 -0.008675
  0N   1f+1       0.000006 -0.051494  0.027403 -0.009388  0.002793  0.001002
  0N   1f-1       0.000000  0.004534  0.051689  0.006162  0.002043  0.000731
  0N   1f+2      -0.000005 -0.006097 -0.000470  0.020934 -0.000535 -0.000071
  0N   1f-2      -0.000005 -0.017605 -0.002356  0.062891 -0.000603 -0.002464
  0N   1f+3      -0.000004  0.037282  0.038810  0.009990 -0.002495 -0.000067
  0N   1f-3      -0.000001  0.026834 -0.011876  0.013416  0.007924  0.000400
  1H   1s         0.000017  0.002722 -0.182611  0.002279  0.000019 -0.000024
  1H   2s        -0.000094 -0.039572  2.679183 -0.033448  0.000193 -0.000013
  1H   3s        -0.000145  0.005090 -0.345850  0.004270 -0.000149 -0.000079
  1H   1pz       -0.137275 -0.019636 -0.015406  0.055224 -0.063001  0.403625
  1H   1px        0.005856  0.006640 -0.358869  0.002217  0.007834 -0.017405
  1H   1py        0.026020 -0.055101 -0.003881 -0.019859 -0.632501 -0.056725
  2H   1s         0.000023 -0.164760  0.057783 -0.053482  0.000042  0.000047
  2H   2s        -0.000263  2.417949 -0.847996  0.784947 -0.000338 -0.000061
  2H   3s        -0.000081 -0.312128  0.109389 -0.101304  0.000195  0.000086
  2H   1pz        0.137364 -0.002100 -0.003240  0.060797 -0.025265  0.322715
  2H   1px       -0.026099  0.122574  0.015673  0.036644 -0.599171 -0.054514
  2H   1py        0.002051  0.301215 -0.125570  0.095780  0.206649  0.002522
  3H   1s        -0.000025  0.035354  0.063501  0.167540 -0.000042 -0.000011
  3H   2s        -0.000014 -0.518579 -0.931719 -2.458337  0.000002 -0.000113
  3H   3s        -0.000083  0.067067  0.120263  0.317304 -0.000079  0.000093
  3H   1pz       -0.004503 -0.085686 -0.115256 -0.256873  0.043228 -0.362418
  3H   1px        0.122647 -0.023920  0.014622 -0.118674  0.261798  0.370719
  3H   1py        0.067029 -0.014901  0.071540  0.170611  0.229759 -0.368291
  4H   1s        -0.000042  0.126695  0.061292 -0.116302  0.000042  0.000017
  4H   2s        -0.000145 -1.859428 -0.899623  1.706875  0.000062  0.000080
  4H   3s        -0.000005  0.240119  0.116195 -0.220264  0.000009 -0.000100
  4H   1pz        0.004434  0.216959  0.117555 -0.162345  0.045007 -0.364175
  4H   1px       -0.102422 -0.107722  0.006151  0.096345  0.329278 -0.298938
  4H   1py       -0.095134  0.072529  0.061149 -0.137012  0.195801  0.422423
                     24        25        26        27        28        29   
                   1.45411   1.71241   1.71244   1.71248   1.74075   2.10075
                   0.00000   0.00000   0.00000   0.00000   0.00000   0.00000
                  --------  --------  --------  --------  --------  --------
  0N   1s         0.000017 -0.000059  0.000047  0.000024  0.094597 -0.000010
  0N   2s         0.000050 -0.000188  0.000151  0.000080  0.304512 -0.000034
  0N   3s        -0.000391  0.001588 -0.001290 -0.000710 -2.608513  0.000220
  0N   4s         0.000788 -0.003300  0.002682  0.001546  5.486415 -0.000274
  0N   5s        -0.000112  0.000656 -0.000632 -0.000439 -1.266762  0.000377
  0N   1pz       -0.000000 -0.002599 -0.222985  0.724913 -0.000061  0.330734
  0N   1px        0.000012  0.149490 -0.710812 -0.218078  0.000463 -0.323736
  0N   1py       -0.000010 -0.743467 -0.142228 -0.046437 -0.000370  0.448849
  0N   2pz        0.000007  0.006331  0.548041 -1.781852  0.000112 -0.603760
  0N   2px        0.000024 -0.367427  1.747298  0.535995 -0.001139  0.591040
  0N   2py       -0.000016  1.827559  0.349694  0.114166  0.000853 -0.819567
  0N   3pz        0.000017 -0.004086 -0.354217  1.151952 -0.000096  0.134665
  0N   3px        0.000038  0.237691 -1.129642 -0.346511  0.000761 -0.131853
  0N   3py       -0.000033 -1.181578 -0.225970 -0.073701 -0.000561  0.182633
  0N   1dz2      -0.000002 -0.013872  0.006004  0.001927 -0.000016 -0.039929
  0N   1dxz      -0.000002  0.000983  0.001438 -0.010331  0.000003  0.020094
  0N   1dyz       0.000000  0.001753 -0.003256  0.013938 -0.000001 -0.019032
  0N   1dx2y2     0.000001 -0.004357 -0.016185 -0.003014  0.000005  0.004365
  0N   1dxy       0.000003  0.009896  0.001727 -0.000073  0.000006  0.022690
  0N   2dz2      -0.000070  0.574301 -0.248509 -0.079703  0.000552  0.538624
  0N   2dxz       0.000002 -0.040804 -0.059580  0.427450 -0.000131 -0.270962
  0N   2dyz      -0.000023 -0.072479  0.134983 -0.576754  0.000021  0.256754
  0N   2dx2y2     0.000033  0.180318  0.669812  0.124935 -0.000211 -0.058908
  0N   2dxy       0.000002 -0.409991 -0.071427  0.002789 -0.000157 -0.306236
  0N   1f0       -0.000711 -0.004373 -0.004353 -0.021403  0.001199 -0.016292
  0N   1f+1      -0.000476 -0.051271 -0.043798 -0.001667 -0.106343  0.050076
  0N   1f-1       0.000693  0.019154 -0.055712 -0.008829  0.147440 -0.049909
  0N   1f+2      -0.008616  0.001070 -0.005284  0.024321  0.024629  0.020290
  0N   1f-2       0.002704  0.003802 -0.014671  0.073072 -0.007897  0.060664
  0N   1f+3      -0.000538  0.052244 -0.032550 -0.011384 -0.134391 -0.086888
  0N   1f-3      -0.000461  0.030457  0.018569  0.009270 -0.041830 -0.023979
  1H   1s         0.000094 -0.070235  0.352329  0.091075  0.450215  0.287737
  1H   2s        -0.000344  0.321653 -1.614940 -0.417247 -1.657578 -0.403524
  1H   3s         0.000085 -0.263885  1.326669  0.342674  0.526849  0.314007
  1H   1pz       -0.486493  0.001132  0.144481 -0.460462  0.013690  0.317432
  1H   1px        0.021279 -0.107392  0.513328  0.154533  0.306226 -0.063651
  1H   1py        0.035121  0.472831  0.090853  0.029503  0.002675  0.418655
  2H   1s         0.000114 -0.319731 -0.183032 -0.039164  0.450365  0.315834
  2H   2s        -0.000298  1.465451  0.839186  0.179267 -1.658215 -0.442861
  2H   3s         0.000074 -1.203675 -0.689906 -0.147459  0.527359  0.344456
  2H   1pz        0.546467  0.004207  0.143259 -0.460795 -0.014522  0.294751
  2H   1px       -0.006894 -0.077219  0.462381  0.140871 -0.099709 -0.384799
  2H   1py       -0.025024  0.525517  0.120404  0.035866 -0.289760  0.170818
  3H   1s         0.000072  0.201142 -0.158618  0.267252  0.450547 -0.048629
  3H   2s        -0.000170 -0.922259  0.727134 -1.225107 -1.659201  0.068292
  3H   3s         0.000060  0.758411 -0.597922  1.006475  0.528188 -0.053140
  3H   1pz       -0.059116 -0.026639  0.163995 -0.498865 -0.249619  0.339610
  3H   1px       -0.401952 -0.105627  0.460451  0.124681 -0.092892 -0.288232
  3H   1py       -0.340761  0.490185  0.076778  0.052549  0.152832  0.396748
  4H   1s         0.000088  0.187782 -0.009871 -0.318749  0.450606 -0.554896
  4H   2s        -0.000182 -0.860806  0.045479  1.461361 -1.659431  0.777922
  4H   3s         0.000048  0.707937 -0.037822 -1.201071  0.528389 -0.605517
  4H   1pz       -0.000901  0.028077  0.140462 -0.506114  0.250666 -0.066241
  4H   1px        0.387576 -0.107188  0.452724  0.159244 -0.114930 -0.129808
  4H   1py        0.330658  0.487252  0.089802  0.005156  0.135221  0.215619
                     30        31        32        33        34        35   
                   2.10077   2.10080   2.28103   2.28103   2.28108   2.29872
                   0.00000   0.00000   0.00000   0.00000   0.00000   0.00000
                  --------  --------  --------  --------  --------  --------
  0N   1s         0.000000  0.000002 -0.000070 -0.000033 -0.000032 -0.094496
  0N   2s         0.000000  0.000006 -0.000239 -0.000110 -0.000109 -0.321615
  0N   3s         0.000013 -0.000065  0.001779  0.000790  0.000809  2.414667
  0N   4s        -0.000064  0.000140 -0.002670 -0.001099 -0.001193 -3.638023
  0N   5s         0.000002 -0.000143  0.004070  0.001827  0.001794  5.446467
  0N   1pz        0.207041  0.513117  0.063537  0.011315 -0.623488  0.000139
  0N   1px       -0.412447  0.375069  0.589592  0.203094  0.063761 -0.000508
  0N   1py       -0.450054 -0.107657  0.203170 -0.592946  0.009976 -0.000017
  0N   2pz       -0.378036 -0.936807  0.079589  0.014185 -0.781681  0.000257
  0N   2px        0.753003 -0.684736  0.739142  0.254551  0.079906 -0.000711
  0N   2py        0.821625  0.196611  0.254741 -0.743222  0.012432  0.000153
  0N   3pz        0.084203  0.208854  0.063048  0.011269 -0.618844  0.000152
  0N   3px       -0.167786  0.152610  0.585243  0.201510  0.063278 -0.000556
  0N   3py       -0.183097 -0.043866  0.201669 -0.588474  0.009896 -0.000003
  0N   1dz2       0.008764  0.021724  0.011225  0.037463  0.002140 -0.000025
  0N   1dxz       0.012298  0.021382 -0.001195 -0.002497 -0.026774  0.000010
  0N   1dyz      -0.019249 -0.034432 -0.000632 -0.004905  0.036728 -0.000013
  0N   1dx2y2     0.043538 -0.027579 -0.043417  0.005482  0.000540  0.000026
  0N   1dxy      -0.019989 -0.004247  0.007663 -0.024644 -0.001227  0.000013
  0N   2dz2      -0.118155 -0.293209 -0.139949 -0.467604 -0.026696  0.000322
  0N   2dxz      -0.166003 -0.288610  0.015039  0.031288  0.334275 -0.000240
  0N   2dyz       0.259740  0.464467  0.007937  0.061340 -0.458491  0.000069
  0N   2dx2y2    -0.587461  0.372237  0.542144 -0.068361 -0.006743 -0.000326
  0N   2dxy       0.269741  0.057277 -0.095324  0.307815  0.015281  0.000145
  0N   1f0       -0.026896 -0.017591 -0.027494  0.010362 -0.061833  0.001419
  0N   1f+1      -0.092622  0.028436 -0.152632  0.138532  0.022401 -0.122510
  0N   1f-1      -0.047697  0.067380 -0.163937 -0.081605  0.006113  0.170048
  0N   1f+2       0.016523  0.030622 -0.000895 -0.004085  0.076444  0.028355
  0N   1f-2       0.051428  0.090765  0.001173 -0.013437  0.228970 -0.009168
  0N   1f+3       0.003781  0.051464 -0.082672 -0.172718 -0.016165 -0.154825
  0N   1f-3       0.054508  0.000150  0.073392 -0.084666  0.016113 -0.048258
  1H   1s         0.383342 -0.373910  0.564605  0.188980  0.034597  0.517747
  1H   2s        -0.537383  0.524075 -2.113539 -0.707422 -0.129381 -1.074599
  1H   3s         0.418177 -0.407842  0.193915  0.064897  0.011682 -0.516223
  1H   1pz        0.206365  0.462860  0.051595  0.017745  0.036612  0.006698
  1H   1px       -0.067463  0.040556  1.214033  0.406043  0.072738  0.150513
  1H   1py       -0.415257 -0.102349 -0.001002  0.034930  0.000116  0.001076
  2H   1s        -0.517755  0.041542 -0.366516  0.469722 -0.000341  0.518384
  2H   2s         0.725885 -0.058076  1.373313 -1.758647  0.001752 -1.076967
  2H   3s        -0.564849  0.045247 -0.126723  0.161526 -0.000324 -0.516044
  2H   1pz        0.212476  0.474711  0.035000 -0.049600  0.033354 -0.007275
  2H   1px       -0.244700  0.337113  0.231330 -0.346896 -0.003001 -0.049058
  2H   1py       -0.014798 -0.132205  0.755176 -0.948816  0.000629 -0.143676
  3H   1s         0.252466  0.550857 -0.121895 -0.346990  0.468921  0.518303
  3H   2s        -0.353828 -0.772286  0.457062  1.299407 -1.755664 -1.076663
  3H   3s         0.275349  0.601055 -0.042486 -0.119727  0.161289 -0.516033
  3H   1pz        0.023111  0.107102  0.216488  0.623436 -0.809507 -0.123516
  3H   1px       -0.445788  0.211331  0.049919  0.220557 -0.315873 -0.045854
  3H   1py       -0.314501  0.125554 -0.144895 -0.349305  0.514188  0.075441
  4H   1s        -0.118066 -0.218547 -0.074601 -0.311163 -0.502522  0.518564
  4H   2s         0.165407  0.306343  0.279849  1.165250  1.881899 -1.077768
  4H   3s        -0.128689 -0.238396 -0.026225 -0.107426 -0.173340 -0.515893
  4H   1pz        0.112850  0.329361 -0.138648 -0.562387 -0.873794  0.124480
  4H   1px       -0.346617  0.415531  0.030117  0.245819  0.411156 -0.056860
  4H   1py       -0.460580 -0.178996 -0.083555 -0.270832 -0.489083  0.067150
                     36        37        38        39        40        41   
                   2.38293   2.38310   2.87255   3.05972   3.05972   3.05977
                   0.00000   0.00000   0.00000   0.00000   0.00000   0.00000
                  --------  --------  --------  --------  --------  --------
  0N   1s         0.000008 -0.000008  0.029140 -0.000001  0.000002 -0.000002
  0N   2s         0.000028 -0.000028  0.048198 -0.000006  0.000007 -0.000004
  0N   3s        -0.000205  0.000184  1.470295  0.000128 -0.000124 -0.000159
  0N   4s         0.000260 -0.000202 -6.561887 -0.000366  0.000303  0.000704
  0N   5s        -0.000571  0.000468 -0.159740  0.000097 -0.000108  0.000015
  0N   1pz        0.000005  0.000060 -0.000050  0.000721 -0.346724 -0.474112
  0N   1px       -0.000142 -0.000040  0.000039 -0.472598 -0.281854  0.205432
  0N   1py        0.000026 -0.000058  0.000007  0.348771 -0.381213  0.279304
  0N   2pz       -0.000045 -0.000162  0.000354 -0.004378  2.120941  2.900094
  0N   2px       -0.000369 -0.000077 -0.000218  2.890933  1.724064 -1.256576
  0N   2py        0.000142  0.000141 -0.000035 -2.133467  2.331935 -1.708604
  0N   3pz       -0.000041  0.000007  0.000010 -0.000044  0.035551  0.048596
  0N   3px       -0.000191 -0.000068 -0.000023  0.048442  0.028895 -0.021066
  0N   3py        0.000043 -0.000096 -0.000028 -0.035722  0.039079 -0.028667
  0N   1dz2       0.023330  0.003181  0.000003  0.186832 -0.049120  0.034240
  0N   1dxz       0.002220  0.037250  0.000012 -0.023568  0.072092  0.111456
  0N   1dyz       0.001332  0.026845 -0.000016 -0.008470 -0.088371 -0.162966
  0N   1dx2y2     0.012630 -0.001415  0.000005 -0.099904 -0.170636  0.094594
  0N   1dxy       0.037818 -0.004626  0.000001 -0.080327  0.086187 -0.053519
  0N   2dz2       0.702027  0.095360  0.000063 -1.352514  0.355573 -0.247901
  0N   2dxz       0.066562  1.119520 -0.000095  0.170520 -0.521781 -0.806750
  0N   2dyz       0.040042  0.806604  0.000175  0.061262  0.639884  1.179814
  0N   2dx2y2     0.379326 -0.042454 -0.000056  0.723357  1.235303 -0.684817
  0N   2dxy       1.136412 -0.138750 -0.000004  0.581603 -0.623970  0.387482
  0N   1f0        0.000003 -0.000001 -0.000830  0.011731 -0.008300 -0.068085
  0N   1f+1       0.000050 -0.000025  0.073412 -0.030013  0.187003 -0.092404
  0N   1f-1       0.000022  0.000042 -0.101759  0.161911  0.086414 -0.032568
  0N   1f+2      -0.000004  0.000000 -0.016986 -0.001777  0.039840  0.066822
  0N   1f-2       0.000014  0.000007  0.005470 -0.006576  0.115932  0.202194
  0N   1f+3       0.000059  0.000010  0.092776  0.192893 -0.026693  0.014094
  0N   1f-3      -0.000008 -0.000003  0.028876  0.027442 -0.083749  0.074060
  1H   1s        -0.000250 -0.000032  0.030875 -0.591942 -0.378385  0.235314
  1H   2s         0.000976  0.000128  1.944327 -2.102645 -1.343794  0.835546
  1H   3s        -0.000062 -0.000088 -0.222038  0.416695  0.266291 -0.165595
  1H   1pz       -0.069491 -0.765118 -0.055187  0.068996 -0.158568 -0.303986
  1H   1px        0.008814  0.033185 -1.248334  1.276366  0.827580 -0.496953
  1H   1py       -0.765824  0.069836 -0.010045  0.216003 -0.214482  0.158039
  2H   1s        -0.000016 -0.000026  0.030839 -0.222577  0.590240 -0.388630
  2H   2s         0.000143 -0.000032  1.944109 -0.790627  2.096308 -1.380599
  2H   3s         0.000058 -0.000177 -0.222008  0.156694 -0.415402  0.273557
  2H   1pz        0.066201  0.765448  0.058991 -0.027195 -0.129192 -0.324875
  2H   1px        0.723803 -0.074375  0.404839 -0.465053  0.337381 -0.210629
  2H   1py       -0.251478 -0.012819  1.180602 -0.348485  1.241250 -0.800921
  3H   1s        -0.000011  0.000125  0.030868  0.397734  0.224173  0.583492
  3H   2s        -0.000205 -0.000355  1.944387  1.412896  0.796288  2.072316
  3H   3s         0.000070  0.000075 -0.222044 -0.280005 -0.157789 -0.410679
  3H   1pz        0.446590  0.017980  1.016785  0.849940  0.276415  0.969357
  3H   1px       -0.351078  0.643724  0.377071  0.039159  0.013055  0.581969
  3H   1py        0.518490  0.420441 -0.620941 -0.315260 -0.514867 -0.597946
  4H   1s        -0.000082  0.000166  0.030693  0.416809 -0.436039 -0.430156
  4H   2s        -0.000114 -0.000302  1.943963  1.480636 -1.549004 -1.528126
  4H   3s         0.000065  0.000041 -0.221981 -0.293461  0.306984  0.302822
  4H   1pz       -0.443200 -0.018145 -1.020444 -0.893243  0.732544  0.645612
  4H   1px       -0.382030 -0.602602  0.466371  0.132616 -0.591804 -0.301638
  4H   1py        0.499092 -0.477521 -0.549616 -0.277784  0.281062  0.659813
                     42        43        44        45        46        47   
                   4.22220   4.22223   4.22225   4.37048   4.37050   4.61753
                   0.00000   0.00000   0.00000   0.00000   0.00000   0.00000
                  --------  --------  --------  --------  --------  --------
  0N   1s         0.000000  0.000000  0.000000  0.000000  0.000000  0.000000
  0N   2s         0.000001  0.000001 -0.000000  0.000000  0.000000  0.000000
  0N   3s        -0.000005 -0.000000  0.000008 -0.000007 -0.000001  0.000002
  0N   4s        -0.000002 -0.000006 -0.000036  0.000024 -0.000014  0.000009
  0N   5s        -0.000036 -0.000009 -0.000032 -0.000001  0.000037 -0.000042
  0N   1pz        0.000006  0.000013  0.000003 -0.000005 -0.000003  0.021342
  0N   1px        0.000011 -0.000001 -0.000005  0.000006  0.000005 -0.022913
  0N   1py        0.000018 -0.000001 -0.000001  0.000003  0.000008  0.043304
  0N   2pz       -0.000036 -0.000062 -0.000035  0.000027  0.000012 -0.385927
  0N   2px       -0.000033  0.000005  0.000033  0.000030 -0.000018  0.414020
  0N   2py       -0.000108 -0.000007 -0.000015 -0.000036  0.000005 -0.782854
  0N   3pz        0.000003  0.000002 -0.000005  0.000004 -0.000005  0.146555
  0N   3px        0.000024  0.000002 -0.000007 -0.000010 -0.000001 -0.157184
  0N   3py        0.000014  0.000001  0.000003  0.000012  0.000008  0.297214
  0N   1dz2      -0.000007 -0.000010  0.000000  0.593133 -0.166982 -0.959845
  0N   1dxz      -0.000059 -0.000003  0.000048  0.440986  0.870474  0.371901
  0N   1dyz      -0.000043  0.000019  0.000027  0.311317  0.629862 -0.302582
  0N   1dx2y2     0.000004 -0.000001  0.000005  0.288184 -0.165239 -0.022035
  0N   1dxy       0.000040  0.000007  0.000032  0.858977 -0.504429  0.588912
  0N   2dz2      -0.000022 -0.000000 -0.000023 -0.500845  0.141013  0.354053
  0N   2dxz       0.000061  0.000017 -0.000016 -0.372362 -0.735025 -0.137209
  0N   2dyz       0.000017 -0.000028 -0.000023 -0.262847 -0.531835  0.111669
  0N   2dx2y2    -0.000025 -0.000008 -0.000000 -0.243321  0.139527  0.008160
  0N   2dxy      -0.000020 -0.000002 -0.000008 -0.725279  0.425915 -0.217228
  0N   1f0       -0.080918  1.088034  0.111614  0.000001 -0.000003  0.002208
  0N   1f+1      -0.353475 -0.109872  0.060298  0.000002 -0.000031 -0.013178
  0N   1f-1      -0.260152 -0.077190 -0.080933 -0.000003  0.000003  0.009650
  0N   1f+2       0.083325 -0.015093  1.075574 -0.000053 -0.000039 -0.003247
  0N   1f-2       0.083930  0.311644 -0.333540 -0.000018 -0.000025 -0.009579
  0N   1f+3       0.313292 -0.007080  0.058897 -0.000007  0.000043  0.018854
  0N   1f-3      -0.993975 -0.006481  0.071221 -0.000016 -0.000067  0.006863
  1H   1s        -0.000004  0.000011 -0.000015  0.000006  0.000016 -0.032179
  1H   2s         0.000033 -0.000008  0.000011 -0.000040  0.000009 -0.177696
  1H   3s        -0.000021  0.000004  0.000009  0.000016 -0.000007  0.114129
  1H   1pz       -0.028881  0.231758 -0.266348  0.113532  0.207777  0.063100
  1H   1px        0.004112 -0.010112  0.011579 -0.006661 -0.008265  0.259222
  1H   1py       -0.353323 -0.016003  0.024538  0.207903 -0.113720  0.102513
  2H   1s        -0.000012 -0.000005 -0.000016 -0.000013  0.000003 -0.051409
  2H   2s        -0.000063  0.000006  0.000029 -0.000017 -0.000002 -0.284014
  2H   3s         0.000035 -0.000001 -0.000003  0.000006  0.000003  0.182410
  2H   1pz       -0.001323  0.174426  0.308277 -0.112598 -0.208225  0.025725
  2H   1px       -0.335136 -0.015141  0.000873 -0.195465  0.109788 -0.214660
  2H   1py        0.114937 -0.003533 -0.015713  0.072639 -0.027221 -0.371872
  3H   1s        -0.000001 -0.000008 -0.000014  0.000028  0.000008  0.016505
  3H   2s         0.000012 -0.000029  0.000025  0.000020 -0.000010  0.091048
  3H   3s         0.000006  0.000011 -0.000005 -0.000006 -0.000009 -0.058438
  3H   1pz        0.014395 -0.202248 -0.037139 -0.128458  0.049714  0.179505
  3H   1px        0.151951  0.204256 -0.222443  0.020258 -0.225025 -0.004597
  3H   1py        0.115809 -0.207139 -0.195878 -0.198088 -0.055219  0.020501
  4H   1s         0.000010  0.000010  0.000001 -0.000013 -0.000034  0.067053
  4H   2s         0.000070  0.000046  0.000069 -0.000001 -0.000010  0.370716
  4H   3s        -0.000010 -0.000012 -0.000010 -0.000008 -0.000004 -0.238087
  4H   1pz        0.015783 -0.203927 -0.004798  0.127550 -0.049232 -0.483062
  4H   1px        0.179077 -0.179010  0.210004  0.181892  0.123479  0.190424
  4H   1py        0.122569  0.226663  0.187026 -0.082477  0.196190 -0.186768
                     48        49        50        51        52        53   
                   4.61754   4.61754   5.08971   5.08972   5.08976   5.57627
                   0.00000   0.00000   0.00000   0.00000   0.00000   0.00000
                  --------  --------  --------  --------  --------  --------
  0N   1s         0.000000 -0.000000  0.000001  0.000001  0.000001 -0.011344
  0N   2s        -0.000001 -0.000000  0.000003  0.000005  0.000004 -0.066319
  0N   3s         0.000008 -0.000006 -0.000026 -0.000118 -0.000075  2.093504
  0N   4s        -0.000004  0.000039  0.000018  0.000305  0.000172 -6.223293
  0N   5s        -0.000023 -0.000026 -0.000044 -0.000074 -0.000056  1.092411
  0N   1pz       -0.031600  0.037462 -0.363285  0.035679  0.197481  0.000021
  0N   1px        0.029686  0.038109  0.079092 -0.349905  0.208698 -0.000018
  0N   1py        0.031268  0.001673 -0.184443 -0.220308 -0.299493 -0.000023
  0N   2pz        0.571068 -0.677001  2.527107 -0.248178 -1.373743 -0.000111
  0N   2px       -0.536481 -0.688661 -0.550173  2.434064 -1.451746  0.000113
  0N   2py       -0.565233 -0.030326  1.283049  1.532594  2.083402  0.000209
  0N   3pz       -0.216801  0.257013 -0.059128  0.005822  0.032126  0.000016
  0N   3px        0.203675  0.261429  0.012877 -0.056957  0.033964 -0.000016
  0N   3py        0.214596  0.011505 -0.030076 -0.035873 -0.048758 -0.000023
  0N   1dz2      -0.152590  0.406540 -0.042032  0.005599 -0.076946  0.000000
  0N   1dxz      -0.465783  0.410667  0.055462 -0.012049 -0.020478  0.000003
  0N   1dyz       0.685349 -0.657242 -0.067718  0.015993  0.045553 -0.000005
  0N   1dx2y2    -0.808450 -0.855245 -0.012007 -0.095779  0.018044  0.000005
  0N   1dxy       0.367332  0.033583  0.029096  0.028669  0.041117 -0.000004
  0N   2dz2       0.056297 -0.149930  0.853506 -0.113107  1.560464  0.000060
  0N   2dxz       0.171753 -0.151469 -1.125605  0.244755  0.415304  0.000041
  0N   2dyz      -0.252786  0.242387  1.372742 -0.324328 -0.923585 -0.000045
  0N   2dx2y2     0.298193  0.315412  0.243864  1.942272 -0.365280  0.000122
  0N   2dxy      -0.135504 -0.012393 -0.590823 -0.581562 -0.833515 -0.000084
  0N   1f0       -0.006909  0.002238  0.233163 -0.192075 -0.134018 -0.007870
  0N   1f+1      -0.015285 -0.010950 -0.446862 -0.839008 -0.312776  0.698840
  0N   1f-1      -0.007933 -0.015974  0.115631 -0.661211  0.576898 -0.968797
  0N   1f+2       0.005627 -0.005446 -0.316817  0.066613  0.178135 -0.161763
  0N   1f-2       0.017204 -0.016019 -0.945434  0.218936  0.532988  0.051871
  0N   1f+3       0.000244 -0.009824  0.436018 -0.202981  0.792606  0.883567
  0N   1f-3       0.010088  0.002990  0.140705  0.447151  0.280903  0.274990
  1H   1s         0.042489  0.059218  0.190622 -1.084239  0.665820  0.641872
  1H   2s         0.234621  0.326969  0.301206 -1.713078  1.052032  1.023620
  1H   3s        -0.150671 -0.209965 -0.067668  0.384878 -0.236351 -0.242287
  1H   1pz       -0.091117  0.061096  0.164151  0.027023 -0.120391 -0.038213
  1H   1px       -0.343554 -0.486290 -0.212132  1.159220 -0.708936 -0.864938
  1H   1py        0.068889 -0.000745  0.085843  0.112241  0.136799 -0.006951
  2H   1s        -0.056120 -0.023398  0.513980  0.991486  0.638707  0.642034
  2H   2s        -0.310028 -0.129208  0.812107  1.566535  1.009187  1.023852
  2H   3s         0.199112  0.082968 -0.182479 -0.351950 -0.226732 -0.242358
  2H   1pz       -0.098688  0.075728  0.194180  0.026064 -0.065778  0.040894
  2H   1px       -0.108084  0.014351  0.115349  0.460240  0.091083  0.280561
  2H   1py       -0.442849 -0.210750  0.532810  0.963646  0.695348  0.818238
  3H   1s         0.048125 -0.061313  0.558241 -0.102089 -1.154643  0.641865
  3H   2s         0.265752 -0.338580  0.882021 -0.161312 -1.824356  1.023589
  3H   3s        -0.170662  0.217430 -0.198134  0.036257  0.409870 -0.242273
  3H   1pz        0.307235 -0.397855  0.588564 -0.093103 -0.955325  0.704471
  3H   1px        0.209467 -0.091645  0.117109  0.137295 -0.418343  0.261229
  3H   1py       -0.159972  0.299635 -0.167200  0.150790  0.668058 -0.430208
  4H   1s        -0.034475  0.025485 -1.262826  0.194709 -0.149970  0.641914
  4H   2s        -0.190332  0.140803 -1.995301  0.307692 -0.236923  1.023713
  4H   3s         0.122232 -0.090417  0.448299 -0.069132  0.053245 -0.242315
  4H   1pz        0.200372 -0.115718  1.118144 -0.162775  0.018939 -0.707223
  4H   1px       -0.056377  0.180347 -0.469901  0.232245 -0.150102  0.323228
  4H   1py        0.219408 -0.105017  0.596941  0.025659  0.202221 -0.380929
                     54   
                  31.07836
                   0.00000
                  --------
  0N   1s         1.387744
  0N   2s        -1.702557
  0N   3s         1.586455
  0N   4s        -1.748281
  0N   5s         1.369605
  0N   1pz        0.000001
  0N   1px       -0.000000
  0N   1py        0.000001
  0N   2pz       -0.000004
  0N   2px       -0.000000
  0N   2py       -0.000011
  0N   3pz        0.000001
  0N   3px        0.000001
  0N   3py       -0.000001
  0N   1dz2      -0.000000
  0N   1dxz      -0.000000
  0N   1dyz      -0.000000
  0N   1dx2y2    -0.000000
  0N   1dxy       0.000000
  0N   2dz2      -0.000004
  0N   2dxz       0.000002
  0N   2dyz      -0.000001
  0N   2dx2y2    -0.000003
  0N   2dxy       0.000003
  0N   1f0       -0.000157
  0N   1f+1       0.013947
  0N   1f-1      -0.019331
  0N   1f+2      -0.003228
  0N   1f-2       0.001035
  0N   1f+3       0.017629
  0N   1f-3       0.005486
  1H   1s         0.042112
  1H   2s        -0.012763
  1H   3s        -0.184693
  1H   1pz        0.000480
  1H   1px        0.010873
  1H   1py        0.000088
  2H   1s         0.042110
  2H   2s        -0.012772
  2H   3s        -0.184694
  2H   1pz       -0.000514
  2H   1px       -0.003528
  2H   1py       -0.010291
  3H   1s         0.042113
  3H   2s        -0.012760
  3H   3s        -0.184693
  3H   1pz       -0.008855
  3H   1px       -0.003283
  3H   1py        0.005408
  4H   1s         0.042114
  4H   2s        -0.012756
  4H   3s        -0.184693
  4H   1pz        0.008886
  4H   1px       -0.004061
  4H   1py        0.004786

                      0         1         2         3         4         5   
[...]
Diagonalization             ....       0.011 sec  (  0.4%)
Density matrix formation    ....       0.001 sec  (  0.0%)
Population analysis         ....       0.040 sec  (  1.5%)
Initial guess               ....       0.004 sec  (  0.1%)
Orbital Transformation      ....       0.000 sec  (  0.0%)
Orbital Orthonormalization  ....       0.002 sec  (  0.1%)
DIIS solution               ....       0.003 sec  (  0.1%)
Grid generation             ....       0.396 sec  ( 14.9%)


-------------------------------------------------------------------------------
                          DFT DISPERSION CORRECTION                            
                                                                               
                                 DFTD4 V2.0                                    
-------------------------------------------------------------------------------
The BLYP functional is recognized
Active option DFTDOPT                   ...         5   

-------------------------   ----------------
Dispersion correction           -0.000946478
-------------------------   ----------------

------------------   -----------------
gCP correction             0.003894586
------------------   -----------------

-------------------------   --------------------
FINAL SINGLE POINT ENERGY       -57.022266436489
-------------------------   --------------------

                                *** OPTIMIZATION RUN DONE ***

                            ***************************************
                            *     ORCA property calculations      *
                            ***************************************

                                    ---------------------
                                    Active property flags
                                    ---------------------
   (+) Dipole Moment


------------------------------------------------------------------------------
                       ORCA ELECTRIC PROPERTIES CALCULATION
------------------------------------------------------------------------------

Dipole Moment Calculation                       ... on
Quadrupole Moment Calculation                   ... off
Polarizability Calculation                      ... off
GBWName                                         ... NH4+.gbw
Electron density file                           ... NH4+.scfp
The origin for moment calculation is the CENTER OF MASS  = (-7.916256, -0.778740  0.222945)

-------------
DIPOLE MOMENT
-------------
                                X             Y             Z
Electronic contribution:     -0.00012       0.00025       0.00003
Nuclear contribution   :     -0.00003       0.00013      -0.00008
                        -----------------------------------------
Total Dipole Moment    :     -0.00015       0.00038      -0.00005
                        -----------------------------------------
Magnitude (a.u.)       :      0.00041
Magnitude (Debye)      :      0.00103



--------------------
Rotational spectrum 
--------------------
 
Rotational constants in cm-1:     5.930774     5.928820     5.926993 
Rotational constants in MHz : 177800.117212 177741.539139 177686.774297 

 Dipole components along the rotational axes: 
x,y,z [a.u.] :    -0.000385     0.000128    -0.000027 
x,y,z [Debye]:    -0.000978     0.000325    -0.000068 

 


           ************************************************************
           *        Program running with 8 parallel MPI-processes     *
           *              working on a common directory               *
           ************************************************************

-------------------------------------------------------------------------------
                               ORCA SCF HESSIAN
-------------------------------------------------------------------------------

Hessian of the Kohn-Sham DFT energy:
Kohn-Sham wavefunction type                      ... UKS
Hartree-Fock exchange scaling                    ...    0.000
Number of operators                              ...    2
Number of atoms                                  ...    5
Basis set dimensions                             ...   55
Integral neglect threshold                       ... 2.5e-11
Integral primitive cutoff                        ... 2.5e-12

Setting up DFT Hessian calculations              ... 
Electron density on the grid                     ... found on disk
Electron density on the final grid               ... found on disk
Building xc-kernel on the grid                   ... done   (      0.0 sec)
Building xc-kernel on the final grid             ... done   (      0.0 sec)
                                                     done   (      0.1 sec)

Nuclear repulsion Hessian                        ... done   (      0.0 sec)

----------------------------------------------
Forming right-hand sides of CP-SCF equations     ...
----------------------------------------------
One electron integral derivatives                ... done   (      0.9 sec)
Transforming the overlap derivative matrices     ... done   (      0.0 sec)
Adding tr(S(x)F(y) C-PCM term to the hessian     ... done   (      0.3 sec)
Making the Q(x) pseudodensities                  ... done   (      0.0 sec)
Adding the E*S(x)*S(y) terms to the Hessian      ... done   (      0.0 sec)
Calculating energy weighted overlap derivatives  ... done   (      0.0 sec)
Two electron integral derivatives (RI)           ... done   (      0.2 sec)
Exchange-correlation integral derivatives        ... done   (      1.4 sec)
tr(F(y)Q(x)) contribution to the Hessian         ... done   (      0.0 sec)
Response fock operator R(S(x)) (RI)              ... done   (      0.2 sec)
XC Response fock operator R(S(x))                ... done   (      0.5 sec)
tr(F(y)S(x)) contribution to the Hessian         ... done   (      0.0 sec)
Transforming and finalizing RHSs                 ... done   (      0.0 sec)

----------------------------------------------
Solving the CP-SCF equations (RI)                ...
----------------------------------------------
     CP-SCF ITERATION   0: 
     CP-SCF ITERATION   1:      0.000019007287
     CP-SCF ITERATION   2:      0.000000170932
     CP-SCF ITERATION   3:      0.000000028190
     CP-SCF ITERATION   4:      0.000000002669

                                                 ... done   (      3.4 sec)
Forming perturbed density Hessian contributions  ... done   (      0.0 sec)
Making the perturbed densities                   ... done   (      0.0 sec)
Calculating [Q*(d^2 A/dXdY)*Q  ] C-PCM term      ... done   (      0.0 sec)
Calculating [d^2(V_N)/(dXdY)*Q ] C-PCM term      ... done   (      0.0 sec)
Calculating [d^2(V_el)/(dXdY)*Q] C-PCM term      ... done   (      0.1 sec)
Calculating C-PCM term that depends on dQ/dX     ... done   (      0.0 sec)
2nd integral derivative contribs (RI)            ... done   (      0.3 sec)
Exchange-correlation Hessian                     ... done   (      1.6 sec)
Dispersion correction in the Hessian             ... 

------------------- 
Dispersion Gradient 
------------------- 
   1  :   -0.000000258    0.000000021   -0.000000007
   2  :   -0.000028015   -0.000000223   -0.000001239
   3  :    0.000009208    0.000026364    0.000001316
   4  :    0.000008597   -0.000013879    0.000022700
   5  :    0.000010595   -0.000012280   -0.000022771

  |G| =    0.000157472



------------------- 
Dispersion Gradient 
------------------- 
   1  :    0.000000228    0.000000021   -0.000000007
   2  :   -0.000027883   -0.000000219   -0.000001218
   3  :    0.000008911    0.000026511    0.000001324
   4  :    0.000008294   -0.000013951    0.000022818
   5  :    0.000010315   -0.000012359   -0.000022917

  |G| =    0.000156975



------------------- 
Dispersion Gradient 
------------------- 
   1  :   -0.000000019    0.000000007    0.000000161
   2  :   -0.000027944   -0.000000220   -0.000001253
   3  :    0.000009061    0.000026443    0.000001202
   4  :    0.000008445   -0.000013931    0.000022740
   5  :    0.000010453   -0.000012300   -0.000022855

  |G| =    0.000157036



------------------- 
Dispersion Gradient 
------------------- 
   1  :   -0.000000009    0.000000036   -0.000000175
   2  :   -0.000027955   -0.000000222   -0.000001203
   3  :    0.000009058    0.000026433    0.000001438
   4  :    0.000008447   -0.000013900    0.000022778
   5  :    0.000010457   -0.000012340   -0.000022833

  |G| =    0.000157285

done   (      0.2 sec)
gCP correction in the Hessian                    ... done   (      0.0 sec)
Dipol derivatives                                ... done   (      0.1 sec)

Total SCF Hessian time: 0 days 0 hours 0 min 9 sec 

Writing the Hessian file to the disk             ... done


Maximum memory used throughout the entire calculation: 181.6 MB

-----------------------
VIBRATIONAL FREQUENCIES
-----------------------

Scaling factor for frequencies =  1.000000000  (already applied!)

   0:         0.00 cm**-1
   1:         0.00 cm**-1
   2:         0.00 cm**-1
   3:         0.00 cm**-1
   4:         0.00 cm**-1
   5:         0.00 cm**-1
   6:      1355.22 cm**-1
   7:      1360.62 cm**-1
   8:      1362.45 cm**-1
   9:      1609.16 cm**-1
  10:      1613.61 cm**-1
  11:      3310.65 cm**-1
  12:      3408.72 cm**-1
  13:      3409.51 cm**-1
  14:      3410.55 cm**-1


------------
NORMAL MODES
------------

These modes are the Cartesian displacements weighted by the diagonal matrix
M(i,i)=1/sqrt(m[i]) where m[i] is the mass of the displaced atom
Thus, these vectors are normalized but *not* orthogonal

                  0          1          2          3          4          5    
      0       0.000000   0.000000   0.000000   0.000000   0.000000   0.000000
      1       0.000000   0.000000   0.000000   0.000000   0.000000   0.000000
      2       0.000000   0.000000   0.000000   0.000000   0.000000   0.000000
      3       0.000000   0.000000   0.000000   0.000000   0.000000   0.000000
      4       0.000000   0.000000   0.000000   0.000000   0.000000   0.000000
      5       0.000000   0.000000   0.000000   0.000000   0.000000   0.000000
      6       0.000000   0.000000   0.000000   0.000000   0.000000   0.000000
      7       0.000000   0.000000   0.000000   0.000000   0.000000   0.000000
      8       0.000000   0.000000   0.000000   0.000000   0.000000   0.000000
      9       0.000000   0.000000   0.000000   0.000000   0.000000   0.000000
     10       0.000000   0.000000   0.000000   0.000000   0.000000   0.000000
     11       0.000000   0.000000   0.000000   0.000000   0.000000   0.000000
     12       0.000000   0.000000   0.000000   0.000000   0.000000   0.000000
     13       0.000000   0.000000   0.000000   0.000000   0.000000   0.000000
     14       0.000000   0.000000   0.000000   0.000000   0.000000   0.000000
                  6          7          8          9         10         11    
      0      -0.001175  -0.094061  -0.053729   0.000121   0.000411  -0.000436
      1       0.003186  -0.053694   0.094071  -0.000085  -0.000530   0.000588
      2      -0.108290  -0.000649   0.003364  -0.000142  -0.000121  -0.000056
      3      -0.031954  -0.073677  -0.034242   0.022946  -0.003079   0.504261
      4      -0.018408   0.296162  -0.525064  -0.018032   0.502673   0.004452
      5       0.604637  -0.024337  -0.035085  -0.498161  -0.018497   0.021977
      6       0.001998   0.358432   0.444342   0.011083  -0.475958  -0.163842
      7      -0.033687  -0.187728  -0.094940  -0.029451   0.161946  -0.476502
      8       0.604038  -0.021294   0.004443   0.499685   0.022144  -0.023442
      9      -0.166649   0.523274   0.188089   0.384881   0.278582  -0.149034
     10       0.266794   0.306146  -0.336962   0.314935  -0.296976   0.246069
     11       0.140284  -0.007182  -0.332047   0.051147  -0.283985  -0.402746
     12       0.212934   0.499026   0.148415  -0.420597   0.194743  -0.185324
     13      -0.258970   0.331549  -0.350232  -0.266276  -0.360285   0.217804
     14       0.155814   0.061830   0.315940  -0.050695   0.282019   0.404994
                  12         13         14    
      0       0.066357   0.043696  -0.007954
      1       0.042512  -0.066525  -0.011695
      2       0.012918  -0.005472   0.078597
      3      -0.725296  -0.457942   0.047180
      4       0.002351  -0.016849  -0.001174
      5      -0.030794  -0.022612   0.017324
      6      -0.209183   0.181595   0.033620
      7      -0.639554   0.491871   0.097945
      8      -0.030421   0.025187   0.020201
      9      -0.018011  -0.130955  -0.224391
     10       0.059152   0.218589   0.367295
     11      -0.081464  -0.379637  -0.588147
     12       0.030398  -0.199889   0.254116
     13      -0.012692   0.230813  -0.301553
     14      -0.036832   0.453095  -0.541554


-----------
IR SPECTRUM
-----------

 Mode    freq (cm**-1)   T**2         TX         TY         TZ
-------------------------------------------------------------------
   6:      1355.22  209.472248  (  0.142571  -0.438004  14.465824)
   7:      1360.62  209.278438  ( 12.563785   7.170403   0.122740)
   8:      1362.45  210.952604  (  7.206180 -12.602858  -0.437653)
   9:      1609.16    0.000443  ( -0.006460  -0.019362   0.005114)
  10:      1613.61    0.005870  ( -0.048765   0.052301   0.027502)
  11:      3310.65    0.027362  (  0.118860  -0.114931   0.005058)
  12:      3408.72  174.784807  (-11.004050  -7.017802  -2.108589)
  13:      3409.51  174.381302  ( -7.246211  11.003516   0.892390)
  14:      3410.55  172.736551  (  1.282078   1.907599 -12.940398)

The first frequency considered to be a vibration is 6
The total number of vibrations considered is 9


--------------------------
THERMOCHEMISTRY AT 298.15K
--------------------------

Temperature         ... 298.15 K
Pressure            ... 1.00 atm
Total Mass          ... 18.04 AMU

Throughout the following assumptions are being made:
  (1) The electronic state is orbitally nondegenerate
  (2) There are no thermally accessible electronically excited states
  (3) Hindered rotations indicated by low frequency modes are not
      treated as such but are treated as vibrations and this may
      cause some error
  (4) All equations used are the standard statistical mechanics
      equations for an ideal gas
  (5) All vibrations are strictly harmonic

freq.    1355.22  E(vib)   ...       0.01 
freq.    1360.62  E(vib)   ...       0.01 
freq.    1362.45  E(vib)   ...       0.01 
freq.    1609.16  E(vib)   ...       0.00 
freq.    1613.61  E(vib)   ...       0.00 
freq.    3310.65  E(vib)   ...       0.00 
freq.    3408.72  E(vib)   ...       0.00 
freq.    3409.51  E(vib)   ...       0.00 
freq.    3410.55  E(vib)   ...       0.00 

------------
INNER ENERGY
------------

The inner energy is: U= E(el) + E(ZPE) + E(vib) + E(rot) + E(trans)
    E(el)   - is the total energy from the electronic structure calculation
              = E(kin-el) + E(nuc-el) + E(el-el) + E(nuc-nuc)
    E(ZPE)  - the the zero temperature vibrational energy from the frequency calculation
    E(vib)  - the the finite temperature correction to E(ZPE) due to population
              of excited vibrational states
    E(rot)  - is the rotational thermal energy
    E(trans)- is the translational thermal energy

Summary of contributions to the inner energy U:
Electronic energy                ...    -57.02226644 Eh
Zero point energy                ...      0.04747814 Eh      29.79 kcal/mol
Thermal vibrational correction   ...      0.00003252 Eh       0.02 kcal/mol
Thermal rotational correction    ...      0.00141627 Eh       0.89 kcal/mol
Thermal translational correction ...      0.00141627 Eh       0.89 kcal/mol
-----------------------------------------------------------------------
Total thermal energy                    -56.97192324 Eh


Summary of corrections to the electronic energy:
(perhaps to be used in another calculation)
Total thermal correction                  0.00286506 Eh       1.80 kcal/mol
Non-thermal (ZPE) correction              0.04747814 Eh      29.79 kcal/mol
-----------------------------------------------------------------------
Total correction                          0.05034320 Eh      31.59 kcal/mol


--------
ENTHALPY
--------

The enthalpy is H = U + kB*T
                kB is Boltzmann's constant
Total free energy                 ...    -56.97192324 Eh 
Thermal Enthalpy correction       ...      0.00094421 Eh       0.59 kcal/mol
-----------------------------------------------------------------------
Total Enthalpy                    ...    -56.97097903 Eh


Note: Only C1 symmetry has been detected, increase convergence thresholds 
      if your molecule has a higher symmetry. Symmetry factor of 1.0 is   
      used for the rotational entropy correction. 
 

Note: Rotational entropy computed according to Herzberg 
Infrared and Raman Spectra, Chapter V,1, Van Nostrand Reinhold, 1945 
Point Group:  C1, Symmetry Number:   1  
Rotational constants in cm-1:     5.930774     5.928820     5.926993 

Vibrational entropy computed according to the QRRHO of S. Grimme
Chem.Eur.J. 2012 18 9955


-------
ENTROPY
-------

The entropy contributions are T*S = T*(S(el)+S(vib)+S(rot)+S(trans))
     S(el)   - electronic entropy
     S(vib)  - vibrational entropy
     S(rot)  - rotational entropy
     S(trans)- translational entropy
The entropies will be listed as mutliplied by the temperature to get
units of energy

Electronic entropy                ...      0.00000000 Eh      0.00 kcal/mol
Vibrational entropy               ...      0.00003734 Eh      0.02 kcal/mol
Rotational entropy                ...      0.00699008 Eh      4.39 kcal/mol
Translational entropy             ...      0.01644569 Eh     10.32 kcal/mol
-----------------------------------------------------------------------
Final entropy term                ...      0.02347311 Eh     14.73 kcal/mol

In case the symmetry of your molecule has not been determined correctly
or in case you have a reason to use a different symmetry number we print 
out the resulting rotational entropy values for sn=1,12 :
 --------------------------------------------------------
|  sn= 1 | S(rot)=       0.00699008 Eh      4.39 kcal/mol|
|  sn= 2 | S(rot)=       0.00633563 Eh      3.98 kcal/mol|
|  sn= 3 | S(rot)=       0.00595280 Eh      3.74 kcal/mol|
|  sn= 4 | S(rot)=       0.00568117 Eh      3.56 kcal/mol|
|  sn= 5 | S(rot)=       0.00547048 Eh      3.43 kcal/mol|
|  sn= 6 | S(rot)=       0.00529834 Eh      3.32 kcal/mol|
|  sn= 7 | S(rot)=       0.00515279 Eh      3.23 kcal/mol|
|  sn= 8 | S(rot)=       0.00502672 Eh      3.15 kcal/mol|
|  sn= 9 | S(rot)=       0.00491551 Eh      3.08 kcal/mol|
|  sn=10 | S(rot)=       0.00481603 Eh      3.02 kcal/mol|
|  sn=11 | S(rot)=       0.00472604 Eh      2.97 kcal/mol|
|  sn=12 | S(rot)=       0.00464388 Eh      2.91 kcal/mol|
 --------------------------------------------------------


-------------------
GIBBS FREE ENERGY
-------------------

The Gibbs free energy is G = H - T*S

Total enthalpy                    ...    -56.97097903 Eh 
Total entropy correction          ...     -0.02347311 Eh    -14.73 kcal/mol
-----------------------------------------------------------------------
Final Gibbs free energy         ...    -56.99445214 Eh

For completeness - the Gibbs free energy minus the electronic energy
G-E(el)                           ...      0.02781430 Eh     17.45 kcal/mol


Timings for individual modules:

Sum of individual times         ...       27.581 sec (=   0.460 min)
GTO integral calculation        ...        1.556 sec (=   0.026 min)   5.6 %
SCF iterations                  ...       13.155 sec (=   0.219 min)  47.7 %
SCF Gradient evaluation         ...        2.792 sec (=   0.047 min)  10.1 %
Geometry relaxation             ...        0.068 sec (=   0.001 min)   0.2 %
Analytical frequency calculation...       10.010 sec (=   0.167 min)  36.3 %
                             ****ORCA TERMINATED NORMALLY****
TOTAL RUN TIME: 0 days 0 hours 0 minutes 28 seconds 186 msec
