
                                 *****************
                                 * O   R   C   A *
                                 *****************

           --- An Ab Initio, DFT and Semiempirical electronic structure package ---

                  #######################################################
                  #                        -***-                        #
                  #          Department of theory and spectroscopy      #
                  #               Directorship: Frank Neese             #
                  #        Max Planck Institute fuer Kohlenforschung    #
                  #                Kaiser Wilhelm Platz 1               #
                  #                 D-45470 Muelheim/Ruhr               #
                  #                      Germany                        #
                  #                                                     #
                  #                  All rights reserved                #
                  #                        -***-                        #
                  #######################################################


                         Program Version 4.2.1 -  RELEASE  -


 With contributions from (in alphabetic order):
   Daniel Aravena         : Magnetic Suceptibility
   Michael Atanasov       : Ab Initio Ligand Field Theory (pilot matlab implementation)
   Alexander A. Auer      : GIAO ZORA, VPT2
   Ute Becker             : Parallelization
   Giovanni Bistoni       : ED, misc. LED, open-shell LED, HFLD
   Martin Brehm           : Molecular dynamics
   Dmytro Bykov           : SCF Hessian
   Vijay G. Chilkuri      : MRCI spin determinant printing, contributions to CSF-ICE
   Dipayan Datta          : RHF DLPNO-CCSD density
   Achintya Kumar Dutta   : EOM-CC, STEOM-CC
   Dmitry Ganyushin       : Spin-Orbit,Spin-Spin,Magnetic field MRCI
   Miquel Garcia          : C-PCM Hessian, Gaussian charge scheme
   Yang Guo               : DLPNO-NEVPT2, CIM, IAO-localization
   Andreas Hansen         : Spin unrestricted coupled pair/coupled cluster methods
   Benjamin Helmich-Paris : CASSCF linear response (MC-RPA)
   Lee Huntington         : MR-EOM, pCC
   Robert Izsak           : Overlap fitted RIJCOSX, COSX-SCS-MP3, EOM
   Christian Kollmar      : KDIIS, OOCD, Brueckner-CCSD(T), CCSD density
   Simone Kossmann        : Meta GGA functionals, TD-DFT gradient, OOMP2, MP2 Hessian
   Martin Krupicka        : AUTO-CI
   Lucas Lang             : DCDCAS
   Dagmar Lenk            : GEPOL surface, SMD
   Dimitrios Liakos       : Extrapolation schemes; Compound Job, initial MDCI parallelization
   Dimitrios Manganas     : Further ROCIS development; embedding schemes
   Dimitrios Pantazis     : SARC Basis sets
   Taras Petrenko         : DFT Hessian,TD-DFT gradient, ASA, ECA, R-Raman, ABS, FL, XAS/XES, NRVS
   Peter Pinski           : DLPNO-MP2, DLPNO-MP2 Gradient
   Christoph Reimann      : Effective Core Potentials
   Marius Retegan         : Local ZFS, SOC
   Christoph Riplinger    : Optimizer, TS searches, QM/MM, DLPNO-CCSD(T), (RO)-DLPNO pert. Triples
   Tobias Risthaus        : Range-separated hybrids, TD-DFT gradient, RPA, STAB
   Michael Roemelt        : Original ROCIS implementation
   Masaaki Saitow         : Open-shell DLPNO-CCSD energy and density
   Barbara Sandhoefer     : DKH picture change effects
   Avijit Sen             : IP-ROCIS
   Kantharuban Sivalingam : CASSCF convergence, NEVPT2, FIC-MRCI
   Bernardo de Souza      : ESD, SOC TD-DFT
   Georgi Stoychev        : AutoAux, RI-MP2 NMR
   Willem Van den Heuvel  : Paramagnetic NMR
   Boris Wezisla          : Elementary symmetry handling
   Frank Wennmohs         : Technical directorship


 We gratefully acknowledge several colleagues who have allowed us to
 interface, adapt or use parts of their codes:
   Stefan Grimme, W. Hujo, H. Kruse,             : VdW corrections, initial TS optimization,
                  C. Bannwarth                     DFT functionals, gCP, sTDA/sTD-DF
   Ed Valeev, F. Pavosevic, A. Kumar             : LibInt (2-el integral package), F12 methods
   Garnet Chan, S. Sharma, J. Yang, R. Olivares  : DMRG
   Ulf Ekstrom                                   : XCFun DFT Library
   Mihaly Kallay                                 : mrcc  (arbitrary order and MRCC methods)
   Andreas Klamt, Michael Diedenhofen            : otool_cosmo (COSMO solvation model)
   Jiri Pittner, Ondrej Demel                    : Mk-CCSD
   Frank Weinhold                                : gennbo (NPA and NBO analysis)
   Christopher J. Cramer and Donald G. Truhlar   : smd solvation model
   Lars Goerigk                                  : TD-DFT with DH, B97 family of functionals
   V. Asgeirsson, H. Jonsson                     : NEB implementation
   FAccTs GmbH                                   : IRC, NEB, NEB-TS, Multilevel, MM, QM/MM, CI optimization
   S Lehtola, MJT Oliveira, MAL Marques          : LibXC Library


 Your calculation uses the libint2 library for the computation of 2-el integrals
 For citations please refer to: http://libint.valeyev.net

 Your ORCA version has been built with support for libXC version: 4.2.3
 For citations please refer to: https://tddft.org/programs/libxc/

 This ORCA versions uses:
   CBLAS   interface :  Fast vector & matrix operations
   LAPACKE interface :  Fast linear algebra routines
   SCALAPACK package :  Parallel linear algebra routines




***************************************
The coordinates will be read from file: OH·.xyz
***************************************


Your calculation utilizes the geometrical counterpoise correction gCP
Please cite in your paper:
H.Kruse, S. Grimme J.Chem.Phys., 136, (2012), 154101 
   

Your calculation utilizes the atom-pairwise dispersion correction
based on tight binding partial charges (D4)
Cite in your paper:
E.Caldeweyher, C.Bannwarth, S.Grimme, J.Chem.Phys., (2017), 147, 034112.
E.Caldeweyher, S.Ehlert, A.Hansen, H.Neugebauer, S.Grimme, J.Chem.Phys., (2018), in progress.
   

Your calculation utilizes the SMD solvation module
Please cite in your paper:
A.V. Marenich, C.J. Cramer, D.G. Truhlar J. Phys. Chem. B, 113, (2009), 6378 

----- Orbital basis set information -----
Your calculation utilizes the basis: def2-TZVP
   F. Weigend and R. Ahlrichs, Phys. Chem. Chem. Phys. 7, 3297 (2005).

----- AuxJ basis set information -----
Your calculation utilizes the auxiliary basis: def2/J
   F. Weigend, Phys. Chem. Chem. Phys. 8, 1057 (2006).

================================================================================
                                        WARNINGS
                       Please study these warnings very carefully!
================================================================================


WARNING: Geometry Optimization
  ===> : Switching off AutoStart
         For restart on a previous wavefunction, please use MOREAD

INFO   : the flag for use of LIBINT has been found!

================================================================================
                                       INPUT FILE
================================================================================
NAME = OH·.inp
|  1> ! UHF BLYP D4 gCP(DFT/TZ) def2-TZVP Opt Freq TightOpt TightSCF Grid4 FinalGrid5 PrintBasis PrintMOs NBO
|  2> # BLYP > B97 > revPBE are excellent choices for geometry optimizations
|  3> 
|  4> %pal
|  5>  nprocs 8
|  6> end
|  7> 
|  8> %cpcm
|  9>  smd true
| 10>  smdsolvent "water"
| 11> end
| 12> 
| 13> *xyzfile 0 2 OH·.xyz
| 14> 
| 15>                          ****END OF INPUT****
================================================================================

                       *****************************
                       * Geometry Optimization Run *
                       *****************************

Geometry optimization settings:
Update method            Update   .... BFGS
Choice of coordinates    CoordSys .... Z-matrix Internals
Initial Hessian          InHess   .... Almoef's Model

Convergence Tolerances:
Energy Change            TolE     ....  1.0000e-06 Eh
Max. Gradient            TolMAXG  ....  1.0000e-04 Eh/bohr
RMS Gradient             TolRMSG  ....  3.0000e-05 Eh/bohr
Max. Displacement        TolMAXD  ....  1.0000e-03 bohr
RMS Displacement         TolRMSD  ....  6.0000e-04 bohr
Strict Convergence                ....  False
------------------------------------------------------------------------------
                        ORCA OPTIMIZATION COORDINATE SETUP
------------------------------------------------------------------------------

The optimization will be done in new redundant internal coordinates
Making redundant internal coordinates   ...  (new redundants) done
Evaluating the initial hessian          ...  (Almloef) done
Evaluating the coordinates              ...  done
Calculating the B-matrix                .... done
Calculating the G-matrix                .... done
Diagonalizing the G-matrix              .... done
The first mode is                       ....    0
The number of degrees of freedom        ....    1

    -----------------------------------------------------------------
                    Redundant Internal Coordinates


    -----------------------------------------------------------------
         Definition                    Initial Value    Approx d2E/dq
    -----------------------------------------------------------------
      1. B(H   1,O   0)                  0.9887         0.467998   
    -----------------------------------------------------------------

Number of atoms                         .... 2
Number of degrees of freedom            .... 1

         *************************************************************
         *                GEOMETRY OPTIMIZATION CYCLE   1            *
         *************************************************************
---------------------------------
CARTESIAN COORDINATES (ANGSTROEM)
---------------------------------
  O     -2.444079    1.356890    0.000000
  H     -1.455421    1.356890    0.000000

----------------------------
CARTESIAN COORDINATES (A.U.)
----------------------------
  NO LB      ZA    FRAG     MASS         X           Y           Z
   0 O     8.0000    0    15.999   -4.618641    2.564150    0.000000
   1 H     1.0000    0     1.008   -2.750347    2.564150    0.000000

--------------------------------
INTERNAL COORDINATES (ANGSTROEM)
--------------------------------
 O      0   0   0     0.000000000000     0.00000000     0.00000000
 H      1   0   0     0.988658574503     0.00000000     0.00000000

---------------------------
INTERNAL COORDINATES (A.U.)
---------------------------
 O      0   0   0     0.000000000000     0.00000000     0.00000000
 H      1   0   0     1.868293945764     0.00000000     0.00000000

---------------------
BASIS SET INFORMATION
---------------------
There are 2 groups of distinct atoms

 Group   1 Type O   : 11s6p2d1f contracted to 5s3p2d1f pattern {62111/411/11/1}
 Group   2 Type H   : 5s1p contracted to 3s1p pattern {311/1}

Atom   0O    basis set group =>   1
Atom   1H    basis set group =>   2

-------------------------
BASIS SET IN INPUT FORMAT
-------------------------

 # Basis set for element : H 
 NewGTO H 
 S 3 
   1      34.0613410000      0.0254393072
   2       5.1235746000      0.1900859489
   3       1.1646626000      0.8524411301
 S 1 
   1       0.3272304100      1.0000000000
 S 1 
   1       0.1030724100      1.0000000000
 P 1 
   1       0.8000000000      1.0000000000
  end;

 # Basis set for element : O 
 NewGTO O 
 S 6 
   1   27032.3826310000      0.0005722733
   2    4052.3871392000      0.0044353233
   3     922.3272271000      0.0230201076
   4     261.2407098900      0.0928224906
   5      85.3546413510      0.2937850002
   6      31.0350352450      0.6740160450
 S 2 
   1      12.2608607280      0.6383993702
   2       4.9987076005      0.3953458713
 S 1 
   1       1.1703108158      1.0000000000
 S 1 
   1       0.4647474099      1.0000000000
 S 1 
   1       0.1850453636      1.0000000000
 P 4 
   1      63.2749548010      0.0120183321
   2      14.6270493790      0.0830054217
   3       4.4501223456      0.3199174393
   4       1.5275799647      0.7071554292
 P 1 
   1       0.5293511794      1.0000000000
 P 1 
   1       0.1747842127      1.0000000000
 D 1 
   1       2.3140000000      1.0000000000
 D 1 
   1       0.6450000000      1.0000000000
 F 1 
   1       1.4280000000      1.0000000000
  end;

---------------------------------
AUXILIARY/J BASIS SET INFORMATION
---------------------------------
There are 2 groups of distinct atoms

 Group   1 Type O   : 12s5p4d2f1g contracted to 6s4p3d1f1g pattern {711111/2111/211/2/1}
 Group   2 Type H   : 5s2p1d contracted to 3s1p1d pattern {311/2/1}

Atom   0O    basis set group =>   1
Atom   1H    basis set group =>   2

-------------------------------------
AUXILIARY/J BASIS SET IN INPUT FORMAT
-------------------------------------

 # Auxiliary/J basis set for element : H 
 NewAuxJGTO H 
 S 3 
   1      15.6752927000      0.1007184237
   2       3.6063578000      0.3404257499
   3       1.2080016000      0.6491996172
 S 1 
   1       0.4726794000      1.0000000000
 S 1 
   1       0.2018100000      1.0000000000
 P 2 
   1       2.0281365000      0.5596620919
   2       0.5358730000      0.5596620919
 D 1 
   1       2.2165124000      1.0000000000
  end;

 # Auxiliary/J basis set for element : O 
 NewAuxJGTO O 
 S 7 
   1    2876.8216605000      0.0168151159
   2    1004.7443032000      0.0340137548
   3     369.7579954000      0.1194951309
   4     142.9442404000      0.2664627624
   5      57.8366425000      0.4202764046
   6      24.3864983000      0.2765077335
   7      10.6622662000      0.0057008815
 S 1 
   1       4.8070437000     -1.0000000000
 S 1 
   1       2.2210770000      1.0000000000
 S 1 
   1       1.0447795000      1.0000000000
 S 1 
   1       0.4968425000      1.0000000000
 S 1 
   1       0.2371384000      1.0000000000
 P 2 
   1      64.2613382000     -0.2731534179
   2      16.3006076000     -0.8168011598
 P 1 
   1       4.3550542000      1.0000000000
 P 1 
   1       1.2019554000      1.0000000000
 P 1 
   1       0.3354196000      1.0000000000
 D 2 
   1       9.2146611000     -0.4661230638
   2       2.8435251000     -0.6600908911
 D 1 
   1       0.9955759000     -1.0000000000
 D 1 
   1       0.3649441000     -1.0000000000
 F 2 
   1       2.6420115000      0.5931563945
   2       0.7345613000      0.5931563945
 G 1 
   1       1.3931000000     -1.0000000000
  end;



           ************************************************************
           *        Program running with 8 parallel MPI-processes     *
           *              working on a common directory               *
           ************************************************************
------------------------------------------------------------------------------
                           ORCA GTO INTEGRAL CALCULATION
                           -- RI-GTO INTEGRALS CHOSEN --
------------------------------------------------------------------------------

                         BASIS SET STATISTICS AND STARTUP INFO

Gaussian basis set:
 # of primitive gaussian shells          ...   26
 # of primitive gaussian functions       ...   54
 # of contracted shells                  ...   15
 # of contracted basis functions         ...   37
 Highest angular momentum                ...    3
 Maximum contraction depth               ...    6
Auxiliary gaussian basis set:
 # of primitive gaussian shells          ...   32
 # of primitive gaussian functions       ...   86
 # of contracted shells                  ...   20
 # of contracted aux-basis functions     ...   60
 Highest angular momentum                ...    4
 Maximum contraction depth               ...    7
Ratio of auxiliary to basis functions    ...  1.62
Integral package used                  ... LIBINT
 One Electron integrals                  ... done
 Ordering auxiliary basis shells         ... done
 Integral threshhold             Thresh  ...  2.500e-11
 Primitive cut-off               TCut    ...  2.500e-12
 Pre-screening matrix                    ... done
 Shell pair data                         ... 
 Ordering of the shell pairs             ... done (   0.000 sec) 120 of 120 pairs
 Determination of significant pairs      ... done (   0.000 sec)
 Creation of shell pair data             ... done (   0.000 sec)
 Storage of shell pair data              ... done (   0.013 sec)
 Shell pair data done in (   0.014 sec)
 Computing two index integrals           ... done
 Cholesky decomposition of the V-matrix  ... done


Timings:
 Total evaluation time                   ...   0.150 sec (  0.002 min)
 One electron matrix time                ...   0.005 sec (  0.000 min) =  3.6%
 Schwartz matrix evaluation time         ...   0.109 sec (  0.002 min) = 72.7%
 Two index repulsion integral time       ...   0.000 sec (  0.000 min) =  0.2%
 Cholesky decomposition of V             ...   0.000 sec (  0.000 min) =  0.3%
 Three index repulsion integral time     ...   0.000 sec (  0.000 min) =  0.0%



           ************************************************************
           *        Program running with 8 parallel MPI-processes     *
           *              working on a common directory               *
           ************************************************************
-------------------------------------------------------------------------------
                                 ORCA SCF
-------------------------------------------------------------------------------

------------
SCF SETTINGS
------------
Hamiltonian:
 Density Functional     Method          .... DFT(GTOs)
 Exchange Functional    Exchange        .... B88
   X-Alpha parameter    XAlpha          ....  0.666667
   Becke's b parameter  XBeta           ....  0.004200
 Correlation Functional Correlation     .... LYP
 Gradients option       PostSCFGGA      .... off
   Density functional embedding theory  .... OFF
   NL short-range parameter             ....  4.000000
 RI-approximation to the Coulomb term is turned on
   Number of auxiliary basis functions  .... 60


General Settings:
 Integral files         IntName         .... OH·
 Hartree-Fock type      HFTyp           .... UHF
 Total Charge           Charge          ....    0
 Multiplicity           Mult            ....    2
 Number of Electrons    NEL             ....    9
 Basis Dimension        Dim             ....   37
 Nuclear Repulsion      ENuc            ....      4.2819814399 Eh

Convergence Acceleration:
 DIIS                   CNVDIIS         .... on
   Start iteration      DIISMaxIt       ....    12
   Startup error        DIISStart       ....  0.200000
   # of expansion vecs  DIISMaxEq       ....     5
   Bias factor          DIISBfac        ....   1.050
   Max. coefficient     DIISMaxC        ....  10.000
 Newton-Raphson         CNVNR           .... off
 SOSCF                  CNVSOSCF        .... off
 Level Shifting         CNVShift        .... on
   Level shift para.    LevelShift      ....    0.2500
   Turn off err/grad.   ShiftErr        ....    0.0010
 Zerner damping         CNVZerner       .... off
 Static damping         CNVDamp         .... on
   Fraction old density DampFac         ....    0.7000
   Max. Damping (<1)    DampMax         ....    0.9800
   Min. Damping (>=0)   DampMin         ....    0.0000
   Turn off err/grad.   DampErr         ....    0.1000
 Fernandez-Rico         CNVRico         .... off

SCF Procedure:
 Maximum # iterations   MaxIter         ....   125
 SCF integral mode      SCFMode         .... Direct
   Integral package                     .... LIBINT
 Reset frequency        DirectResetFreq ....    20
 Integral Threshold     Thresh          ....  2.500e-11 Eh
 Primitive CutOff       TCut            ....  2.500e-12 Eh

Convergence Tolerance:
 Convergence Check Mode ConvCheckMode   .... Total+1el-Energy
 Convergence forced     ConvForced      .... 0
 Energy Change          TolE            ....  1.000e-08 Eh
 1-El. energy change                    ....  1.000e-05 Eh
 DIIS Error             TolErr          ....  5.000e-07


Diagonalization of the overlap matrix:
Smallest eigenvalue                        ... 1.129e-02
Time for diagonalization                   ...    0.001 sec
Threshold for overlap eigenvalues          ... 1.000e-08
Number of eigenvalues below threshold      ... 0
Time for construction of square roots      ...    0.001 sec
Total time needed                          ...    0.002 sec

-------------------
DFT GRID GENERATION
-------------------

General Integration Accuracy     IntAcc      ...  4.670
Radial Grid Type                 RadialGrid  ... Gauss-Chebyshev
Angular Grid (max. acc.)         AngularGrid ... Lebedev-302
Angular grid pruning method      GridPruning ... 3 (G Style)
Weight generation scheme         WeightScheme... Becke
Basis function cutoff            BFCut       ...    1.0000e-11
Integration weight cutoff        WCut        ...    1.0000e-14
Grids for H and He will be reduced by one unit

# of grid points (after initial pruning)     ...   9606 (   0.0 sec)
# of grid points (after weights+screening)   ...   9577 (   0.0 sec)
nearest neighbour list constructed           ...    0.0 sec
Grid point re-assignment to atoms done       ...    0.0 sec
Grid point division into batches done        ...    0.0 sec
Reduced shell lists constructed in    0.0 sec

Total number of grid points                  ...     9577
Total number of batches                      ...      151
Average number of points per batch           ...       63
Average number of grid points per atom       ...     4788
Average number of shells per batch           ...     6.15 (41.00%)
Average number of basis functions per batch  ...    14.05 (37.97%)
Average number of large shells per batch     ...     4.50 (73.17%)
Average number of large basis fcns per batch ...     8.90 (63.35%)
Maximum spatial batch extension              ...  13.82, 19.94, 19.94 au
Average spatial batch extension              ...   1.13,  1.39,  1.33 au

Time for grid setup =    0.055 sec

------------------------------
INITIAL GUESS: MODEL POTENTIAL
------------------------------
Loading Hartree-Fock densities                     ... done
Calculating cut-offs                               ... done
Setting up the integral package                    ... done
Initializing the effective Hamiltonian             ... done
Starting the Coulomb interaction                   ... done (   0.0 sec)
Reading the grid                                   ... done
Mapping shells                                     ... done
Starting the XC term evaluation                    ... done (   0.0 sec)
  promolecular density results
     # of electrons  =      8.999508895
     EX              =     -8.415025545
     EC              =     -0.304058202
     EX+EC           =     -8.719083747
Transforming the Hamiltonian                       ... done (   0.0 sec)
Diagonalizing the Hamiltonian                      ... done (   0.0 sec)
Back transforming the eigenvectors                 ... done (   0.0 sec)
Now organizing SCF variables                       ... done
                      ------------------
                      INITIAL GUESS DONE (   0.1 sec)
                      ------------------

--------------------
CPCM SOLVATION MODEL
--------------------
CPCM parameters:
  Epsilon                                         ...      78.3550
  Refrac                                          ...       1.0000
  Rsolv                                           ...       1.3000
  Surface type                                    ...    GEPOL SES
  Epsilon function type                           ...         CPCM
Solvent:                                     ... WATER
SMD-CDS solvent descriptors:
  Soln                                       ...    1.3328
  Soln25                                     ...    1.3323
  Sola                                       ...    0.0000
  Solb                                       ...    0.0000
  Solg                                       ...    0.0000
  Solc                                       ...    0.0000
  Solh                                       ...    0.0000
Radii:
 Radius for O  used is    2.8724 Bohr (=   1.5200 Ang.)
 Radius for H  used is    2.2677 Bohr (=   1.2000 Ang.)
Calculating surface                               ...        done! (  0.0s)
GEPOL surface points                              ...           95
GEPOL Volume                                      ...     115.9451
GEPOL Surface-area                                ...     117.3714
Calculating surface distance matrix               ...        done! (  0.0s)
Performing Cholesky decomposition & store         ...        done! (  0.0s)
Overall time for CPCM initialization              ...                 0.0s
--------------
SCF ITERATIONS
--------------
ITER       Energy         Delta-E        Max-DP      RMS-DP      [F,P]     Damp
               ***  Starting incremental Fock matrix formation  ***
  0    -75.7433955663   0.000000000000 0.01838062  0.00113141  0.1632886 0.7000
  1    -75.7534295904  -0.010034024140 0.01296571  0.00071998  0.0690904 0.7000
                               ***Turning on DIIS***
  2    -75.7568527049  -0.003423114457 0.01838764  0.00098339  0.0157754 0.0000
  3    -75.7634365868  -0.006583881952 0.00680427  0.00045495  0.0371196 0.0000
  4    -75.7645079753  -0.001071388464 0.00121472  0.00009895  0.0018741 0.0000
  5    -75.7645311416  -0.000023166282 0.00047345  0.00003816  0.0004700 0.0000
  6    -75.7645338247  -0.000002683099 0.00011484  0.00000654  0.0001937 0.0000
  7    -75.7645339673  -0.000000142693 0.00002905  0.00000185  0.0000215 0.0000
  8    -75.7645339794  -0.000000012054 0.00001070  0.00000069  0.0000031 0.0000
                 **** Energy Check signals convergence ****

               *****************************************************
               *                     SUCCESS                       *
               *           SCF CONVERGED AFTER   9 CYCLES          *
               *****************************************************

Setting up the final grid:

General Integration Accuracy     IntAcc      ...  5.010
Radial Grid Type                 RadialGrid  ... Gauss-Chebyshev
Angular Grid (max. acc.)         AngularGrid ... Lebedev-434
Angular grid pruning method      GridPruning ... 3 (G Style)
Weight generation scheme         WeightScheme... Becke
Basis function cutoff            BFCut       ...    1.0000e-11
Integration weight cutoff        WCut        ...    1.0000e-14
Grids for H and He will be reduced by one unit

# of grid points (after initial pruning)     ...  17534 (   0.0 sec)
# of grid points (after weights+screening)   ...  17493 (   0.0 sec)
nearest neighbour list constructed           ...    0.0 sec
Grid point re-assignment to atoms done       ...    0.0 sec
Grid point division into batches done        ...    0.2 sec
Reduced shell lists constructed in    0.2 sec

Total number of grid points                  ...    17493
Total number of batches                      ...      274
Average number of points per batch           ...       63
Average number of grid points per atom       ...     8746
Average number of shells per batch           ...     4.94 (32.96%)
Average number of basis functions per batch  ...    11.17 (30.18%)
Average number of large shells per batch     ...     3.56 (71.91%)
Average number of large basis fcns per batch ...     7.39 (66.17%)
Maximum spatial batch extension              ...  15.15, 16.29, 16.29 au
Average spatial batch extension              ...   0.97,  1.16,  1.14 au

Final grid set up in    0.2 sec
Final integration                            ... done (   0.0 sec)
Change in XC energy                          ...    -0.000003723
Integrated number of electrons               ...     9.000000325
Previous integrated no of electrons          ...     8.999998986

SMD CDS free energy correction energy :                 0.74630     Kcal/mol
Total Energy after SMD CDS correction =               -75.763348394 Eh

----------------
TOTAL SCF ENERGY
----------------

Total Energy       :          -75.76334839 Eh           -2061.62552 eV

Components:
Nuclear Repulsion  :            4.28198144 Eh             116.51864 eV
Electronic Energy  :          -80.04532983 Eh           -2178.14416 eV
One Electron Energy:         -112.56626178 Eh           -3063.08371 eV
Two Electron Energy:           32.52093194 Eh             884.93955 eV
CPCM Dielectric    :           -0.01141102 Eh              -0.31051 eV
SMD CDS (Gcds)     :            0.00118931 Eh               0.03236 eV

Virial components:
Potential Energy   :         -151.29914883 Eh           -4117.05915 eV
Kinetic Energy     :           75.53580044 Eh            2055.43363 eV
Virial Ratio       :            2.00301245


DFT components:
N(Alpha)           :        5.000000161518 electrons
N(Beta)            :        4.000000163437 electrons
N(Total)           :        9.000000324956 electrons
E(X)               :       -8.575502913450 Eh       
E(C)               :       -0.300442663175 Eh       
E(XC)              :       -8.875945576625 Eh       
DFET-embed. en.    :        0.000000000000 Eh       
CPCM Solvation Model Properties:
Surface-charge          :           -0.02391544
Charge-correction       :            0.00033729 Eh               0.00918 eV
Free-energy (cav+disp)  :            0.00245943 Eh               0.06692 eV
Corrected G(solv)       :          -75.76055167 Eh           -2061.54942 eV

---------------
SCF CONVERGENCE
---------------

  Last Energy change         ...   -8.2305e-10  Tolerance :   1.0000e-08
  Last MAX-Density change    ...    2.7035e-06  Tolerance :   1.0000e-07
  Last RMS-Density change    ...    1.8698e-07  Tolerance :   5.0000e-09
  Last DIIS Error            ...    7.6984e-07  Tolerance :   5.0000e-07

             **** THE GBW FILE WAS UPDATED (OH·.gbw) ****
             **** DENSITY FILE WAS UPDATED (OH·.scfp) ****
             **** ENERGY FILE WAS UPDATED (OH·.en.tmp) ****
----------------------
UHF SPIN CONTAMINATION
----------------------

Warning: in a DFT calculation there is little theoretical justification to 
         calculate <S**2> as in Hartree-Fock theory. We will do it anyways
         but you should keep in mind that the values have only limited relevance

Expectation value of <S**2>     :     0.751992
Ideal value S*(S+1) for S=0.5   :     0.750000
Deviation                       :     0.001992

             **** THE GBW FILE WAS UPDATED (OH·.gbw) ****
             **** DENSITY FILE WAS UPDATED (OH·.scfp) ****
----------------
ORBITAL ENERGIES
----------------
                 SPIN UP ORBITALS
  NO   OCC          E(Eh)            E(eV) 
   0   1.0000     -18.839294      -512.6432 
   1   1.0000      -0.910763       -24.7831 
   2   1.0000      -0.413966       -11.2646 
   3   1.0000      -0.349979        -9.5234 
   4   1.0000      -0.285155        -7.7595 
   5   0.0000       0.028863         0.7854 
   6   0.0000       0.345733         9.4079 
   7   0.0000       0.355296         9.6681 
   8   0.0000       0.359557         9.7840 
   9   0.0000       0.375854        10.2275 
  10   0.0000       0.532020        14.4770 
  11   0.0000       1.148417        31.2500 
  12   0.0000       1.173630        31.9361 
  13   0.0000       1.368592        37.2413 
  14   0.0000       1.370048        37.2809 
  15   0.0000       1.536962        41.8229 
  16   0.0000       1.972654        53.6786 
  17   0.0000       1.995321        54.2954 
  18   0.0000       2.070773        56.3486 
  19   0.0000       2.380078        64.7652 
  20   0.0000       2.409514        65.5662 
  21   0.0000       2.432270        66.1854 
  22   0.0000       2.566224        69.8305 
  23   0.0000       3.551014        96.6280 
  24   0.0000       4.952887       134.7749 
  25   0.0000       4.953082       134.7802 
  26   0.0000       4.963245       135.0567 
  27   0.0000       4.963680       135.0686 
  28   0.0000       5.188654       141.1904 
  29   0.0000       5.237546       142.5209 
  30   0.0000       5.876509       159.9079 
  31   0.0000       5.986269       162.8947 
  32   0.0000       5.992200       163.0561 
  33   0.0000       6.109726       166.2541 
  34   0.0000       6.167560       167.8278 
  35   0.0000       6.728778       183.0993 
  36   0.0000      42.573465      1158.4829 

                 SPIN DOWN ORBITALS
  NO   OCC          E(Eh)            E(eV) 
   0   1.0000     -18.816565      -512.0248 
   1   1.0000      -0.855878       -23.2896 
   2   1.0000      -0.392559       -10.6821 
   3   1.0000      -0.262978        -7.1560 
   4   0.0000      -0.227669        -6.1952 
   5   0.0000       0.034838         0.9480 
   6   0.0000       0.352335         9.5875 
   7   0.0000       0.365030         9.9330 
   8   0.0000       0.383423        10.4335 
   9   0.0000       0.408551        11.1172 
  10   0.0000       0.547914        14.9095 
  11   0.0000       1.175227        31.9796 
  12   0.0000       1.180591        32.1255 
  13   0.0000       1.419954        38.6389 
  14   0.0000       1.428117        38.8610 
  15   0.0000       1.548397        42.1340 
  16   0.0000       1.996825        54.3364 
  17   0.0000       2.004778        54.5528 
  18   0.0000       2.077552        56.5331 
  19   0.0000       2.420212        65.8573 
  20   0.0000       2.451572        66.7107 
  21   0.0000       2.488769        67.7228 
  22   0.0000       2.611090        71.0514 
  23   0.0000       3.575394        97.2914 
  24   0.0000       5.004634       136.1830 
  25   0.0000       5.011067       136.3581 
  26   0.0000       5.044129       137.2577 
  27   0.0000       5.047923       137.3610 
  28   0.0000       5.246384       142.7614 
  29   0.0000       5.261577       143.1748 
  30   0.0000       5.922467       161.1585 
  31   0.0000       6.086285       165.6162 
  32   0.0000       6.109121       166.2376 
  33   0.0000       6.181641       168.2110 
  34   0.0000       6.213406       169.0754 
  35   0.0000       6.759614       183.9384 
  36   0.0000      42.603003      1159.2866 
------------------
MOLECULAR ORBITALS
------------------
                      0         1         2         3         4         5   
                 -18.83929  -0.91076  -0.41397  -0.34998  -0.28516   0.02886
                   1.00000   1.00000   1.00000   1.00000   1.00000   0.00000
                  --------  --------  --------  --------  --------  --------
  0O   1s         0.435140  0.104104  0.032804 -0.000000 -0.000001 -0.032063
  0O   2s         0.638906  0.243744  0.078006 -0.000000 -0.000002 -0.078730
  0O   3s         0.036595 -0.368717 -0.127053  0.000000  0.000008  0.160860
  0O   4s        -0.023163 -0.470021 -0.153540  0.000000 -0.000015  0.114095
  0O   5s         0.009035 -0.186435 -0.195201 -0.000000 -0.000000  0.720764
  0O   1pz       -0.000000  0.000003 -0.000029 -0.004508 -0.496263 -0.000017
  0O   1px        0.001492 -0.083494  0.418841 -0.000000 -0.000035  0.208962
  0O   1py       -0.000000 -0.000000 -0.000000 -0.512653  0.004364  0.000000
  0O   2pz        0.000000  0.000002 -0.000018 -0.003600 -0.385793 -0.000032
  0O   2px       -0.003241 -0.068894  0.313382 -0.000000 -0.000042  0.111967
  0O   2py        0.000000 -0.000000 -0.000000 -0.409426  0.003393  0.000000
  0O   3pz       -0.000000  0.000004 -0.000032 -0.002448 -0.327274  0.000035
  0O   3px        0.001293 -0.009366  0.184651 -0.000000 -0.000018  0.442461
  0O   3py       -0.000000 -0.000000 -0.000000 -0.278334  0.002877 -0.000000
  0O   1dz2      -0.000411  0.005842 -0.002947  0.000000  0.000000 -0.000615
  0O   1dxz      -0.000000 -0.000000  0.000000 -0.000034 -0.003677 -0.000001
  0O   1dyz       0.000009 -0.000101 -0.000036  0.000000  0.000000  0.000039
  0O   1dx2y2    -0.000283  0.001373  0.009175 -0.000000 -0.000001 -0.003317
  0O   1dxy       0.000000 -0.000000 -0.000000 -0.003868  0.000032  0.000000
  0O   2dz2       0.000729  0.012830 -0.006119  0.000000  0.000005  0.005017
  0O   2dxz       0.000000  0.000003 -0.000005 -0.000161 -0.017833  0.000001
  0O   2dyz      -0.000003 -0.000191 -0.000079 -0.000002  0.000000  0.000043
  0O   2dx2y2    -0.000968 -0.000534  0.019605  0.000000 -0.000004 -0.013606
  0O   2dxy      -0.000000 -0.000000 -0.000000 -0.018249  0.000157 -0.000000
  0O   1f0       -0.000000 -0.000000  0.000001  0.000125  0.006316  0.000001
  0O   1f+1       0.000218  0.002591 -0.004391  0.000000  0.000002 -0.000560
  0O   1f-1      -0.000000  0.000000 -0.000000  0.005791 -0.000160 -0.000000
  0O   1f+2      -0.000000  0.000001  0.000000  0.000101  0.001716 -0.000001
  0O   1f-2       0.000000 -0.000019  0.000074  0.000001 -0.000000  0.000030
  0O   1f+3       0.000285  0.001619  0.001208  0.000000  0.000001  0.002050
  0O   1f-3       0.000000 -0.000000 -0.000000 -0.001947  0.000019 -0.000000
  1H   1s         0.001019 -0.101330  0.160748 -0.000000 -0.000015 -0.084791
  1H   2s         0.002519 -0.067460  0.205283 -0.000000  0.000029 -0.142598
  1H   3s        -0.003051 -0.007831  0.053264  0.000000 -0.000001 -1.464287
  1H   1pz       -0.000000  0.000007 -0.000012 -0.000174 -0.022357  0.000012
  1H   1px       -0.001687  0.017761 -0.017645  0.000000 -0.000012 -0.051940
  1H   1py        0.000000 -0.000000  0.000000 -0.019808  0.000197 -0.000000
                      6         7         8         9        10        11   
                   0.34573   0.35530   0.35956   0.37585   0.53202   1.14842
                   0.00000   0.00000   0.00000   0.00000   0.00000   0.00000
                  --------  --------  --------  --------  --------  --------
  0O   1s         0.000895 -0.037617 -0.000002 -0.000011  0.046445 -0.000000
  0O   2s         0.003814 -0.079108 -0.000003 -0.000021  0.097638 -0.000000
  0O   3s        -0.009060 -0.037835 -0.000002 -0.000040  0.057399  0.000000
  0O   4s         0.114349  1.115890  0.000047  0.000481 -1.867014  0.000000
  0O   5s        -0.859818 -0.909472 -0.000040 -0.000697  3.534987 -0.000002
  0O   1pz        0.000117  0.000098 -0.002790 -0.325916 -0.000007  0.000591
  0O   1px       -0.253754 -0.193259 -0.000009 -0.000148 -0.192662  0.000000
  0O   1py       -0.000000  0.000012 -0.316161  0.002875  0.000000  0.067197
  0O   2pz        0.000234  0.000204 -0.005634 -0.669819 -0.000016  0.000172
  0O   2px       -0.550948 -0.360063 -0.000016 -0.000245 -0.306657 -0.000000
  0O   2py       -0.000001  0.000025 -0.638346  0.005909  0.000000  0.019580
  0O   3pz       -0.000414 -0.000370  0.010884  1.228455  0.000047  0.001383
  0O   3px       -0.418124  1.233935  0.000051  0.000172  1.657844 -0.000001
  0O   3py        0.000001 -0.000048  1.233482 -0.010840 -0.000000  0.157320
  0O   1dz2      -0.010873  0.005152  0.000000 -0.000002  0.010436 -0.000000
  0O   1dxz       0.000002  0.000001 -0.000039 -0.004561  0.000000 -0.000079
  0O   1dyz      -0.000003  0.000050 -0.000000  0.000000 -0.000062 -0.000001
  0O   1dx2y2     0.019212 -0.014573 -0.000001  0.000003 -0.011061  0.000000
  0O   1dxy      -0.000000  0.000000 -0.004460  0.000040  0.000000 -0.009022
  0O   2dz2       0.033260 -0.023006 -0.000001 -0.000007 -0.033851  0.000000
  0O   2dxz      -0.000005 -0.000001  0.000046  0.003610 -0.000009 -0.005590
  0O   2dyz      -0.000122  0.000064  0.000004 -0.000000  0.000052  0.000045
  0O   2dx2y2    -0.043823  0.032609  0.000001  0.000011  0.052824 -0.000001
  0O   2dxy       0.000000 -0.000000  0.005138 -0.000032 -0.000000 -0.636070
  0O   1f0       -0.000001 -0.000001  0.000050  0.002653 -0.000001 -0.000020
  0O   1f+1       0.008640 -0.002393 -0.000000  0.000000 -0.004423  0.000000
  0O   1f-1       0.000000 -0.000000  0.002341 -0.000076 -0.000000 -0.000944
  0O   1f+2      -0.000000 -0.000000  0.000049  0.001380  0.000001  0.000003
  0O   1f-2      -0.000043 -0.000021  0.000000 -0.000000 -0.000018  0.000001
  0O   1f+3       0.007173 -0.005063 -0.000000 -0.000002 -0.007352  0.000000
  0O   1f-3       0.000000  0.000000 -0.001501  0.000015  0.000000 -0.001475
  1H   1s         0.185142 -0.047360 -0.000001  0.000066  0.063610 -0.000000
  1H   2s         1.930826 -0.793047 -0.000029  0.000366 -0.626576  0.000002
  1H   3s        -0.874767  0.362663  0.000014 -0.000066 -1.769571  0.000000
  1H   1pz       -0.000011  0.000001  0.000012 -0.002292 -0.000030 -0.004751
  1H   1px       -0.100725  0.066436  0.000003  0.000021  0.090963 -0.000000
  1H   1py       -0.000000 -0.000000  0.001344  0.000020  0.000000 -0.540618
                     12        13        14        15        16        17   
                   1.17363   1.36859   1.37005   1.53696   1.97265   1.99532
                   0.00000   0.00000   0.00000   0.00000   0.00000   0.00000
                  --------  --------  --------  --------  --------  --------
  0O   1s         0.000001 -0.002764 -0.000003 -0.006761  0.000000 -0.000002
  0O   2s         0.000003 -0.006859 -0.000006 -0.025408  0.000000 -0.000006
  0O   3s        -0.000013  0.018908  0.000018  0.247618 -0.000001  0.000033
  0O   4s        -0.000003  0.000123 -0.000001 -0.548109  0.000003 -0.000046
  0O   5s         0.000105  0.137574  0.000132 -0.923937 -0.000001 -0.000002
  0O   1pz       -0.069577  0.000002 -0.000000 -0.000011 -0.002378  0.257833
  0O   1px       -0.000006 -0.009795 -0.000009  0.150060 -0.000001  0.000017
  0O   1py        0.000611  0.000000  0.000006 -0.000000 -0.270456 -0.002267
  0O   2pz       -0.025642 -0.000005  0.000000  0.000003  0.001926 -0.195276
  0O   2px        0.000025  0.044649  0.000041 -0.597261  0.000003 -0.000029
  0O   2py        0.000226 -0.000000 -0.000006  0.000000  0.219036  0.001718
  0O   3pz       -0.157521  0.000000 -0.000000  0.000005 -0.003371  0.368743
  0O   3px        0.000060  0.106810  0.000102 -0.875355 -0.000001 -0.000006
  0O   3py        0.001384  0.000001  0.000014 -0.000000 -0.383460 -0.003243
  0O   1dz2       0.000001 -0.003518  0.000048 -0.003411  0.000000 -0.000000
  0O   1dxz       0.006933  0.000000 -0.000000  0.000001  0.000025 -0.005414
  0O   1dyz      -0.000000  0.000055  0.003367  0.000048  0.000000  0.000000
  0O   1dx2y2     0.000001 -0.000551  0.000029  0.000417  0.000000 -0.000002
  0O   1dxy      -0.000061 -0.000000 -0.000001  0.000000  0.002795  0.000048
  0O   2dz2      -0.000044  0.802521 -0.014508  0.661541  0.000000 -0.000008
  0O   2dxz       0.619434  0.000029 -0.000000  0.000002 -0.008191  0.947349
  0O   2dyz       0.000001 -0.016588 -1.001540 -0.001772 -0.000000  0.000000
  0O   2dx2y2    -0.000002  0.602488 -0.008245 -0.944456 -0.000000  0.000002
  0O   2dxy      -0.005443 -0.000001 -0.000028  0.000000 -0.931483 -0.008330
  0O   1f0        0.002363 -0.000000  0.000000 -0.000001 -0.000056  0.006641
  0O   1f+1      -0.000005  0.003735 -0.000121  0.040741 -0.000000  0.000002
  0O   1f-1      -0.000022 -0.000000 -0.000001 -0.000000 -0.002593 -0.000007
  0O   1f+2      -0.002075 -0.000002  0.000000  0.000001  0.000102 -0.009784
  0O   1f-2       0.000000 -0.000149 -0.008956 -0.000005 -0.000002 -0.000000
  0O   1f+3      -0.000002 -0.009820  0.000087  0.052153 -0.000000  0.000004
  0O   1f-3      -0.000022 -0.000000  0.000001 -0.000000 -0.012833 -0.000105
  1H   1s         0.000034  0.039820  0.000037 -0.571373  0.000002 -0.000039
  1H   2s        -0.000092 -0.270592 -0.000255  2.806592 -0.000004  0.000063
  1H   3s        -0.000031  0.030850  0.000028 -0.495238  0.000002 -0.000016
  1H   1pz        0.560683  0.000015 -0.000000  0.000015  0.009152 -1.036241
  1H   1px        0.000047  0.025918  0.000024 -0.353806  0.000002 -0.000016
  1H   1py       -0.004927 -0.000001 -0.000023  0.000000  1.040803  0.009112
                     18        19        20        21        22        23   
                   2.07077   2.38008   2.40951   2.43227   2.56622   3.55101
                   0.00000   0.00000   0.00000   0.00000   0.00000   0.00000
                  --------  --------  --------  --------  --------  --------
  0O   1s        -0.000213 -0.000000 -0.000412 -0.000002 -0.126697 -0.043284
  0O   2s        -0.012819 -0.000000 -0.017025 -0.000009 -0.418252 -0.169453
  0O   3s         0.402098  0.000000  0.444658  0.000086  2.605874  1.793506
  0O   4s        -1.588271 -0.000001 -1.353245 -0.000170 -3.403198 -3.763522
  0O   5s         0.365082  0.000000 -0.753190 -0.000032  2.493307  0.484639
  0O   1pz       -0.000027  0.010203  0.000103 -1.167087  0.000016  0.000007
  0O   1px        0.513307 -0.000000 -0.900713 -0.000085 -0.195391  0.608670
  0O   1py       -0.000000  1.159970 -0.000001  0.010265 -0.000000  0.000000
  0O   2pz        0.000020 -0.014469 -0.000149  1.641414 -0.000023 -0.000014
  0O   2px       -1.605672  0.000000  0.058830  0.000024  0.712756 -2.692208
  0O   2py        0.000000 -1.645016  0.000001 -0.014437  0.000001 -0.000000
  0O   3pz       -0.000003  0.005770  0.000065 -0.651193  0.000006  0.000010
  0O   3px        0.295403  0.000000 -1.003525 -0.000087  0.362204  0.144679
  0O   3py       -0.000001  0.656053 -0.000001  0.005728 -0.000000 -0.000000
  0O   1dz2      -0.010677 -0.000000 -0.014878 -0.000001 -0.001006 -0.025407
  0O   1dxz       0.000002  0.000025  0.000003 -0.003030 -0.000001  0.000002
  0O   1dyz      -0.000030  0.000000 -0.000003  0.000000  0.000166  0.000082
  0O   1dx2y2     0.021940 -0.000000  0.026122  0.000002 -0.017097  0.034658
  0O   1dxy      -0.000000  0.002797 -0.000000  0.000027  0.000000  0.000000
  0O   2dz2      -0.072296 -0.000000  0.331383  0.000029 -0.244948  0.677004
  0O   2dxz      -0.000012 -0.002042 -0.000010  0.223622 -0.000013  0.000002
  0O   2dyz       0.000268  0.000003  0.000011  0.000000  0.000119 -0.000026
  0O   2dx2y2     0.094800  0.000000 -0.575184 -0.000049  0.410708 -1.169617
  0O   2dxy      -0.000002 -0.232165  0.000000 -0.001967  0.000000  0.000000
  0O   1f0       -0.000000 -0.000012  0.000000  0.005803 -0.000001 -0.000001
  0O   1f+1       0.083515  0.000000  0.067061  0.000003 -0.009513 -0.118670
  0O   1f-1       0.000000 -0.000523 -0.000000  0.000060  0.000000 -0.000000
  0O   1f+2      -0.000000  0.000167  0.000000 -0.013291  0.000002  0.000004
  0O   1f-2       0.000017  0.000001  0.000029  0.000000  0.000028 -0.000277
  0O   1f+3       0.109419  0.000000  0.089284  0.000006 -0.009655 -0.178898
  0O   1f-3      -0.000000 -0.016158 -0.000000 -0.000143 -0.000000  0.000000
  1H   1s        -0.917033 -0.000000 -0.100476  0.000010 -0.270978  1.040914
  1H   2s         2.284966  0.000000  1.961980  0.000133 -0.614754  2.103235
  1H   3s        -0.815095 -0.000000  0.126951  0.000013 -0.615979 -0.522896
  1H   1pz        0.000035  0.003142  0.000035 -0.343206  0.000015 -0.000002
  1H   1px       -1.075927  0.000000 -1.427485 -0.000114  0.601974 -1.876696
  1H   1py        0.000002  0.357293 -0.000000  0.003019 -0.000000  0.000000
                     24        25        26        27        28        29   
                   4.95289   4.95308   4.96324   4.96368   5.18865   5.23755
                   0.00000   0.00000   0.00000   0.00000   0.00000   0.00000
                  --------  --------  --------  --------  --------  --------
  0O   1s        -0.000001  0.000854  0.000000 -0.000001 -0.000000  0.000000
  0O   2s        -0.000003  0.003286  0.000000 -0.000002 -0.000000  0.000001
  0O   3s         0.000034 -0.042512 -0.000001  0.000027  0.000000 -0.000008
  0O   4s        -0.000076  0.094795  0.000001 -0.000058 -0.000000  0.000016
  0O   5s         0.000004 -0.005035 -0.000000  0.000005  0.000000 -0.000008
  0O   1pz        0.000000  0.000001 -0.000022  0.002137  0.000345 -0.039890
  0O   1px        0.000012 -0.014487 -0.000000  0.000008 -0.000000 -0.000001
  0O   1py       -0.000000  0.000000 -0.002510 -0.000019  0.039281  0.000351
  0O   2pz        0.000000 -0.000007  0.000148 -0.015597 -0.000918  0.100724
  0O   2px       -0.000066  0.082424  0.000001 -0.000047 -0.000000  0.000007
  0O   2py        0.000003 -0.000000  0.016845  0.000139 -0.104443 -0.000886
  0O   3pz       -0.000000 -0.000001 -0.000002  0.000825 -0.000426  0.049746
  0O   3px        0.000003 -0.003987 -0.000000  0.000003 -0.000000 -0.000003
  0O   3py        0.000002  0.000000 -0.000284 -0.000007 -0.048506 -0.000437
  0O   1dz2      -0.000225  0.009714  0.000000 -0.000006  0.000000  0.000000
  0O   1dxz       0.000000 -0.000005  0.000109 -0.009672 -0.002102  0.235258
  0O   1dyz      -0.014265 -0.000271 -0.000000 -0.000000  0.000002  0.000000
  0O   1dx2y2    -0.000136  0.012753  0.000000 -0.000008 -0.000000 -0.000000
  0O   1dxy       0.000009 -0.000000  0.012354  0.000086 -0.239059 -0.002069
  0O   2dz2       0.000274 -0.033238 -0.000000  0.000018  0.000000 -0.000001
  0O   2dxz      -0.000000 -0.000002  0.000057 -0.005950 -0.000449  0.053812
  0O   2dyz       0.016218  0.000303 -0.000003 -0.000000 -0.000001 -0.000000
  0O   2dx2y2     0.000123  0.024533  0.000000 -0.000014 -0.000000  0.000003
  0O   2dxy       0.000003 -0.000000  0.006526  0.000053 -0.051095 -0.000473
  0O   1f0        0.000007 -0.000409  0.020501 -0.755506  0.006804 -0.663992
  0O   1f+1      -0.014523  0.778973  0.000013 -0.000428 -0.000000  0.000008
  0O   1f-1       0.000164  0.000001  0.949283  0.025441  0.315977  0.003598
  0O   1f+2       0.000005 -0.000365  0.016619 -0.654686 -0.006005  0.770034
  0O   1f-2      -0.999716 -0.018375  0.000180  0.000006 -0.000023 -0.000001
  0O   1f+3       0.011268 -0.626300 -0.000010  0.000343  0.000000 -0.000002
  0O   1f-3      -0.000079  0.000000 -0.313563 -0.007075  0.965442  0.008292
  1H   1s         0.000033 -0.040928 -0.000001  0.000023  0.000000  0.000000
  1H   2s         0.000044 -0.054687 -0.000001  0.000031  0.000000 -0.000007
  1H   3s        -0.000009  0.011243  0.000000 -0.000007 -0.000000  0.000005
  1H   1pz       -0.000000  0.000015 -0.000229  0.021830  0.003122 -0.353926
  1H   1px       -0.000044  0.054426  0.000001 -0.000031 -0.000000  0.000002
  1H   1py       -0.000014  0.000000 -0.025942 -0.000195  0.355086  0.003112
                     30        31        32        33        34        35   
                   5.87651   5.98627   5.99220   6.10973   6.16756   6.72878
                   0.00000   0.00000   0.00000   0.00000   0.00000   0.00000
                  --------  --------  --------  --------  --------  --------
  0O   1s        -0.012675  0.000001  0.005986 -0.000000  0.000000  0.017840
  0O   2s        -0.044812  0.000002  0.018161 -0.000000  0.000000  0.059263
  0O   3s         0.635691 -0.000024 -0.211119  0.000000  0.000001 -0.863357
  0O   4s        -1.473689  0.000050  0.444949 -0.000001 -0.000009  1.873785
  0O   5s         0.210222 -0.000006 -0.047804 -0.000000 -0.000004  0.461293
  0O   1pz        0.000000 -0.000000 -0.000000  0.000174 -0.020086 -0.000001
  0O   1px        0.215496 -0.000007 -0.062619  0.000000  0.000000 -0.316728
  0O   1py       -0.000000  0.000001 -0.000000  0.019850  0.000177  0.000000
  0O   2pz       -0.000001  0.000000 -0.000000 -0.000673  0.075424  0.000002
  0O   2px       -1.143948  0.000037  0.333073 -0.000000 -0.000009  1.715831
  0O   2py        0.000000 -0.000002  0.000000 -0.076529 -0.000663 -0.000000
  0O   3pz        0.000001 -0.000000 -0.000001 -0.000357  0.040336 -0.000001
  0O   3px        0.141017 -0.000003 -0.024492 -0.000000 -0.000002  0.343855
  0O   3py        0.000000 -0.000002  0.000000 -0.040651 -0.000355  0.000000
  0O   1dz2       0.156806 -0.017837 -1.061648  0.000000 -0.000012  0.484124
  0O   1dxz       0.000004  0.000000  0.000013  0.010158 -1.156278 -0.000001
  0O   1dyz       0.004836 -1.163598  0.019999  0.000027  0.000000 -0.000576
  0O   1dx2y2    -0.821742 -0.010276 -0.421282 -0.000000 -0.000007 -0.773080
  0O   1dxy      -0.000000  0.000026 -0.000000  1.155467  0.010165  0.000000
  0O   2dz2       0.212552  0.009070  0.450778  0.000000  0.000009 -0.803017
  0O   2dxz      -0.000004 -0.000000 -0.000008 -0.006448  0.729858  0.000001
  0O   2dyz      -0.002480  0.592339 -0.010176 -0.000014 -0.000000  0.000281
  0O   2dx2y2    -0.085985  0.005248  0.369250 -0.000000 -0.000001  1.358862
  0O   2dxy       0.000000 -0.000017  0.000000 -0.733464 -0.006416 -0.000000
  0O   1f0        0.000002  0.000000  0.000002  0.001481 -0.161936 -0.000001
  0O   1f+1       0.468345  0.000157 -0.118942  0.000000  0.000003 -0.543547
  0O   1f-1      -0.000000 -0.000000 -0.000000  0.068774  0.000639  0.000000
  0O   1f+2      -0.000002  0.000000 -0.000001 -0.001795  0.204934  0.000002
  0O   1f-2      -0.000365  0.012230 -0.000136  0.000001 -0.000000  0.000161
  0O   1f+3       0.570701 -0.000150 -0.166090  0.000000  0.000001 -0.686774
  0O   1f-3      -0.000000  0.000009 -0.000000  0.255510  0.002207  0.000000
  1H   1s         0.703947 -0.000023 -0.205258  0.000000  0.000001 -1.087641
  1H   2s         0.554416 -0.000021 -0.188959  0.000000  0.000015 -1.664999
  1H   3s        -0.124986  0.000004  0.037851 -0.000000 -0.000002  0.131473
  1H   1pz        0.000003  0.000000  0.000004  0.002523 -0.283765  0.000001
  1H   1px       -0.881300  0.000028  0.252519 -0.000000 -0.000010  1.222829
  1H   1py       -0.000000  0.000008 -0.000000  0.286998  0.002495  0.000000
                     36   
                  42.57346
                   0.00000
                  --------
  0O   1s         1.388505
  0O   2s        -1.686890
  0O   3s         1.499321
  0O   4s        -1.529369
  0O   5s         0.607580
  0O   1pz        0.000000
  0O   1px        0.041739
  0O   1py       -0.000000
  0O   2pz       -0.000000
  0O   2px       -0.244422
  0O   2py        0.000000
  0O   3pz        0.000000
  0O   3px        0.070416
  0O   3py       -0.000000
  0O   1dz2      -0.006779
  0O   1dxz       0.000000
  0O   1dyz      -0.000006
  0O   1dx2y2     0.012418
  0O   1dxy      -0.000000
  0O   2dz2       0.060859
  0O   2dxz      -0.000000
  0O   2dyz       0.000002
  0O   2dx2y2    -0.105617
  0O   2dxy       0.000000
  0O   1f0        0.000000
  0O   1f+1       0.025681
  0O   1f-1      -0.000000
  0O   1f+2      -0.000000
  0O   1f-2      -0.000000
  0O   1f+3       0.033153
  0O   1f-3       0.000000
  1H   1s         0.099154
  1H   2s         0.223035
  1H   3s        -0.212681
  1H   1pz        0.000000
  1H   1px       -0.159220
  1H   1py        0.000000

                      0         1         2         3         4         5   
                 -18.81656  -0.85588  -0.39256  -0.26298  -0.22767   0.03484
                   1.00000   1.00000   1.00000   1.00000   0.00000   0.00000
                  --------  --------  --------  --------  --------  --------
  0O   1s        -0.435666  0.101305  0.035255 -0.000001 -0.000000  0.032016
  0O   2s        -0.638943  0.235962  0.083393 -0.000002 -0.000000  0.078202
  0O   3s        -0.034868 -0.350891 -0.133109  0.000008  0.000000 -0.158520
  0O   4s         0.021673 -0.453805 -0.162091 -0.000016  0.000000 -0.091802
  0O   5s        -0.008268 -0.197113 -0.220577  0.000000 -0.000000 -0.778820
  0O   1pz        0.000000  0.000003 -0.000028 -0.488127 -0.004146  0.000017
  0O   1px       -0.001421 -0.088423  0.407159 -0.000034 -0.000000 -0.208110
  0O   1py       -0.000000 -0.000000 -0.000000  0.004287 -0.472043 -0.000000
  0O   2pz       -0.000000  0.000002 -0.000017 -0.377629 -0.003292  0.000032
  0O   2px        0.003105 -0.071489  0.301432 -0.000043 -0.000000 -0.110634
  0O   2py        0.000000 -0.000000 -0.000000  0.003317 -0.374916 -0.000000
  0O   3pz        0.000000  0.000005 -0.000033 -0.346036 -0.003212 -0.000033
  0O   3px       -0.001113 -0.009332  0.190782 -0.000018 -0.000000 -0.461297
  0O   3py       -0.000000 -0.000000 -0.000000  0.003039 -0.365713  0.000000
  0O   1dz2      -0.000128  0.000470 -0.004718  0.000000  0.000000 -0.001630
  0O   1dxz       0.000000 -0.000000  0.000000 -0.003419 -0.000023  0.000001
  0O   1dyz       0.000008  0.000064  0.000020 -0.000000  0.000000  0.000029
  0O   1dx2y2    -0.000641 -0.008148  0.005934 -0.000001 -0.000000 -0.000428
  0O   1dxy       0.000000  0.000000  0.000000  0.000030 -0.002668 -0.000000
  0O   2dz2      -0.000559  0.004330 -0.008568  0.000005  0.000000 -0.005986
  0O   2dxz      -0.000000  0.000004 -0.000005 -0.016970 -0.000138 -0.000001
  0O   2dyz      -0.000002  0.000060  0.000023  0.000000 -0.000002  0.000008
  0O   2dx2y2     0.001245 -0.014373  0.012225 -0.000004  0.000000  0.009417
  0O   2dxy      -0.000000  0.000000  0.000000  0.000149 -0.015721  0.000000
  0O   1f0        0.000000 -0.000000  0.000000  0.001443 -0.000040 -0.000001
  0O   1f+1      -0.000217  0.002032 -0.002428  0.000002  0.000000 -0.000123
  0O   1f-1       0.000000  0.000000  0.000000  0.000027 -0.001850 -0.000000
  0O   1f+2       0.000000  0.000001 -0.000000 -0.004197 -0.000097  0.000001
  0O   1f-2       0.000000  0.000014 -0.000018 -0.000000  0.000001  0.000012
  0O   1f+3      -0.000261  0.003917 -0.004822  0.000001  0.000000  0.000962
  0O   1f-3      -0.000000 -0.000000 -0.000000 -0.000045  0.006610  0.000000
  1H   1s        -0.000995 -0.111985  0.163982 -0.000015 -0.000000  0.077415
  1H   2s        -0.002534 -0.082673  0.215228  0.000030 -0.000000  0.134516
  1H   3s         0.002831 -0.011633  0.058812 -0.000001  0.000000  1.500673
  1H   1pz        0.000000  0.000008 -0.000013 -0.024059 -0.000234 -0.000012
  1H   1px        0.001611  0.018974 -0.017063 -0.000012  0.000000  0.053527
  1H   1py        0.000000 -0.000000  0.000000  0.000211 -0.026608  0.000000
                      6         7         8         9        10        11   
                   0.35234   0.36503   0.38342   0.40855   0.54791   1.17523
                   0.00000   0.00000   0.00000   0.00000   0.00000   0.00000
                  --------  --------  --------  --------  --------  --------
  0O   1s         0.012461 -0.035762  0.000014 -0.000000  0.047762  0.000001
  0O   2s         0.028253 -0.074132  0.000026 -0.000000  0.099127  0.000003
  0O   3s        -0.003362 -0.043481  0.000047 -0.000000  0.074131 -0.000012
  0O   4s        -0.198737  1.081411 -0.000561  0.000005 -1.929167 -0.000006
  0O   5s        -0.584580 -1.020357  0.000755 -0.000005  3.566096  0.000114
  0O   1pz        0.000091  0.000156  0.329760 -0.002904 -0.000007 -0.069409
  0O   1px       -0.197906 -0.259423  0.000176 -0.000001 -0.187892 -0.000006
  0O   1py       -0.000001  0.000000 -0.002888 -0.331555  0.000000  0.000611
  0O   2pz        0.000181  0.000324  0.682327 -0.006147 -0.000015 -0.028744
  0O   2px       -0.439221 -0.510511  0.000303 -0.000002 -0.301019  0.000026
  0O   2py       -0.000002  0.000000 -0.005976 -0.701700  0.000000  0.000253
  0O   3pz       -0.000313 -0.000573 -1.225526  0.010710  0.000045 -0.158313
  0O   3px       -0.737052  1.117947 -0.000282  0.000005  1.629581  0.000064
  0O   3py        0.000003 -0.000000  0.010734  1.222791 -0.000000  0.001394
  0O   1dz2      -0.012644  0.004729  0.000001  0.000000  0.006627  0.000001
  0O   1dxz       0.000002  0.000002  0.004371 -0.000033  0.000000  0.006391
  0O   1dyz       0.000012 -0.000028  0.000000 -0.000000  0.000046 -0.000000
  0O   1dx2y2     0.020533 -0.004971 -0.000004  0.000000 -0.016741  0.000001
  0O   1dxy      -0.000000  0.000000 -0.000038 -0.003772  0.000000 -0.000056
  0O   2dz2       0.030304 -0.013761  0.000011 -0.000000 -0.028569 -0.000038
  0O   2dxz      -0.000004 -0.000003 -0.003028  0.000023 -0.000009  0.612281
  0O   2dyz       0.000079  0.000016  0.000000  0.000004 -0.000059  0.000001
  0O   2dx2y2    -0.061536  0.022015 -0.000010 -0.000000  0.056251  0.000005
  0O   2dxy       0.000000 -0.000000  0.000026  0.002643 -0.000000 -0.005391
  0O   1f0       -0.000000 -0.000000 -0.000319 -0.000026 -0.000001  0.002329
  0O   1f+1       0.008020 -0.000816  0.000000 -0.000000 -0.004833 -0.000005
  0O   1f-1      -0.000000 -0.000000 -0.000017 -0.001216 -0.000000 -0.000008
  0O   1f+2       0.000001  0.000001  0.001732 -0.000053  0.000001 -0.003008
  0O   1f-2       0.000014  0.000009 -0.000000  0.000000  0.000009  0.000000
  0O   1f+3       0.011693 -0.000220 -0.000000 -0.000000 -0.005392 -0.000002
  0O   1f-3       0.000000 -0.000000  0.000019  0.003316  0.000000 -0.000032
  1H   1s         0.190918  0.003419 -0.000068  0.000000  0.061992  0.000035
  1H   2s         2.073302 -0.265442 -0.000356 -0.000002 -0.622032 -0.000100
  1H   3s        -0.932142  0.066277  0.000091  0.000001 -1.750098 -0.000031
  1H   1pz       -0.000011 -0.000002  0.002693 -0.000015 -0.000031  0.569085
  1H   1px       -0.109677  0.038646 -0.000025  0.000000  0.092360  0.000048
  1H   1py       -0.000000  0.000000 -0.000023 -0.001724  0.000000 -0.005011
                     12        13        14        15        16        17   
                   1.18059   1.41995   1.42812   1.54840   1.99683   2.00478
                   0.00000   0.00000   0.00000   0.00000   0.00000   0.00000
                  --------  --------  --------  --------  --------  --------
  0O   1s        -0.000000 -0.000000  0.000215 -0.008488 -0.000002 -0.000000
  0O   2s        -0.000000 -0.000000  0.000025 -0.029794 -0.000005 -0.000000
  0O   3s         0.000000 -0.000001  0.007937  0.265782  0.000030  0.000001
  0O   4s         0.000000  0.000002 -0.018410 -0.572518 -0.000042 -0.000004
  0O   5s        -0.000001  0.000013 -0.064999 -0.915327 -0.000005  0.000001
  0O   1pz        0.000594  0.000000  0.000001 -0.000012  0.250956  0.002086
  0O   1px        0.000000 -0.000001  0.005079  0.157161  0.000017  0.000001
  0O   1py        0.067432  0.000006  0.000000 -0.000000 -0.002205  0.237410
  0O   2pz        0.000290  0.000000 -0.000004  0.000004 -0.182502 -0.001384
  0O   2px       -0.000000  0.000004 -0.025024 -0.613857 -0.000028 -0.000004
  0O   2py        0.032984 -0.000005 -0.000000  0.000000  0.001604 -0.157465
  0O   3pz        0.001403 -0.000000  0.000002  0.000005  0.362505  0.003098
  0O   3px       -0.000001  0.000010 -0.055307 -0.871568 -0.000007  0.000001
  0O   3py        0.159382  0.000013  0.000001 -0.000000 -0.003186  0.352637
  0O   1dz2      -0.000000  0.000134 -0.008032 -0.000577 -0.000000 -0.000000
  0O   1dxz      -0.000049 -0.000000  0.000000  0.000001 -0.006301 -0.000067
  0O   1dyz      -0.000001  0.008736  0.000172 -0.000040  0.000000 -0.000000
  0O   1dx2y2     0.000000  0.000078 -0.005570  0.005594 -0.000001  0.000000
  0O   1dxy      -0.005518 -0.000001 -0.000000  0.000000  0.000055 -0.007666
  0O   2dz2      -0.000000 -0.015429  0.900154  0.525667 -0.000008 -0.000000
  0O   2dxz      -0.005351 -0.000000  0.000024 -0.000001  0.953927  0.008440
  0O   2dyz       0.000041 -1.004253 -0.017793  0.000957  0.000000  0.000000
  0O   2dx2y2    -0.000001 -0.008896  0.447456 -1.019515  0.000001  0.000000
  0O   2dxy      -0.607743 -0.000025 -0.000001  0.000000 -0.008382  0.960514
  0O   1f0       -0.000020  0.000000 -0.000001 -0.000001  0.007611  0.000089
  0O   1f+1       0.000000 -0.000112  0.008189  0.041152  0.000002  0.000000
  0O   1f-1      -0.000949 -0.000001 -0.000000 -0.000000 -0.000043  0.004158
  0O   1f+2       0.000032  0.000000 -0.000001  0.000001 -0.008723 -0.000056
  0O   1f-2       0.000001 -0.007944 -0.000136 -0.000002 -0.000000  0.000002
  0O   1f+3       0.000000  0.000086 -0.001924  0.052933  0.000004  0.000000
  0O   1f-3      -0.004187  0.000000 -0.000000  0.000000 -0.000094  0.010589
  1H   1s        -0.000000  0.000004 -0.024414 -0.597470 -0.000039 -0.000002
  1H   2s         0.000001 -0.000026  0.148249  2.844780  0.000062  0.000005
  1H   3s         0.000000  0.000003 -0.020585 -0.509769 -0.000015 -0.000002
  1H   1pz       -0.005061 -0.000000  0.000012  0.000015 -1.034708 -0.009111
  1H   1px       -0.000000  0.000002 -0.013510 -0.368381 -0.000016 -0.000003
  1H   1py       -0.574760 -0.000023 -0.000001  0.000000  0.009092 -1.036846
                     18        19        20        21        22        23   
                   2.07755   2.42021   2.45157   2.48877   2.61109   3.57539
                   0.00000   0.00000   0.00000   0.00000   0.00000   0.00000
                  --------  --------  --------  --------  --------  --------
  0O   1s         0.001329  0.000809 -0.000002 -0.000000  0.126883 -0.045152
  0O   2s        -0.008760 -0.013316 -0.000007 -0.000000  0.417806 -0.175276
  0O   3s         0.386945  0.424559  0.000065  0.000001 -2.589701  1.827055
  0O   4s        -1.583681 -1.324917 -0.000124 -0.000001  3.356567 -3.799337
  0O   5s         0.351531 -0.779766 -0.000024  0.000002 -2.458036  0.511194
  0O   1pz       -0.000025  0.000075 -1.170904  0.010356 -0.000012  0.000007
  0O   1px        0.496351 -0.903986 -0.000062  0.000000  0.210973  0.615454
  0O   1py       -0.000000  0.000000  0.010278  1.179810  0.000001  0.000000
  0O   2pz        0.000018 -0.000109  1.639726 -0.014349  0.000017 -0.000014
  0O   2px       -1.592656  0.048398  0.000018  0.000001 -0.743015 -2.697842
  0O   2py        0.000000 -0.000000 -0.014394 -1.634711 -0.000001 -0.000000
  0O   3pz       -0.000002  0.000049 -0.650284  0.005704 -0.000004  0.000010
  0O   3px        0.286502 -1.006491 -0.000064  0.000001 -0.347406  0.153122
  0O   3py       -0.000001 -0.000000  0.005708  0.649806  0.000000 -0.000000
  0O   1dz2      -0.012346 -0.015557 -0.000001  0.000000 -0.008719 -0.019863
  0O   1dxz       0.000002  0.000003 -0.002712  0.000017  0.000001  0.000002
  0O   1dyz       0.000016  0.000007  0.000000  0.000000  0.000129 -0.000068
  0O   1dx2y2     0.019617  0.026154  0.000002 -0.000000  0.000452  0.042134
  0O   1dxy      -0.000000 -0.000000  0.000024  0.001884  0.000000  0.000000
  0O   2dz2      -0.057943  0.342706  0.000023 -0.000000  0.247105  0.673456
  0O   2dxz      -0.000012 -0.000004  0.218431 -0.001814  0.000012  0.000001
  0O   2dyz      -0.000125 -0.000010  0.000000  0.000002 -0.000054  0.000033
  0O   2dx2y2     0.114672 -0.592497 -0.000038  0.000001 -0.421842 -1.170155
  0O   2dxy      -0.000002 -0.000000 -0.001918 -0.206654 -0.000000  0.000000
  0O   1f0        0.000000  0.000000  0.007885 -0.000071  0.000001 -0.000001
  0O   1f+1       0.084864  0.065964  0.000002 -0.000000  0.006846 -0.131294
  0O   1f-1       0.000000  0.000000 -0.000015 -0.003299 -0.000000 -0.000000
  0O   1f+2      -0.000001 -0.000000 -0.011105  0.000100 -0.000002  0.000004
  0O   1f-2      -0.000010  0.000013  0.000000  0.000001  0.000005  0.000060
  0O   1f+3       0.108662  0.086352  0.000004 -0.000000  0.009269 -0.163880
  0O   1f-3      -0.000000 -0.000000 -0.000119 -0.013572  0.000000  0.000000
  1H   1s        -0.905706 -0.066917  0.000014 -0.000000  0.288498  1.042638
  1H   2s         2.274165  1.947292  0.000090 -0.000001  0.615252  2.094657
  1H   3s        -0.799365  0.140964  0.000013 -0.000000  0.601379 -0.531665
  1H   1pz        0.000035  0.000026 -0.335075  0.002802 -0.000012 -0.000002
  1H   1px       -1.097503 -1.433840 -0.000083  0.000001 -0.604742 -1.864136
  1H   1py        0.000002  0.000000  0.002941  0.319194  0.000000  0.000000
                     24        25        26        27        28        29   
                   5.00463   5.01107   5.04413   5.04792   5.24638   5.26158
                   0.00000   0.00000   0.00000   0.00000   0.00000   0.00000
                  --------  --------  --------  --------  --------  --------
  0O   1s         0.000000 -0.000153  0.000000 -0.000000  0.000000 -0.000000
  0O   2s         0.000000 -0.000832  0.000000 -0.000000  0.000001 -0.000000
  0O   3s        -0.000001  0.012334 -0.000001  0.000000 -0.000008  0.000000
  0O   4s         0.000001 -0.028668  0.000001  0.000000  0.000016 -0.000000
  0O   5s        -0.000000  0.001426 -0.000001  0.000000 -0.000008  0.000000
  0O   1pz        0.000000 -0.000000 -0.001196  0.000008 -0.040667  0.000372
  0O   1px       -0.000000  0.002598  0.000000 -0.000000 -0.000001 -0.000000
  0O   1py        0.000000  0.000000  0.000011  0.000935  0.000357  0.042343
  0O   2pz       -0.000000  0.000001 -0.001546  0.000060  0.099671 -0.000870
  0O   2px        0.000001 -0.022487 -0.000002  0.000000  0.000006 -0.000000
  0O   2py       -0.000000 -0.000000  0.000013  0.006749 -0.000876 -0.098963
  0O   3pz       -0.000000 -0.000001 -0.000882  0.000016  0.050367 -0.000448
  0O   3px       -0.000000  0.000306 -0.000000 -0.000000 -0.000003  0.000000
  0O   3py        0.000002  0.000000  0.000008  0.001807 -0.000443 -0.050989
  0O   1dz2      -0.000168  0.009824  0.000002 -0.000000  0.000000 -0.000000
  0O   1dxz      -0.000000  0.000000 -0.001712  0.000055  0.232971 -0.001994
  0O   1dyz      -0.011012 -0.000173  0.000000  0.000002  0.000000  0.000003
  0O   1dx2y2    -0.000097  0.002656  0.000002 -0.000000 -0.000000 -0.000000
  0O   1dxy       0.000006  0.000000  0.000015  0.006226 -0.002047 -0.226924
  0O   2dz2       0.000206 -0.005584 -0.000001  0.000000 -0.000001  0.000000
  0O   2dxz      -0.000000  0.000001 -0.002323  0.000055  0.055885 -0.000526
  0O   2dyz       0.013507  0.000222  0.000000  0.000000  0.000000 -0.000001
  0O   2dx2y2     0.000119 -0.015553 -0.000002  0.000000  0.000003 -0.000000
  0O   2dxy       0.000002  0.000000  0.000020  0.006227 -0.000491 -0.059817
  0O   1f0        0.000001 -0.000123  0.799213 -0.021083 -0.611835  0.004561
  0O   1f+1      -0.013921  0.794664  0.000128 -0.000004  0.000010 -0.000000
  0O   1f-1       0.000021 -0.000001 -0.025573 -0.978337  0.001878  0.211999
  0O   1f+2       0.000000 -0.000105  0.600478 -0.015821  0.812878 -0.007778
  0O   1f-2      -0.999769 -0.017608 -0.000003 -0.000026 -0.000001 -0.000021
  0O   1f+3       0.010783 -0.606671 -0.000097  0.000003 -0.000003  0.000000
  0O   1f-3      -0.000026 -0.000000  0.006470  0.205626  0.008747  0.996347
  1H   1s        -0.000000  0.012443  0.000001 -0.000000  0.000000  0.000000
  1H   2s        -0.000001  0.015866  0.000002 -0.000000 -0.000007  0.000000
  1H   3s         0.000000 -0.002836  0.000000  0.000000  0.000005 -0.000000
  1H   1pz        0.000000  0.000003  0.005852 -0.000158 -0.354390  0.003120
  1H   1px        0.000001 -0.016524 -0.000001  0.000000  0.000002 -0.000000
  1H   1py       -0.000009 -0.000000 -0.000051 -0.017827  0.003114  0.355033
                     30        31        32        33        34        35   
                   5.92247   6.08628   6.10912   6.18164   6.21341   6.75961
                   0.00000   0.00000   0.00000   0.00000   0.00000   0.00000
                  --------  --------  --------  --------  --------  --------
  0O   1s         0.015302  0.000000 -0.003740  0.000000 -0.000000  0.016500
  0O   2s         0.051693  0.000000 -0.011617 -0.000000 -0.000000  0.055682
  0O   3s        -0.689035 -0.000002  0.125233  0.000006  0.000000 -0.834895
  0O   4s         1.556859  0.000005 -0.253648 -0.000018 -0.000001  1.827276
  0O   5s        -0.215665 -0.000000  0.024377 -0.000003 -0.000000  0.470152
  0O   1pz       -0.000000 -0.000000  0.000000 -0.020748  0.000196 -0.000001
  0O   1px       -0.226727 -0.000001  0.035569  0.000001  0.000000 -0.314510
  0O   1py        0.000000 -0.000001 -0.000000  0.000182  0.022325 -0.000000
  0O   2pz        0.000001  0.000000 -0.000002  0.075210 -0.000661  0.000002
  0O   2px        1.191885  0.000003 -0.184904 -0.000016 -0.000001  1.689717
  0O   2py       -0.000000  0.000002  0.000000 -0.000661 -0.075198 -0.000000
  0O   3pz       -0.000001  0.000000 -0.000001  0.040188 -0.000350 -0.000001
  0O   3px       -0.136824 -0.000000  0.009223 -0.000002 -0.000000  0.346503
  0O   3py        0.000000  0.000001  0.000000 -0.000353 -0.039765  0.000000
  0O   1dz2      -0.516334  0.017718 -0.962669 -0.000029 -0.000001  0.439144
  0O   1dxz      -0.000001 -0.000001  0.000035 -1.156781  0.010181 -0.000002
  0O   1dyz       0.002447  1.163607  0.020307  0.000000  0.000020  0.000446
  0O   1dx2y2     0.615717  0.010231 -0.642443 -0.000019 -0.000001 -0.811443
  0O   1dxy       0.000000 -0.000019 -0.000002  0.010171  1.157969  0.000000
  0O   2dz2      -0.044391 -0.008950  0.535967  0.000019  0.000001 -0.773966
  0O   2dxz       0.000002  0.000000 -0.000022  0.728784 -0.006392  0.000001
  0O   2dyz      -0.001253 -0.587765 -0.010239 -0.000000 -0.000011 -0.000222
  0O   2dx2y2     0.219547 -0.005166  0.236334  0.000002  0.000000  1.365832
  0O   2dxy      -0.000000  0.000012  0.000001 -0.006408 -0.727058 -0.000000
  0O   1f0       -0.000002 -0.000000  0.000006 -0.157539  0.001299 -0.000001
  0O   1f+1      -0.465118 -0.000132  0.073936  0.000006  0.000000 -0.528404
  0O   1f-1       0.000000  0.000001 -0.000000  0.000535  0.060317  0.000000
  0O   1f+2       0.000002  0.000000 -0.000006  0.205607 -0.001816  0.000002
  0O   1f-2      -0.000136 -0.009402 -0.000131 -0.000000  0.000001 -0.000053
  0O   1f+3      -0.613104  0.000100  0.083295  0.000004  0.000000 -0.687097
  0O   1f-3       0.000000 -0.000007 -0.000000  0.002214  0.246498  0.000000
  1H   1s        -0.734772 -0.000002  0.113556  0.000006  0.000000 -1.072787
  1H   2s        -0.594765 -0.000002  0.112922  0.000020  0.000000 -1.648792
  1H   3s         0.132212  0.000000 -0.022106 -0.000003 -0.000000  0.126648
  1H   1pz       -0.000002 -0.000000  0.000010 -0.282404  0.002461  0.000001
  1H   1px        0.916403  0.000003 -0.139039 -0.000015 -0.000000  1.203527
  1H   1py        0.000000 -0.000006 -0.000000  0.002483  0.279925  0.000000
                     36   
                  42.60300
                   0.00000
                  --------
  0O   1s         1.388351
  0O   2s        -1.687159
  0O   3s         1.499556
  0O   4s        -1.529143
  0O   5s         0.607427
  0O   1pz        0.000000
  0O   1px        0.041767
  0O   1py       -0.000000
  0O   2pz       -0.000000
  0O   2px       -0.244322
  0O   2py        0.000000
  0O   3pz        0.000000
  0O   3px        0.070403
  0O   3py       -0.000000
  0O   1dz2      -0.007052
  0O   1dxz       0.000000
  0O   1dyz       0.000002
  0O   1dx2y2     0.011965
  0O   1dxy       0.000000
  0O   2dz2       0.060912
  0O   2dxz      -0.000000
  0O   2dyz      -0.000001
  0O   2dx2y2    -0.105437
  0O   2dxy       0.000000
  0O   1f0        0.000000
  0O   1f+1       0.025663
  0O   1f-1      -0.000000
  0O   1f+2      -0.000000
  0O   1f-2       0.000000
  0O   1f+3       0.033169
  0O   1f-3       0.000000
  1H   1s         0.099117
  1H   2s         0.222896
  1H   3s        -0.212595
  1H   1pz        0.000000
  1H   1px       -0.159136
  1H   1py        0.000000



                    ********************************
                    * MULLIKEN POPULATION ANALYSIS *
                    ********************************

--------------------------------------------
MULLIKEN ATOMIC CHARGES AND SPIN POPULATIONS
--------------------------------------------
   0 O :   -0.377144    1.020162
   1 H :    0.377144   -0.020162
Sum of atomic charges         :    0.0000000
Sum of atomic spin populations:    1.0000000

-----------------------------------------------------
MULLIKEN REDUCED ORBITAL CHARGES AND SPIN POPULATIONS
-----------------------------------------------------
CHARGE
  0 O s       :     3.924590  s :     3.924590
      pz      :     1.984140  p :     4.441328
      px      :     1.463722
      py      :     0.993465
      dz2     :     0.002250  d :     0.010488
      dxz     :     0.001159
      dyz     :     0.000000
      dx2y2   :     0.006478
      dxy     :     0.000601
      f0      :     0.000068  f :     0.000738
      f+1     :     0.000303
      f-1     :     0.000041
      f+2     :     0.000033
      f-2     :     0.000000
      f+3     :     0.000299
      f-3     :    -0.000005
  1 H s       :     0.582721  s :     0.582721
      pz      :     0.014522  p :     0.040135
      px      :     0.019636
      py      :     0.005976

SPIN
  0 O s       :     0.007465  s :     0.007465
      pz      :     0.000656  p :     1.012161
      px      :     0.018193
      py      :     0.993312
      dz2     :     0.000284  d :     0.000725
      dxz     :     0.000035
      dyz     :     0.000000
      dx2y2   :    -0.000195
      dxy     :     0.000600
      f0      :     0.000054  f :    -0.000189
      f+1     :     0.000073
      f-1     :     0.000041
      f+2     :    -0.000042
      f-2     :     0.000000
      f+3     :    -0.000310
      f-3     :    -0.000005
  1 H s       :    -0.025514  s :    -0.025514
      pz      :    -0.000626  p :     0.005352
      px      :     0.000003
      py      :     0.005975


                     *******************************
                     * LOEWDIN POPULATION ANALYSIS *
                     *******************************

-------------------------------------------
LOEWDIN ATOMIC CHARGES AND SPIN POPULATIONS
-------------------------------------------
   0 O :   -0.184230    0.998022
   1 H :    0.184230    0.001978

----------------------------------------------------
LOEWDIN REDUCED ORBITAL CHARGES AND SPIN POPULATIONS
----------------------------------------------------
CHARGE
  0 O s       :     3.718744  s :     3.718744
      pz      :     1.957900  p :     4.449053
      px      :     1.510124
      py      :     0.981029
      dz2     :     0.003520  d :     0.015156
      dxz     :     0.000377
      dyz     :     0.000000
      dx2y2   :     0.011050
      dxy     :     0.000208
      f0      :     0.000017  f :     0.001278
      f+1     :     0.000505
      f-1     :     0.000024
      f+2     :     0.000023
      f-2     :     0.000000
      f+3     :     0.000678
      f-3     :     0.000031
  1 H s       :     0.665413  s :     0.665413
      pz      :     0.041606  p :     0.150357
      px      :     0.089966
      py      :     0.018785

SPIN
  0 O s       :     0.006960  s :     0.006960
      pz      :     0.000840  p :     0.991081
      px      :     0.009363
      py      :     0.980878
      dz2     :    -0.000183  d :     0.000137
      dxz     :     0.000021
      dyz     :     0.000000
      dx2y2   :     0.000091
      dxy     :     0.000208
      f0      :     0.000016  f :    -0.000156
      f+1     :     0.000033
      f-1     :     0.000024
      f+2     :     0.000019
      f-2     :     0.000000
      f+3     :    -0.000279
      f-3     :     0.000031
  1 H s       :    -0.018344  s :    -0.018344
      pz      :    -0.000818  p :     0.020322
      px      :     0.002358
      py      :     0.018782


                      *****************************
                      * MAYER POPULATION ANALYSIS *
                      *****************************

  NA   - Mulliken gross atomic population
  ZA   - Total nuclear charge
  QA   - Mulliken gross atomic charge
  VA   - Mayer's total valence
  BVA  - Mayer's bonded valence
  FA   - Mayer's free valence

  ATOM       NA         ZA         QA         VA         BVA        FA
  0 O      8.3771     8.0000    -0.3771     1.8574     0.8658     0.9916
  1 H      0.6229     1.0000     0.3771     0.8665     0.8658     0.0007

  Mayer bond orders larger than 0.100000
B(  0-O ,  1-H ) :   0.8658 

Now starting NBO....

 *********************************** NBO 7.0 ***********************************
             N A T U R A L   A T O M I C   O R B I T A L   A N D
          N A T U R A L   B O N D   O R B I T A L   A N A L Y S I S
 *********************** Giovanni  F. Caramori (I101916) ***********************
  (c) Copyright 1996-2020 Board of Regents of the University of Wisconsin System
      on behalf of the Theoretical Chemistry Institute.  All rights reserved.

          Cite this program [NBO 7.0.8 (11-Feb-2020)] as:

          NBO 7.0.  E. D. Glendening, J. K. Badenhoop, A. E. Reed,
          J. E. Carpenter, J. A. Bohmann, C. M. Morales, P. Karafiloglou,
          C. R. Landis, and F. Weinhold, Theoretical Chemistry Institute,
          University of Wisconsin, Madison, WI (2018)

       /NPA    / : Natural Population Analysis
       /NBO    / : Natural Bond Orbital Analysis
       /AONBO  / : Checkpoint the AO to NBO transformation
       /ARCHIVE/ : Write the archive file to lfn47

 Job title: ORCA Job: OH·


[...]
    3. LP ( 2) O  1            14. RY ( 8) O  1           47.32    0.75   0.238
    3. LP ( 2) O  1            15. RY ( 9) O  1            8.21    2.63   0.185
    3. LP ( 2) O  1            33. RY ( 1) H  2            0.34    2.31   0.035
    4. BD ( 1) O  1- H  2       6. BD*( 1) O  1- H  2     19.10    0.98   0.173
    4. BD ( 1) O  1- H  2       7. RY ( 1) O  1            0.72    6.15   0.084
    4. BD ( 1) O  1- H  2      10. RY ( 4) O  1            0.40   32.50   0.143
    4. BD ( 1) O  1- H  2      11. RY ( 5) O  1            4.85    2.51   0.139
    4. BD ( 1) O  1- H  2      22. RY (16) O  1            0.28    2.98   0.037
    4. BD ( 1) O  1- H  2      24. RY (18) O  1            0.26    2.44   0.032
    4. BD ( 1) O  1- H  2      34. RY ( 2) H  2            1.60    2.17   0.074
    4. BD ( 1) O  1- H  2      37. RY ( 5) H  2            4.52    2.17   0.125


 NATURAL BOND ORBITALS (Summary):

                                                     Principal Delocalizations
           NBO                 Occupancy    Energy   (geminal,vicinal,remote)
 ===============================================================================
 Molecular unit  1  (HO)
 ------ Lewis --------------------------------------
    1. CR ( 1) O  1             1.00000   -21.92277  10(g),7(g),11(g),8(g),9(g)
                                                     35(v),6(g),24(g)
    2. LP ( 1) O  1             0.99965    -1.39192  22(g),7(g),8(g),24(g),10(g)
                                                     11(g),35(v),20(g),25(g)
                                                     23(g)
    3. LP ( 2) O  1             0.99949    -0.96242  14(g),5(g),15(g),33(v)
    4. BD ( 1) O  1- H  2       1.00000    -1.27986  6(g),11(g),37(g),34(g),7(g)
                                                     10(g),22(g),24(g)
 ------ non-Lewis ----------------------------------
    5. LV ( 1) O  1             0.00000    -0.56133
    6. BD*( 1) O  1- H  2       0.00000    -0.29659
    7. RY ( 1) O  1             0.00000     4.86648
    8. RY ( 2) O  1             0.00000     1.67375
    9. RY ( 3) O  1             0.00000     6.21806
   10. RY ( 4) O  1             0.00000    31.22506
   11. RY ( 5) O  1             0.00000     1.23232
   12. RY ( 6) O  1             0.00000     0.09578
   13. RY ( 7) O  1             0.00000     1.80427
   14. RY ( 8) O  1             0.00000    -0.20904
   15. RY ( 9) O  1             0.00000     1.66412
   16. RY (10) O  1             0.00000     1.06019
   17. RY (11) O  1             0.00000     5.36219
   18. RY (12) O  1             0.00000     0.99225
   19. RY (13) O  1             0.00000     5.23887
   20. RY (14) O  1             0.00000     1.03021
   21. RY (15) O  1             0.00000     5.24119
   22. RY (16) O  1             0.00000     1.69860
   23. RY (17) O  1             0.00000     4.90414
   24. RY (18) O  1             0.00000     1.16492
   25. RY (19) O  1             0.00000     5.23264
   26. RY (20) O  1             0.00000     4.45755
   27. RY (21) O  1             0.00000     4.46660
   28. RY (22) O  1             0.00000     4.43845
   29. RY (23) O  1             0.00000     4.50763
   30. RY (24) O  1             0.00000     4.36966
   31. RY (25) O  1             0.00000     4.64340
   32. RY (26) O  1             0.00000     4.65469
   33. RY ( 1) H  2             0.00051     1.34877
   34. RY ( 2) H  2             0.00035     0.88782
   35. RY ( 3) H  2             0.00000     1.95053
   36. RY ( 4) H  2             0.00000     1.36095
   37. RY ( 5) H  2             0.00000     0.88647
          -------------------------------
                 Total Lewis    3.99914  ( 99.9784%)
           Valence non-Lewis    0.00000  (  0.0000%)
           Rydberg non-Lewis    0.00086  (  0.0216%)
          -------------------------------
               Total unit  1    4.00000  (100.0000%)
              Charge unit  1    0.50000

 $CHOOSE
  ALPHA
   LONE 1 3 END
   BOND S 1 2 END
  END
  BETA
   LONE 1 2 END
   BOND S 1 2 END
  END
 $END

 NBO analysis completed in 0.07 CPU seconds (0 wall seconds)
 Maximum scratch memory used by NBO was 412682 words (3.15 MB)
Stopping NBO...Storing NBOs: OH·.nbo

                                *** returned from  NBO  program ***

-------
TIMINGS
-------

Total SCF time: 0 days 0 hours 0 min 1 sec 

Total time                  ....       1.110 sec
Sum of individual times     ....       0.981 sec  ( 88.3%)

Fock matrix formation       ....       0.628 sec  ( 56.6%)
  Split-RI-J                ....       0.195 sec  ( 31.1% of F)
  XC integration            ....       0.050 sec  (  8.0% of F)
    Basis function eval.    ....       0.006 sec  ( 11.1% of XC)
    Density eval.           ....       0.008 sec  ( 16.6% of XC)
    XC-Functional eval.     ....       0.003 sec  (  5.1% of XC)
    XC-Potential eval.      ....       0.007 sec  ( 14.9% of XC)
Diagonalization             ....       0.002 sec  (  0.2%)
Density matrix formation    ....       0.000 sec  (  0.0%)
Population analysis         ....       0.124 sec  ( 11.2%)
Initial guess               ....       0.002 sec  (  0.1%)
Orbital Transformation      ....       0.000 sec  (  0.0%)
Orbital Orthonormalization  ....       0.001 sec  (  0.0%)
DIIS solution               ....       0.000 sec  (  0.0%)
Grid generation             ....       0.224 sec  ( 20.2%)


-------------------------------------------------------------------------------
                          DFT DISPERSION CORRECTION                            
                                                                               
                                 DFTD4 V2.0                                    
-------------------------------------------------------------------------------
The BLYP functional is recognized
Active option DFTDOPT                   ...         5   

-------------------------   ----------------
Dispersion correction           -0.000176528
-------------------------   ----------------

------------------   -----------------
gCP correction             0.000619902
------------------   -----------------

-------------------------   --------------------
FINAL SINGLE POINT ENERGY       -75.762905053680
-------------------------   --------------------

                                *** OPTIMIZATION RUN DONE ***

                            ***************************************
                            *     ORCA property calculations      *
                            ***************************************

                                    ---------------------
                                    Active property flags
                                    ---------------------
   (+) Dipole Moment


------------------------------------------------------------------------------
                       ORCA ELECTRIC PROPERTIES CALCULATION
------------------------------------------------------------------------------

Dipole Moment Calculation                       ... on
Quadrupole Moment Calculation                   ... off
Polarizability Calculation                      ... off
GBWName                                         ... OH·.gbw
Electron density file                           ... OH·.scfp
The origin for moment calculation is the CENTER OF MASS  = (-4.507907,  2.564150  0.000000)

-------------
DIPOLE MOMENT
-------------
                                X             Y             Z
Electronic contribution:     -0.03537      -0.00000       0.00004
Nuclear contribution   :      0.87169       0.00000       0.00000
                        -----------------------------------------
Total Dipole Moment    :      0.83632      -0.00000       0.00004
                        -----------------------------------------
Magnitude (a.u.)       :      0.83632
Magnitude (Debye)      :      2.12576



--------------------
Rotational spectrum 
--------------------
 
Rotational constants in cm-1:     0.000000    18.187727    18.187727 
Rotational constants in MHz :     0.000000 545254.343834 545254.343834 

 Dipole components along the rotational axes: 
x,y,z [a.u.] :     0.836321    -0.000001     0.000036 
x,y,z [Debye]:     2.125758    -0.000001     0.000093 

 


           ************************************************************
           *        Program running with 8 parallel MPI-processes     *
           *              working on a common directory               *
           ************************************************************

-------------------------------------------------------------------------------
                               ORCA SCF HESSIAN
-------------------------------------------------------------------------------

Hessian of the Kohn-Sham DFT energy:
Kohn-Sham wavefunction type                      ... UKS
Hartree-Fock exchange scaling                    ...    0.000
Number of operators                              ...    2
Number of atoms                                  ...    2
Basis set dimensions                             ...   37
Integral neglect threshold                       ... 2.5e-11
Integral primitive cutoff                        ... 2.5e-12

Setting up DFT Hessian calculations              ... 
Electron density on the grid                     ... found on disk
Electron density on the final grid               ... found on disk
Building xc-kernel on the grid                   ... done   (      0.0 sec)
Building xc-kernel on the final grid             ... done   (      0.0 sec)
                                                     done   (      0.0 sec)

Nuclear repulsion Hessian                        ... done   (      0.0 sec)

----------------------------------------------
Forming right-hand sides of CP-SCF equations     ...
----------------------------------------------
One electron integral derivatives                ... done   (      0.4 sec)
Transforming the overlap derivative matrices     ... done   (      0.0 sec)
Adding tr(S(x)F(y) C-PCM term to the hessian     ... done   (      0.2 sec)
Making the Q(x) pseudodensities                  ... done   (      0.0 sec)
Adding the E*S(x)*S(y) terms to the Hessian      ... done   (      0.0 sec)
Calculating energy weighted overlap derivatives  ... done   (      0.0 sec)
Two electron integral derivatives (RI)           ... done   (      0.2 sec)
Exchange-correlation integral derivatives        ... done   (      0.2 sec)
tr(F(y)Q(x)) contribution to the Hessian         ... done   (      0.0 sec)
Response fock operator R(S(x)) (RI)              ... done   (      0.2 sec)
XC Response fock operator R(S(x))                ... done   (      0.1 sec)
tr(F(y)S(x)) contribution to the Hessian         ... done   (      0.0 sec)
Transforming and finalizing RHSs                 ... done   (      0.0 sec)

----------------------------------------------
Solving the CP-SCF equations (RI)                ...
----------------------------------------------
     CP-SCF ITERATION   0: 
     CP-SCF ITERATION   1:      0.000397461542
     CP-SCF ITERATION   2:      0.000003691207
     CP-SCF ITERATION   3:      0.000000162847
     CP-SCF ITERATION   4:      0.000000003985

                                                 ... done   (      2.4 sec)
Forming perturbed density Hessian contributions  ... done   (      0.0 sec)
Making the perturbed densities                   ... done   (      0.0 sec)
Calculating [Q*(d^2 A/dXdY)*Q  ] C-PCM term      ... done   (      0.0 sec)
Calculating [d^2(V_N)/(dXdY)*Q ] C-PCM term      ... done   (      0.0 sec)
Calculating [d^2(V_el)/(dXdY)*Q] C-PCM term      ... done   (      0.1 sec)
Calculating C-PCM term that depends on dQ/dX     ... done   (      0.0 sec)
2nd integral derivative contribs (RI)            ... done   (      0.3 sec)
Exchange-correlation Hessian                     ... done   (      0.3 sec)
Dispersion correction in the Hessian             ... 

------------------- 
Dispersion Gradient 
------------------- 
   1  :    0.000047943    0.000000000    0.000000000
   2  :   -0.000051604    0.000000000    0.000000000

  |G| =    0.000099547



------------------- 
Dispersion Gradient 
------------------- 
   1  :    0.000047067    0.000000000    0.000000000
   2  :   -0.000051182    0.000000000    0.000000000

  |G| =    0.000098249

done   (      0.1 sec)
gCP correction in the Hessian                    ... done   (      0.0 sec)
Dipol derivatives                                ... done   (      0.1 sec)

Total SCF Hessian time: 0 days 0 hours 0 min 4 sec 

Writing the Hessian file to the disk             ... done


Maximum memory used throughout the entire calculation: 181.2 MB
Warning: T+R mode no 3 is zero 

-----------------------
VIBRATIONAL FREQUENCIES
-----------------------

Scaling factor for frequencies =  1.000000000  (already applied!)

   0:         0.00 cm**-1
   1:         0.00 cm**-1
   2:         0.00 cm**-1
   3:         0.00 cm**-1
   4:         0.00 cm**-1
   5:      3528.98 cm**-1


------------
NORMAL MODES
------------

These modes are the Cartesian displacements weighted by the diagonal matrix
M(i,i)=1/sqrt(m[i]) where m[i] is the mass of the displaced atom
Thus, these vectors are normalized but *not* orthogonal

                  0          1          2          3          4          5    
      0       0.000000   0.000000   0.000000   0.000000   0.000000   0.062879
      1       0.000000   0.000000   0.000000   0.000000   0.000000   0.000000
      2       0.000000   0.000000   0.000000   0.000000   0.000000   0.000000
      3       0.000000   0.000000   0.000000   0.000000   0.000000  -0.998021
      4       0.000000   0.000000   0.000000   0.000000   0.000000  -0.000000
      5       0.000000   0.000000   0.000000   0.000000   0.000000   0.000000


-----------
IR SPECTRUM
-----------

 Mode    freq (cm**-1)   T**2         TX         TY         TZ
-------------------------------------------------------------------
   5:      3528.98   44.671636  ( -6.683658   0.000065  -0.018820)

The first frequency considered to be a vibration is 5
The total number of vibrations considered is 1


--------------------------
THERMOCHEMISTRY AT 298.15K
--------------------------

Temperature         ... 298.15 K
Pressure            ... 1.00 atm
Total Mass          ... 17.01 AMU
The molecule is recognized as being linear

Throughout the following assumptions are being made:
  (1) The electronic state is orbitally nondegenerate
      but the spin degeneracy is treated
  (2) There are no thermally accessible electronically excited states
  (3) Hindered rotations indicated by low frequency modes are not
      treated as such but are treated as vibrations and this may
      cause some error
  (4) All equations used are the standard statistical mechanics
      equations for an ideal gas
  (5) All vibrations are strictly harmonic

freq.    3528.98  E(vib)   ...       0.00 

------------
INNER ENERGY
------------

The inner energy is: U= E(el) + E(ZPE) + E(vib) + E(rot) + E(trans)
    E(el)   - is the total energy from the electronic structure calculation
              = E(kin-el) + E(nuc-el) + E(el-el) + E(nuc-nuc)
    E(ZPE)  - the the zero temperature vibrational energy from the frequency calculation
    E(vib)  - the the finite temperature correction to E(ZPE) due to population
              of excited vibrational states
    E(rot)  - is the rotational thermal energy
    E(trans)- is the translational thermal energy

Summary of contributions to the inner energy U:
Electronic energy                ...    -75.76290505 Eh
Zero point energy                ...      0.00803961 Eh       5.04 kcal/mol
Thermal vibrational correction   ...      0.00000000 Eh       0.00 kcal/mol
Thermal rotational correction    ...      0.00094418 Eh       0.59 kcal/mol
Thermal translational correction ...      0.00141627 Eh       0.89 kcal/mol
-----------------------------------------------------------------------
Total thermal energy                    -75.75250499 Eh


Summary of corrections to the electronic energy:
(perhaps to be used in another calculation)
Total thermal correction                  0.00236045 Eh       1.48 kcal/mol
Non-thermal (ZPE) correction              0.00803961 Eh       5.04 kcal/mol
-----------------------------------------------------------------------
Total correction                          0.01040006 Eh       6.53 kcal/mol


--------
ENTHALPY
--------

The enthalpy is H = U + kB*T
                kB is Boltzmann's constant
Total free energy                 ...    -75.75250499 Eh 
Thermal Enthalpy correction       ...      0.00094421 Eh       0.59 kcal/mol
-----------------------------------------------------------------------
Total Enthalpy                    ...    -75.75156078 Eh


Note: Rotational entropy computed according to Herzberg 
Infrared and Raman Spectra, Chapter V,1, Van Nostrand Reinhold, 1945 
Point Group:  Cinfv, Symmetry Number:   1  
Rotational constants in cm-1:     0.000000    18.187727    18.187727 

Vibrational entropy computed according to the QRRHO of S. Grimme
Chem.Eur.J. 2012 18 9955


-------
ENTROPY
-------

The entropy contributions are T*S = T*(S(el)+S(vib)+S(rot)+S(trans))
     S(el)   - electronic entropy
     S(vib)  - vibrational entropy
     S(rot)  - rotational entropy
     S(trans)- translational entropy
The entropies will be listed as mutliplied by the temperature to get
units of energy

Electronic entropy                ...      0.00065446 Eh      0.41 kcal/mol
Vibrational entropy               ...      0.00000000 Eh      0.00 kcal/mol
Rotational entropy                ...      0.00324143 Eh      2.03 kcal/mol
Translational entropy             ...      0.01636225 Eh     10.27 kcal/mol
-----------------------------------------------------------------------
Final entropy term                ...      0.02025814 Eh     12.71 kcal/mol

In case the symmetry of your molecule has not been determined correctly
or in case you have a reason to use a different symmetry number we print 
out the resulting rotational entropy values for sn=1,12 :
 --------------------------------------------------------
|  sn= 1 | S(rot)=      -0.06188822 Eh    -38.84 kcal/mol|
|  sn= 2 | S(rot)=      -0.06254268 Eh    -39.25 kcal/mol|
|  sn= 3 | S(rot)=      -0.06292551 Eh    -39.49 kcal/mol|
|  sn= 4 | S(rot)=      -0.06319714 Eh    -39.66 kcal/mol|
|  sn= 5 | S(rot)=      -0.06340782 Eh    -39.79 kcal/mol|
|  sn= 6 | S(rot)=      -0.06357997 Eh    -39.90 kcal/mol|
|  sn= 7 | S(rot)=      -0.06372552 Eh    -39.99 kcal/mol|
|  sn= 8 | S(rot)=      -0.06385159 Eh    -40.07 kcal/mol|
|  sn= 9 | S(rot)=      -0.06396280 Eh    -40.14 kcal/mol|
|  sn=10 | S(rot)=      -0.06406228 Eh    -40.20 kcal/mol|
|  sn=11 | S(rot)=      -0.06415227 Eh    -40.26 kcal/mol|
|  sn=12 | S(rot)=      -0.06423443 Eh    -40.31 kcal/mol|
 --------------------------------------------------------


-------------------
GIBBS FREE ENERGY
-------------------

The Gibbs free energy is G = H - T*S

Total enthalpy                    ...    -75.75156078 Eh 
Total entropy correction          ...     -0.02025814 Eh    -12.71 kcal/mol
-----------------------------------------------------------------------
Final Gibbs free energy         ...    -75.77181893 Eh

For completeness - the Gibbs free energy minus the electronic energy
G-E(el)                           ...     -0.00891387 Eh     -5.59 kcal/mol


Timings for individual modules:

Sum of individual times         ...       11.936 sec (=   0.199 min)
GTO integral calculation        ...        0.806 sec (=   0.013 min)   6.8 %
SCF iterations                  ...        5.133 sec (=   0.086 min)  43.0 %
SCF Gradient evaluation         ...        0.842 sec (=   0.014 min)   7.1 %
Geometry relaxation             ...        0.025 sec (=   0.000 min)   0.2 %
Analytical frequency calculation...        5.129 sec (=   0.085 min)  43.0 %
                             ****ORCA TERMINATED NORMALLY****
TOTAL RUN TIME: 0 days 0 hours 0 minutes 12 seconds 398 msec
