SLURM_JOB_ID=97

                                 *****************
                                 * O   R   C   A *
                                 *****************

           --- An Ab Initio, DFT and Semiempirical electronic structure package ---

                  #######################################################
                  #                        -***-                        #
                  #          Department of theory and spectroscopy      #
                  #               Directorship: Frank Neese             #
                  #        Max Planck Institute fuer Kohlenforschung    #
                  #                Kaiser Wilhelm Platz 1               #
                  #                 D-45470 Muelheim/Ruhr               #
                  #                      Germany                        #
                  #                                                     #
                  #                  All rights reserved                #
                  #                        -***-                        #
                  #######################################################


                         Program Version 4.2.1 -  RELEASE  -


 With contributions from (in alphabetic order):
   Daniel Aravena         : Magnetic Suceptibility
   Michael Atanasov       : Ab Initio Ligand Field Theory (pilot matlab implementation)
   Alexander A. Auer      : GIAO ZORA, VPT2
   Ute Becker             : Parallelization
   Giovanni Bistoni       : ED, misc. LED, open-shell LED, HFLD
   Martin Brehm           : Molecular dynamics
   Dmytro Bykov           : SCF Hessian
   Vijay G. Chilkuri      : MRCI spin determinant printing, contributions to CSF-ICE
   Dipayan Datta          : RHF DLPNO-CCSD density
   Achintya Kumar Dutta   : EOM-CC, STEOM-CC
   Dmitry Ganyushin       : Spin-Orbit,Spin-Spin,Magnetic field MRCI
   Miquel Garcia          : C-PCM Hessian, Gaussian charge scheme
   Yang Guo               : DLPNO-NEVPT2, CIM, IAO-localization
   Andreas Hansen         : Spin unrestricted coupled pair/coupled cluster methods
   Benjamin Helmich-Paris : CASSCF linear response (MC-RPA)
   Lee Huntington         : MR-EOM, pCC
   Robert Izsak           : Overlap fitted RIJCOSX, COSX-SCS-MP3, EOM
   Christian Kollmar      : KDIIS, OOCD, Brueckner-CCSD(T), CCSD density
   Simone Kossmann        : Meta GGA functionals, TD-DFT gradient, OOMP2, MP2 Hessian
   Martin Krupicka        : AUTO-CI
   Lucas Lang             : DCDCAS
   Dagmar Lenk            : GEPOL surface, SMD
   Dimitrios Liakos       : Extrapolation schemes; Compound Job, initial MDCI parallelization
   Dimitrios Manganas     : Further ROCIS development; embedding schemes
   Dimitrios Pantazis     : SARC Basis sets
   Taras Petrenko         : DFT Hessian,TD-DFT gradient, ASA, ECA, R-Raman, ABS, FL, XAS/XES, NRVS
   Peter Pinski           : DLPNO-MP2, DLPNO-MP2 Gradient
   Christoph Reimann      : Effective Core Potentials
   Marius Retegan         : Local ZFS, SOC
   Christoph Riplinger    : Optimizer, TS searches, QM/MM, DLPNO-CCSD(T), (RO)-DLPNO pert. Triples
   Tobias Risthaus        : Range-separated hybrids, TD-DFT gradient, RPA, STAB
   Michael Roemelt        : Original ROCIS implementation
   Masaaki Saitow         : Open-shell DLPNO-CCSD energy and density
   Barbara Sandhoefer     : DKH picture change effects
   Avijit Sen             : IP-ROCIS
   Kantharuban Sivalingam : CASSCF convergence, NEVPT2, FIC-MRCI
   Bernardo de Souza      : ESD, SOC TD-DFT
   Georgi Stoychev        : AutoAux, RI-MP2 NMR
   Willem Van den Heuvel  : Paramagnetic NMR
   Boris Wezisla          : Elementary symmetry handling
   Frank Wennmohs         : Technical directorship


 We gratefully acknowledge several colleagues who have allowed us to
 interface, adapt or use parts of their codes:
   Stefan Grimme, W. Hujo, H. Kruse,             : VdW corrections, initial TS optimization,
                  C. Bannwarth                     DFT functionals, gCP, sTDA/sTD-DF
   Ed Valeev, F. Pavosevic, A. Kumar             : LibInt (2-el integral package), F12 methods
   Garnet Chan, S. Sharma, J. Yang, R. Olivares  : DMRG
   Ulf Ekstrom                                   : XCFun DFT Library
   Mihaly Kallay                                 : mrcc  (arbitrary order and MRCC methods)
   Andreas Klamt, Michael Diedenhofen            : otool_cosmo (COSMO solvation model)
   Jiri Pittner, Ondrej Demel                    : Mk-CCSD
   Frank Weinhold                                : gennbo (NPA and NBO analysis)
   Christopher J. Cramer and Donald G. Truhlar   : smd solvation model
   Lars Goerigk                                  : TD-DFT with DH, B97 family of functionals
   V. Asgeirsson, H. Jonsson                     : NEB implementation
   FAccTs GmbH                                   : IRC, NEB, NEB-TS, Multilevel, MM, QM/MM, CI optimization
   S Lehtola, MJT Oliveira, MAL Marques          : LibXC Library


 Your calculation uses the libint2 library for the computation of 2-el integrals
 For citations please refer to: http://libint.valeyev.net

 Your ORCA version has been built with support for libXC version: 4.2.3
 For citations please refer to: https://tddft.org/programs/libxc/

 This ORCA versions uses:
   CBLAS   interface :  Fast vector & matrix operations
   LAPACKE interface :  Fast linear algebra routines
   SCALAPACK package :  Parallel linear algebra routines




***************************************
The coordinates will be read from file: init.xyz
***************************************


Your calculation utilizes the SMD solvation module
Please cite in your paper:
A.V. Marenich, C.J. Cramer, D.G. Truhlar J. Phys. Chem. B, 113, (2009), 6378 

Your calculation utilizes the semiempirical GFN2-xTB method
Please cite in your paper:
C. Bannwarth, Ehlert S., S. Grimme,  J. Chem. Theory Comput., 15, (2019), 1652.
   

----- Orbital basis set information -----
Your calculation utilizes the basis: def2-SVP
   F. Weigend and R. Ahlrichs, Phys. Chem. Chem. Phys. 7, 3297 (2005).

================================================================================
                                        WARNINGS
                       Please study these warnings very carefully!
================================================================================

WARNING: Gradients needed for Numerical Frequencies
  ===> : Setting RunTyp to EnGrad

WARNING: The environment variable RSH_COMMAND is not set!
  ===> : All Displacements for the Numerical Hessian calculation
         will be started on localhost

WARNING: Found dipole moment calculation with XTB calculation
  ===> : Switching off dipole moment calculation


INFO   : the flag for use of LIBINT has been found!

================================================================================
                                       INPUT FILE
================================================================================
NAME = /tmp/slurm-scratch/freq.97/freq.inp
|  1> ! XTB2 NumFreq
|  2> %maxcore 2000
|  3> 
|  4> * xyzfile 0 1 init.xyz
|  5> 
|  6> %cpcm
|  7>  smd true
|  8>  smdsolvent "ch2cl2"
|  9> end
| 10> %pal nprocs 11 end
| 11> 
| 12>                          ****END OF INPUT****
================================================================================

                     *******************************
                     * Energy+Gradient Calculation *
                     *******************************

      -----------------------------------------------------------      
     |                   =====================                   |     
     |                           x T B                           |     
     |                   =====================                   |     
     |                         S. Grimme                         |     
     |          Mulliken Center for Theoretical Chemistry        |     
     |                    University of Bonn                     |     
      -----------------------------------------------------------      

   * xtb version 6.3.1 (461a024) compiled by 'schneider@apollo14' on 2020-06-26

   xtb is free software: you can redistribute it and/or modify it under
   the terms of the GNU Lesser General Public License as published by
   the Free Software Foundation, either version 3 of the License, or
   (at your option) any later version.
   
   xtb is distributed in the hope that it will be useful,
   but WITHOUT ANY WARRANTY; without even the implied warranty of
   MERCHANTABILITY or FITNESS FOR A PARTICULAR PURPOSE.  See the
   GNU Lesser General Public License for more details.
   
   Cite this work as:
   * S. Grimme, C. Bannwarth, P. Shushkov, J. Chem. Theory Comput., 2017,
     13, 1989-2009. DOI: 10.1021/acs.jctc.7b00118
   * C. Bannwarth, S. Ehlert and S. Grimme., J. Chem. Theory Comput., 2019,
     15, 1652-1671. DOI: 10.1021/acs.jctc.8b01176
   * P. Pracht, E. Caldeweyher, S. Ehlert, S. Grimme, ChemRxiv, 2019, preprint.
     DOI: 10.26434/chemrxiv.8326202.v1
   
   for GFN-FF:
   * S. Spicher and S. Grimme, Angew. Chem. Int. Ed., 2020,
     DOI: 10.1002/anie.202004239
   
   for DFT-D4:
   * E. Caldeweyher, C. Bannwarth and S. Grimme, J. Chem. Phys., 2017,
     147, 034112. DOI: 10.1063/1.4993215
   * E. Caldeweyher, S. Ehlert, A. Hansen, H. Neugebauer, S. Spicher,
     C. Bannwarth and S. Grimme, J. Chem. Phys., 2019, 150, 154122.
     DOI: 10.1063/1.5090222
   
   for sTDA-xTB:
   * S. Grimme and C. Bannwarth, J. Chem. Phys., 2016, 145, 054103.
     DOI: 10.1063/1.4959605
   
   in the mass-spec context:
   * V. Asgeirsson, C. Bauer and S. Grimme, Chem. Sci., 2017, 8, 4879.
     DOI: 10.1039/c7sc00601b
   * J. Koopman and S. Grimme, ACS Omega 2019, 4, 12, 15120-15133.
     DOI: 10.1021/acsomega.9b02011
   
   for metadynamics refer to:
   * S. Grimme, J. Chem. Theory Comput., 2019, 155, 2847-2862
     DOI: 10.1021/acs.jctc.9b00143
   
   with help from (in alphabetical order)
   C. Bannwarth, F. Bohle, G. Brandenburg, E. Caldeweyher, M. Checinski,
   S. Dohm, S. Ehlert, S. Ehrlich, F. März, H. Neugebauer, J. Pisarek,
   P. Pracht, P. Shushkov, and S. Spicher.
   
 * started run on 2020/08/05 at 12:14:18.218     

           -------------------------------------------------
          |                Calculation Setup                |
           -------------------------------------------------

          program call               : /opt/orca/otool_xtb /tmp/slurm-scratch/freq.97/freq_XTB.xyz --grad -c 0 -u 0 -P 11 --namespace /tmp/slurm-scratch/freq.97/freq --gbsa CH2Cl2
          hostname                   : apollo14
          calculation namespace      : /tmp/slurm-scratch/freq.97/freq
          coordinate file            : /tmp/slurm-scratch/freq.97/freq_XTB.xyz
          omp threads                :                    11
          number of atoms            :                    30
          number of electrons        :                    72
          charge                     :                     0
          spin                       :                   0.0
          first test random number   :      0.05859522709275

   ID    Z sym.   atoms
    1    6 C      1-6, 10, 15, 16, 22, 27
    2    1 H      7-9, 11, 14, 17-21, 23-26, 28-30
    3    8 O      12
    4    7 N      13
########################################################################
[WARNING] Please study the warnings concerning your input carefully
-1- prog_main_parseArguments: Process number higher than OMP_NUM_THREADS, I hope you know what you are doing.
########################################################################

           -------------------------------------------------
          |                 G F N 2 - x T B                 |
           -------------------------------------------------

        Reference                      10.1021/acs.jctc.8b01176
      * Hamiltonian:
        H0-scaling (s, p, d)           1.850000    2.230000    2.230000
        zeta-weighting                 0.500000
      * Dispersion:
        s8                             2.700000
        a1                             0.520000
        a2                             5.000000
        s9                             5.000000
      * Repulsion:
        kExp                           1.500000    1.000000
        rExp                           1.000000
      * Coulomb:
        alpha                          2.000000
        third order                    shell-resolved
        anisotropic                    true
        a3                             3.000000
        a5                             4.000000
        cn-shift                       1.200000
        cn-exp                         4.000000
        max-rad                        5.000000

      * Solvation model:               GBSA
        Solvent                        CH2Cl2
        Parameter file                 internal GFN2-xTB/GBSA
        Dielectric constant                8.9300E+00
        Reference state                gsolv [1 M gas/solution]
        Free energy shift                  4.4408E-03 Eh       2.7867E+00 kcal/mol
        Temperature                        2.9815E+02 K
        Density                            1.3300E+00 kg/L
        Solvent mass                       8.4930E+01 g/mol
        Interaction kernel             Still
        Born radius scaling (c1)           1.4917E+00
        Born radii integrator          GBOBC
        Born offset                        0.0000E+00 a0       0.0000E+00 AA
        H-bond correction              false
        Ion screening                  false
        Surface tension                    1.0000E-05 Eh       1.5569E+01 dyn/cm
        Grid points                               230 per atom

          ...................................................
          :                      SETUP                      :
          :.................................................:
          :  # basis functions                  69          :
          :  # atomic orbitals                  69          :
          :  # shells                           43          :
          :  # electrons                        72          :
          :  max. iterations                   250          :
          :  Hamiltonian                  GFN2-xTB          :
          :  restarted?                      false          :
          :  GBSA solvation                   true          :
          :  PC potential                    false          :
          :  electronic temp.          300.0000000     K    :
          :  accuracy                    1.0000000          :
          :  -> integral cutoff          0.2500000E+02      :
          :  -> integral neglect         0.1000000E-07      :
          :  -> SCF convergence          0.1000000E-05 Eh   :
          :  -> wf. convergence          0.1000000E-03 e    :
          :  Broyden damping             0.4000000          :
          ...................................................

 iter      E             dE          RMSdq      gap      omega  full diag
   1    -39.6059013 -0.396059E+02  0.407E+00    4.52       0.0  T
   2    -39.7046697 -0.987684E-01  0.226E+00    3.96       1.0  T
   3    -39.7066078 -0.193812E-02  0.932E-01    3.42       1.0  T
   4    -39.7064869  0.120890E-03  0.297E-01    3.46       1.0  T
   5    -39.7086682 -0.218129E-02  0.799E-02    3.54       1.0  T
   6    -39.7087044 -0.362543E-04  0.313E-02    3.58       1.0  T
   7    -39.7087062 -0.173270E-05  0.130E-02    3.58       1.4  T
   8    -39.7087075 -0.135171E-05  0.389E-03    3.58       4.7  T
   9    -39.7087076 -0.990524E-07  0.203E-03    3.58       9.0  T
  10    -39.7087076 -0.207546E-07  0.757E-04    3.58      24.1  T
  11    -39.7087076 -0.193599E-08  0.346E-04    3.58      52.7  T

   *** convergence criteria satisfied after 11 iterations ***

         #    Occupation            Energy/Eh            Energy/eV
      -------------------------------------------------------------
         1        2.0000           -0.6765907             -18.4110
       ...           ...                  ...                  ...
        30        2.0000           -0.4337938             -11.8041
        31        2.0000           -0.4313890             -11.7387
        32        2.0000           -0.4263522             -11.6016
        33        2.0000           -0.4095954             -11.1457
        34        2.0000           -0.4076986             -11.0940
        35        2.0000           -0.3793627             -10.3230
        36        2.0000           -0.3683677             -10.0238 (HOMO)
        37                         -0.2367207              -6.4415 (LUMO)
        38                         -0.2307197              -6.2782
        39                         -0.1147899              -3.1236
        40                         -0.0506293              -1.3777
        41                         -0.0400614              -1.0901
       ...                                ...                  ...
        69                          0.6390411              17.3892
      -------------------------------------------------------------
                  HL-Gap            0.1316469 Eh            3.5823 eV
             Fermi-level           -0.3025442 Eh           -8.2326 eV

 SCC (total)                   0 d,  0 h,  0 min,  0.113 sec
 SCC setup                      ...        0 min,  0.010 sec (  8.461%)
 Dispersion                     ...        0 min,  0.002 sec (  2.168%)
 classical contributions        ...        0 min,  0.009 sec (  7.736%)
 integral evaluation            ...        0 min,  0.007 sec (  6.472%)
 iterations                     ...        0 min,  0.034 sec ( 30.608%)
 molecular gradient             ...        0 min,  0.048 sec ( 43.059%)
 printout                       ...        0 min,  0.002 sec (  1.471%)

         :::::::::::::::::::::::::::::::::::::::::::::::::::::
         ::                     SUMMARY                     ::
         :::::::::::::::::::::::::::::::::::::::::::::::::::::
         :: total energy             -39.155094197976 Eh    ::
         :: total w/o Gsasa/hb       -39.140044346242 Eh    ::
         :: gradient norm              0.036997678311 Eh/a0 ::
         :: HOMO-LUMO gap              3.582295392457 eV    ::
         ::.................................................::
         :: SCC energy               -39.708707645395 Eh    ::
         :: -> isotropic ES            0.076613973502 Eh    ::
         :: -> anisotropic ES          0.005801770435 Eh    ::
         :: -> anisotropic XC          0.019586066239 Eh    ::
         :: -> dispersion             -0.023988787617 Eh    ::
         :: -> Gsolv                  -0.026452224087 Eh    ::
         ::    -> Gborn               -0.011402372353 Eh    ::
         ::    -> Gsasa               -0.019490680907 Eh    ::
         ::    -> Ghb                  0.000000000000 Eh    ::
         ::    -> Gshift               0.004440829173 Eh    ::
         :: repulsion energy           0.553455897161 Eh    ::
         :: add. restraining           0.000000000000 Eh    ::
         :::::::::::::::::::::::::::::::::::::::::::::::::::::

           -------------------------------------------------
          |                Property Printout                |
           -------------------------------------------------

    * Orbital Energies and Occupations

         #    Occupation            Energy/Eh            Energy/eV
      -------------------------------------------------------------
         1        2.0000           -0.6765907             -18.4110
       ...           ...                  ...                  ...
        24        2.0000           -0.4796558             -13.0521
        25        2.0000           -0.4745343             -12.9127
        26        2.0000           -0.4708607             -12.8128
        27        2.0000           -0.4557426             -12.4014
        28        2.0000           -0.4503120             -12.2536
        29        2.0000           -0.4443068             -12.0902
        30        2.0000           -0.4337938             -11.8041
        31        2.0000           -0.4313890             -11.7387
        32        2.0000           -0.4263522             -11.6016
        33        2.0000           -0.4095954             -11.1457
        34        2.0000           -0.4076986             -11.0940
        35        2.0000           -0.3793627             -10.3230
        36        2.0000           -0.3683677             -10.0238 (HOMO)
        37                         -0.2367207              -6.4415 (LUMO)
        38                         -0.2307197              -6.2782
        39                         -0.1147899              -3.1236
        40                         -0.0506293              -1.3777
        41                         -0.0400614              -1.0901
        42                          0.0571094               1.5540
        43                          0.0803612               2.1867
        44                          0.0855013               2.3266
        45                          0.0942100               2.5636
        46                          0.1122331               3.0540
        47                          0.1237710               3.3680
       ...                                ...                  ...
        69                          0.6390411              17.3892
      -------------------------------------------------------------
                  HL-Gap            0.1316469 Eh            3.5823 eV
             Fermi-level           -0.3025442 Eh           -8.2326 eV

     #   Z        covCN         q      C6AA      α(0)
     1   6 C      2.918    -0.038    28.950     8.823
     2   6 C      2.964    -0.020    28.496     8.756
     3   6 C      2.918    -0.029    28.724     8.789
     4   6 C      2.914    -0.030    28.760     8.794
     5   6 C      2.915    -0.030    28.749     8.792
     6   6 C      2.914    -0.030    28.747     8.792
     7   1 H      0.925     0.031     2.572     2.508
     8   1 H      0.925     0.043     2.412     2.429
     9   1 H      0.925     0.041     2.434     2.440
    10   6 C      3.690     0.182    17.868     6.049
    11   1 H      0.923     0.006     2.964     2.692
    12   8 O      1.087    -0.672    27.794     7.075
    13   7 N      3.416    -0.208    25.524     7.504
    14   1 H      1.000     0.321     0.648     1.258
    15   6 C      3.801    -0.065    21.738     6.638
    16   6 C      3.733    -0.003    20.720     6.497
    17   1 H      0.924     0.065     2.143     2.289
    18   1 H      0.924     0.061     2.187     2.312
    19   1 H      0.924     0.043     2.407     2.426
    20   1 H      0.924     0.042     2.428     2.437
    21   1 H      0.860     0.182     1.205     1.720
    22   6 C      3.800    -0.055    21.559     6.611
    23   1 H      0.924     0.038     2.469     2.457
    24   1 H      0.924     0.036     2.496     2.471
    25   1 H      0.925     0.041     2.431     2.438
    26   1 H      0.925     0.039     2.458     2.451
    27   6 C      3.750    -0.104    22.542     6.771
    28   1 H      0.924     0.039     2.462     2.454
    29   1 H      0.924     0.036     2.500     2.473
    30   1 H      0.924     0.038     2.478     2.462

 Mol. C6AA /au·bohr⁶  :       8197.866306
 Mol. C8AA /au·bohr⁸  :     185476.535303
 Mol. α(0) /au        :        139.609137


Wiberg/Mayer (AO) data.
largest (>0.10) Wiberg bond orders for each atom
          total WBO             WBO to atom ...
     1  C   3.991        C    6 1.445    C    2 1.411    H    7 0.967    C    4 0.111
     2  C   3.986        C    3 1.412    C    1 1.411    C   10 0.980    C    5 0.109
     3  C   3.990        C    4 1.445    C    2 1.412    H    8 0.968    C    6 0.111
     4  C   3.991        C    3 1.445    C    5 1.438    H   26 0.971    C    1 0.111
     5  C   3.991        C    4 1.438    C    6 1.437    H    9 0.971    C    2 0.109
     6  C   3.991        C    1 1.445    C    5 1.437    H   25 0.970    C    3 0.111
     7  H   0.999        C    1 0.967
     8  H   0.998        C    3 0.968
     9  H   0.998        C    5 0.971
    10  C   3.943        O   12 1.069    C    2 0.980    H   11 0.946    N   13 0.873
    11  H   1.000        C   10 0.946
    12  O   1.678        C   10 1.069    H   14 0.350    N   13 0.156
    13  N   3.518        C   16 0.979    H   21 0.942    C   10 0.873    H   14 0.509    O   12 0.156
    14  H   0.897        N   13 0.509    O   12 0.350
    15  C   3.994        C   22 1.005    C   16 1.003    H   19 0.975    H   20 0.973
    16  C   3.960        C   15 1.003    N   13 0.979    H   18 0.971    H   17 0.967
    17  H   0.995        C   16 0.967
    18  H   0.996        C   16 0.971
    19  H   0.998        C   15 0.975
    20  H   0.998        C   15 0.973
    21  H   0.967        N   13 0.942
    22  C   3.995        C   27 1.020    C   15 1.005    H   24 0.978    H   23 0.977
    23  H   0.998        C   22 0.977
    24  H   0.999        C   22 0.978
    25  H   0.998        C    6 0.970
    26  H   0.998        C    4 0.971
    27  C   3.995        C   22 1.020    H   29 0.988    H   30 0.987    H   28 0.987
    28  H   0.998        C   27 0.987
    29  H   0.999        C   27 0.988
    30  H   0.999        C   27 0.987
Topologies differ in total number of bonds
Writing topology from bond orders to xtbtopo.mol

molecular dipole:
                 x           y           z       tot (Debye)
 q only:       -0.895      -0.059      -2.179
   full:       -1.122      -0.014      -2.287       6.475
molecular quadrupole (traceless):
                xx          xy          yy          xz          yz          zz
 q only:       -7.615       2.762       1.127      -7.530      12.921       6.488
  q+dip:       -8.140       4.113       3.952      -8.763      12.526       4.188
   full:       -9.075       4.180       2.379      -8.652      12.175       6.696


           -------------------------------------------------
          | TOTAL ENERGY              -39.155094197976 Eh   |
          | GRADIENT NORM               0.036997678311 Eh/α |
          | HOMO-LUMO GAP               3.582295392457 eV   |
           -------------------------------------------------

------------------------------------------------------------------------
 * finished run on 2020/08/05 at 12:14:18.407     
------------------------------------------------------------------------
 total:
 * wall-time:     0 d,  0 h,  0 min,  0.190 sec
 *  cpu-time:     0 d,  0 h,  0 min,  2.162 sec
 * ratio c/w:    11.398 speedup
 SCF:
 * wall-time:     0 d,  0 h,  0 min,  0.117 sec
 *  cpu-time:     0 d,  0 h,  0 min,  1.360 sec
 * ratio c/w:    11.649 speedup


-------------------------   --------------------
FINAL SINGLE POINT ENERGY       -39.155094197980
-------------------------   --------------------


----------------------------------------------------------------------------
                           ORCA NUMERICAL FREQUENCIES
                              (11-process run)
----------------------------------------------------------------------------

Number of atoms                ... 30
Central differences            ... used
Number of displacements        ... 180
Numerical increment            ... 5.000e-03 bohr
IR-spectrum generation         ... on
Raman-spectrum generation      ... off
Surface Crossing Hessian       ... off
List of participating nodes    ...  /tmp/slurm-scratch/freq.97/freq.hostnames

The output will be reduced. Please look at the following files:
SCF program output             ... >/tmp/slurm-scratch/freq.97/freq.lastscf
Integral program output        ... >/tmp/slurm-scratch/freq.97/freq.lastint
Gradient program output        ... >/tmp/slurm-scratch/freq.97/freq.lastgrad
Dipole moment program output   ... >/tmp/slurm-scratch/freq.97/freq.lastmom
AutoCI program output          ... >/tmp/slurm-scratch/freq.97/freq.lastautoci


         <<< Energy and Gradient at the input geometry >>>

        <<< Energy and Gradient at displaced geometries >>>
             <<<Displacing   3/coordinate 1 (+)>>>
             <<<Displacing   1/coordinate 1 (+)>>>
             <<<Displacing   2/coordinate 2 (+)>>>
             <<<Displacing   3/coordinate 1 (-)>>>
             <<<Displacing   1/coordinate 1 (-)>>>
             <<<Displacing   2/coordinate 2 (-)>>>
             <<<Displacing   3/coordinate 3 (+)>>>
             <<<Displacing   2/coordinate 3 (+)>>>
             <<<Displacing   3/coordinate 3 (-)>>>
             <<<Displacing   2/coordinate 1 (+)>>>
             <<<Displacing   1/coordinate 3 (+)>>>
             <<<Displacing   3/coordinate 2 (+)>>>
             <<<Displacing   1/coordinate 2 (+)>>>
             <<<Displacing   4/coordinate 1 (+)>>>
             <<<Displacing   2/coordinate 3 (-)>>>
             <<<Displacing   4/coordinate 2 (+)>>>
             <<<Displacing   2/coordinate 1 (-)>>>
             <<<Displacing   3/coordinate 2 (-)>>>
             <<<Displacing   1/coordinate 3 (-)>>>
             <<<Displacing   4/coordinate 1 (-)>>>
             <<<Displacing   1/coordinate 2 (-)>>>
             <<<Displacing   4/coordinate 2 (-)>>>
             <<<Displacing   4/coordinate 3 (+)>>>
             <<<Displacing   4/coordinate 3 (-)>>>
             <<<Displacing   6/coordinate 1 (+)>>>
             <<<Displacing   5/coordinate 2 (+)>>>
             <<<Displacing   6/coordinate 2 (+)>>>
             <<<Displacing   6/coordinate 3 (+)>>>
             <<<Displacing   6/coordinate 1 (-)>>>
             <<<Displacing   5/coordinate 2 (-)>>>
             <<<Displacing   5/coordinate 1 (+)>>>
             <<<Displacing   6/coordinate 3 (-)>>>
             <<<Displacing   6/coordinate 2 (-)>>>
             <<<Displacing   7/coordinate 2 (+)>>>
             <<<Displacing   5/coordinate 1 (-)>>>
             <<<Displacing   5/coordinate 3 (+)>>>
             <<<Displacing   7/coordinate 3 (+)>>>
             <<<Displacing   7/coordinate 2 (-)>>>
             <<<Displacing   5/coordinate 3 (-)>>>
             <<<Displacing   7/coordinate 3 (-)>>>
             <<<Displacing   7/coordinate 1 (+)>>>
             <<<Displacing   7/coordinate 1 (-)>>>
             <<<Displacing   8/coordinate 1 (+)>>>
             <<<Displacing   8/coordinate 1 (-)>>>
             <<<Displacing  10/coordinate 3 (+)>>>
             <<<Displacing   8/coordinate 3 (+)>>>
             <<<Displacing   8/coordinate 2 (+)>>>
             <<<Displacing   8/coordinate 3 (-)>>>
             <<<Displacing   8/coordinate 2 (-)>>>
             <<<Displacing  10/coordinate 3 (-)>>>
             <<<Displacing   9/coordinate 2 (+)>>>
             <<<Displacing   9/coordinate 1 (+)>>>
             <<<Displacing  10/coordinate 1 (+)>>>
             <<<Displacing   9/coordinate 3 (+)>>>
             <<<Displacing   9/coordinate 2 (-)>>>
             <<<Displacing   9/coordinate 1 (-)>>>
             <<<Displacing   9/coordinate 3 (-)>>>
             <<<Displacing  10/coordinate 1 (-)>>>
             <<<Displacing  10/coordinate 2 (+)>>>
             <<<Displacing  11/coordinate 1 (+)>>>
             <<<Displacing  10/coordinate 2 (-)>>>
             <<<Displacing  11/coordinate 1 (-)>>>
             <<<Displacing  11/coordinate 3 (+)>>>
             <<<Displacing  11/coordinate 3 (-)>>>
             <<<Displacing  11/coordinate 2 (+)>>>
             <<<Displacing  11/coordinate 2 (-)>>>
             <<<Displacing  12/coordinate 1 (+)>>>
             <<<Displacing  12/coordinate 1 (-)>>>
             <<<Displacing  12/coordinate 2 (+)>>>
             <<<Displacing  12/coordinate 3 (+)>>>
             <<<Displacing  13/coordinate 2 (+)>>>
             <<<Displacing  12/coordinate 3 (-)>>>
             <<<Displacing  13/coordinate 1 (+)>>>
             <<<Displacing  13/coordinate 2 (-)>>>
             <<<Displacing  14/coordinate 1 (+)>>>
             <<<Displacing  12/coordinate 2 (-)>>>
             <<<Displacing  14/coordinate 2 (+)>>>
             <<<Displacing  13/coordinate 1 (-)>>>
             <<<Displacing  14/coordinate 1 (-)>>>
             <<<Displacing  13/coordinate 3 (+)>>>
             <<<Displacing  14/coordinate 2 (-)>>>
             <<<Displacing  14/coordinate 3 (+)>>>
             <<<Displacing  13/coordinate 3 (-)>>>
             <<<Displacing  14/coordinate 3 (-)>>>
             <<<Displacing  15/coordinate 1 (+)>>>
             <<<Displacing  15/coordinate 1 (-)>>>
             <<<Displacing  15/coordinate 2 (+)>>>
             <<<Displacing  15/coordinate 2 (-)>>>
             <<<Displacing  15/coordinate 3 (+)>>>
             <<<Displacing  16/coordinate 3 (+)>>>
             <<<Displacing  16/coordinate 1 (+)>>>
             <<<Displacing  16/coordinate 3 (-)>>>
             <<<Displacing  15/coordinate 3 (-)>>>
             <<<Displacing  16/coordinate 1 (-)>>>
             <<<Displacing  17/coordinate 1 (+)>>>
             <<<Displacing  16/coordinate 2 (+)>>>
             <<<Displacing  17/coordinate 1 (-)>>>
             <<<Displacing  16/coordinate 2 (-)>>>
             <<<Displacing  17/coordinate 2 (+)>>>
             <<<Displacing  17/coordinate 3 (+)>>>
             <<<Displacing  17/coordinate 2 (-)>>>
             <<<Displacing  17/coordinate 3 (-)>>>
             <<<Displacing  18/coordinate 1 (+)>>>
             <<<Displacing  18/coordinate 2 (+)>>>
             <<<Displacing  18/coordinate 1 (-)>>>
             <<<Displacing  18/coordinate 3 (+)>>>
             <<<Displacing  18/coordinate 2 (-)>>>
             <<<Displacing  18/coordinate 3 (-)>>>
             <<<Displacing  19/coordinate 1 (+)>>>
             <<<Displacing  19/coordinate 1 (-)>>>
             <<<Displacing  20/coordinate 1 (+)>>>
             <<<Displacing  19/coordinate 3 (+)>>>
             <<<Displacing  19/coordinate 2 (+)>>>
             <<<Displacing  20/coordinate 2 (+)>>>
             <<<Displacing  20/coordinate 1 (-)>>>
             <<<Displacing  19/coordinate 3 (-)>>>
             <<<Displacing  19/coordinate 2 (-)>>>
             <<<Displacing  20/coordinate 2 (-)>>>
             <<<Displacing  21/coordinate 1 (+)>>>
             <<<Displacing  20/coordinate 3 (+)>>>
             <<<Displacing  21/coordinate 1 (-)>>>
             <<<Displacing  20/coordinate 3 (-)>>>
             <<<Displacing  21/coordinate 2 (+)>>>
             <<<Displacing  21/coordinate 2 (-)>>>
             <<<Displacing  22/coordinate 1 (+)>>>
             <<<Displacing  22/coordinate 1 (-)>>>
             <<<Displacing  21/coordinate 3 (+)>>>
             <<<Displacing  22/coordinate 2 (+)>>>
             <<<Displacing  22/coordinate 2 (-)>>>
             <<<Displacing  21/coordinate 3 (-)>>>
             <<<Displacing  22/coordinate 3 (+)>>>
             <<<Displacing  22/coordinate 3 (-)>>>
             <<<Displacing  23/coordinate 1 (+)>>>
             <<<Displacing  24/coordinate 3 (+)>>>
             <<<Displacing  23/coordinate 3 (+)>>>
             <<<Displacing  23/coordinate 1 (-)>>>
             <<<Displacing  23/coordinate 3 (-)>>>
             <<<Displacing  24/coordinate 3 (-)>>>
             <<<Displacing  24/coordinate 2 (+)>>>
             <<<Displacing  24/coordinate 1 (+)>>>
             <<<Displacing  24/coordinate 2 (-)>>>
             <<<Displacing  23/coordinate 2 (+)>>>
             <<<Displacing  24/coordinate 1 (-)>>>
             <<<Displacing  25/coordinate 1 (+)>>>
             <<<Displacing  23/coordinate 2 (-)>>>
             <<<Displacing  25/coordinate 2 (+)>>>
             <<<Displacing  25/coordinate 1 (-)>>>
             <<<Displacing  25/coordinate 2 (-)>>>
             <<<Displacing  26/coordinate 1 (+)>>>
             <<<Displacing  25/coordinate 3 (+)>>>
             <<<Displacing  26/coordinate 1 (-)>>>
             <<<Displacing  25/coordinate 3 (-)>>>
             <<<Displacing  26/coordinate 2 (+)>>>
             <<<Displacing  26/coordinate 2 (-)>>>
             <<<Displacing  27/coordinate 2 (+)>>>
             <<<Displacing  26/coordinate 3 (+)>>>
             <<<Displacing  27/coordinate 2 (-)>>>
             <<<Displacing  26/coordinate 3 (-)>>>
             <<<Displacing  27/coordinate 1 (+)>>>
             <<<Displacing  27/coordinate 3 (+)>>>
             <<<Displacing  28/coordinate 1 (+)>>>
             <<<Displacing  27/coordinate 1 (-)>>>
             <<<Displacing  28/coordinate 1 (-)>>>
             <<<Displacing  27/coordinate 3 (-)>>>
             <<<Displacing  28/coordinate 2 (+)>>>
             <<<Displacing  28/coordinate 3 (+)>>>
             <<<Displacing  29/coordinate 1 (+)>>>
             <<<Displacing  28/coordinate 2 (-)>>>
             <<<Displacing  29/coordinate 1 (-)>>>
             <<<Displacing  28/coordinate 3 (-)>>>
             <<<Displacing  29/coordinate 3 (+)>>>
             <<<Displacing  29/coordinate 3 (-)>>>
             <<<Displacing  29/coordinate 2 (+)>>>
             <<<Displacing  29/coordinate 2 (-)>>>
             <<<Displacing  30/coordinate 1 (+)>>>
             <<<Displacing  30/coordinate 1 (-)>>>
             <<<Displacing  30/coordinate 2 (+)>>>
             <<<Displacing  30/coordinate 2 (-)>>>
             <<<Displacing  30/coordinate 3 (+)>>>
             <<<Displacing  30/coordinate 3 (-)>>>

-----------------------
VIBRATIONAL FREQUENCIES
-----------------------

Scaling factor for frequencies =  1.000000000 (already applied!)

   0:         0.00 cm**-1
   1:         0.00 cm**-1
   2:         0.00 cm**-1
   3:         0.00 cm**-1
   4:         0.00 cm**-1
   5:         0.00 cm**-1
   6:     -1551.09 cm**-1 ***imaginary mode***
   7:        44.93 cm**-1
   8:        65.70 cm**-1
   9:        77.73 cm**-1
  10:        83.35 cm**-1
  11:       121.08 cm**-1
  12:       122.75 cm**-1
  13:       181.60 cm**-1
  14:       213.47 cm**-1
  15:       254.53 cm**-1
  16:       275.51 cm**-1
  17:       293.19 cm**-1
  18:       370.37 cm**-1
  19:       383.75 cm**-1
  20:       395.73 cm**-1
  21:       424.27 cm**-1
  22:       509.45 cm**-1
  23:       587.73 cm**-1
  24:       590.19 cm**-1
  25:       672.09 cm**-1
  26:       709.95 cm**-1
  27:       754.70 cm**-1
  28:       771.01 cm**-1
  29:       782.84 cm**-1
  30:       814.76 cm**-1
  31:       854.26 cm**-1
  32:       885.83 cm**-1
  33:       886.85 cm**-1
  34:       912.15 cm**-1
  35:       933.96 cm**-1
  36:       936.64 cm**-1
  37:       949.53 cm**-1
  38:       956.99 cm**-1
  39:       981.21 cm**-1
  40:      1042.34 cm**-1
  41:      1065.53 cm**-1
  42:      1070.16 cm**-1
  43:      1087.76 cm**-1
  44:      1103.97 cm**-1
  45:      1107.44 cm**-1
  46:      1116.53 cm**-1
  47:      1132.17 cm**-1
  48:      1137.88 cm**-1
  49:      1179.25 cm**-1
  50:      1184.63 cm**-1
  51:      1196.63 cm**-1
  52:      1207.69 cm**-1
  53:      1216.09 cm**-1
  54:      1250.92 cm**-1
  55:      1264.04 cm**-1
  56:      1268.85 cm**-1
  57:      1276.85 cm**-1
  58:      1280.73 cm**-1
  59:      1297.81 cm**-1
  60:      1314.38 cm**-1
  61:      1337.69 cm**-1
  62:      1370.62 cm**-1
  63:      1425.40 cm**-1
  64:      1428.57 cm**-1
  65:      1457.22 cm**-1
  66:      1470.53 cm**-1
  67:      1497.94 cm**-1
  68:      1503.79 cm**-1
  69:      1507.63 cm**-1
  70:      1510.87 cm**-1
  71:      1565.89 cm**-1
  72:      1573.48 cm**-1
  73:      1701.04 cm**-1
  74:      2832.57 cm**-1
  75:      2942.23 cm**-1
  76:      2952.04 cm**-1
  77:      2966.80 cm**-1
  78:      2979.28 cm**-1
  79:      2979.78 cm**-1
  80:      2986.44 cm**-1
  81:      2989.58 cm**-1
  82:      3000.48 cm**-1
  83:      3001.72 cm**-1
  84:      3034.32 cm**-1
  85:      3046.22 cm**-1
  86:      3051.63 cm**-1
  87:      3065.52 cm**-1
  88:      3071.47 cm**-1
  89:      3335.91 cm**-1


------------
NORMAL MODES
------------

These modes are the cartesian displacements weighted by the diagonal matrix
M(i,i)=1/sqrt(m[i]) where m[i] is the mass of the displaced atom
Thus, these vectors are normalized but *not* orthogonal

                  0          1          2          3          4          5    
      0       0.000000   0.000000   0.000000   0.000000   0.000000   0.000000
      1       0.000000   0.000000   0.000000   0.000000   0.000000   0.000000
      2       0.000000   0.000000   0.000000   0.000000   0.000000   0.000000
      3       0.000000   0.000000   0.000000   0.000000   0.000000   0.000000
      4       0.000000   0.000000   0.000000   0.000000   0.000000   0.000000
      5       0.000000   0.000000   0.000000   0.000000   0.000000   0.000000
      6       0.000000   0.000000   0.000000   0.000000   0.000000   0.000000
      7       0.000000   0.000000   0.000000   0.000000   0.000000   0.000000
      8       0.000000   0.000000   0.000000   0.000000   0.000000   0.000000
      9       0.000000   0.000000   0.000000   0.000000   0.000000   0.000000
     10       0.000000   0.000000   0.000000   0.000000   0.000000   0.000000
     11       0.000000   0.000000   0.000000   0.000000   0.000000   0.000000
     12       0.000000   0.000000   0.000000   0.000000   0.000000   0.000000
     13       0.000000   0.000000   0.000000   0.000000   0.000000   0.000000
     14       0.000000   0.000000   0.000000   0.000000   0.000000   0.000000
     15       0.000000   0.000000   0.000000   0.000000   0.000000   0.000000
     16       0.000000   0.000000   0.000000   0.000000   0.000000   0.000000
     17       0.000000   0.000000   0.000000   0.000000   0.000000   0.000000
     18       0.000000   0.000000   0.000000   0.000000   0.000000   0.000000
     19       0.000000   0.000000   0.000000   0.000000   0.000000   0.000000
     20       0.000000   0.000000   0.000000   0.000000   0.000000   0.000000
     21       0.000000   0.000000   0.000000   0.000000   0.000000   0.000000
     22       0.000000   0.000000   0.000000   0.000000   0.000000   0.000000
     23       0.000000   0.000000   0.000000   0.000000   0.000000   0.000000
     24       0.000000   0.000000   0.000000   0.000000   0.000000   0.000000
     25       0.000000   0.000000   0.000000   0.000000   0.000000   0.000000
     26       0.000000   0.000000   0.000000   0.000000   0.000000   0.000000
     27       0.000000   0.000000   0.000000   0.000000   0.000000   0.000000
     28       0.000000   0.000000   0.000000   0.000000   0.000000   0.000000
     29       0.000000   0.000000   0.000000   0.000000   0.000000   0.000000
     30       0.000000   0.000000   0.000000   0.000000   0.000000   0.000000
     31       0.000000   0.000000   0.000000   0.000000   0.000000   0.000000
     32       0.000000   0.000000   0.000000   0.000000   0.000000   0.000000
     33       0.000000   0.000000   0.000000   0.000000   0.000000   0.000000
     34       0.000000   0.000000   0.000000   0.000000   0.000000   0.000000
     35       0.000000   0.000000   0.000000   0.000000   0.000000   0.000000
     36       0.000000   0.000000   0.000000   0.000000   0.000000   0.000000
     37       0.000000   0.000000   0.000000   0.000000   0.000000   0.000000
     38       0.000000   0.000000   0.000000   0.000000   0.000000   0.000000
     39       0.000000   0.000000   0.000000   0.000000   0.000000   0.000000
     40       0.000000   0.000000   0.000000   0.000000   0.000000   0.000000
     41       0.000000   0.000000   0.000000   0.000000   0.000000   0.000000
     42       0.000000   0.000000   0.000000   0.000000   0.000000   0.000000
     43       0.000000   0.000000   0.000000   0.000000   0.000000   0.000000
     44       0.000000   0.000000   0.000000   0.000000   0.000000   0.000000
     45       0.000000   0.000000   0.000000   0.000000   0.000000   0.000000
     46       0.000000   0.000000   0.000000   0.000000   0.000000   0.000000
     47       0.000000   0.000000   0.000000   0.000000   0.000000   0.000000
     48       0.000000   0.000000   0.000000   0.000000   0.000000   0.000000
     49       0.000000   0.000000   0.000000   0.000000   0.000000   0.000000
     50       0.000000   0.000000   0.000000   0.000000   0.000000   0.000000
     51       0.000000   0.000000   0.000000   0.000000   0.000000   0.000000
     52       0.000000   0.000000   0.000000   0.000000   0.000000   0.000000
     53       0.000000   0.000000   0.000000   0.000000   0.000000   0.000000
     54       0.000000   0.000000   0.000000   0.000000   0.000000   0.000000
     55       0.000000   0.000000   0.000000   0.000000   0.000000   0.000000
     56       0.000000   0.000000   0.000000   0.000000   0.000000   0.000000
     57       0.000000   0.000000   0.000000   0.000000   0.000000   0.000000
     58       0.000000   0.000000   0.000000   0.000000   0.000000   0.000000
     59       0.000000   0.000000   0.000000   0.000000   0.000000   0.000000
     60       0.000000   0.000000   0.000000   0.000000   0.000000   0.000000
     61       0.000000   0.000000   0.000000   0.000000   0.000000   0.000000
     62       0.000000   0.000000   0.000000   0.000000   0.000000   0.000000
     63       0.000000   0.000000   0.000000   0.000000   0.000000   0.000000
     64       0.000000   0.000000   0.000000   0.000000   0.000000   0.000000
     65       0.000000   0.000000   0.000000   0.000000   0.000000   0.000000
     66       0.000000   0.000000   0.000000   0.000000   0.000000   0.000000
     67       0.000000   0.000000   0.000000   0.000000   0.000000   0.000000
     68       0.000000   0.000000   0.000000   0.000000   0.000000   0.000000
     69       0.000000   0.000000   0.000000   0.000000   0.000000   0.000000
     70       0.000000   0.000000   0.000000   0.000000   0.000000   0.000000
     71       0.000000   0.000000   0.000000   0.000000   0.000000   0.000000
     72       0.000000   0.000000   0.000000   0.000000   0.000000   0.000000
     73       0.000000   0.000000   0.000000   0.000000   0.000000   0.000000
     74       0.000000   0.000000   0.000000   0.000000   0.000000   0.000000
     75       0.000000   0.000000   0.000000   0.000000   0.000000   0.000000
     76       0.000000   0.000000   0.000000   0.000000   0.000000   0.000000
     77       0.000000   0.000000   0.000000   0.000000   0.000000   0.000000
     78       0.000000   0.000000   0.000000   0.000000   0.000000   0.000000
     79       0.000000   0.000000   0.000000   0.000000   0.000000   0.000000
     80       0.000000   0.000000   0.000000   0.000000   0.000000   0.000000
     81       0.000000   0.000000   0.000000   0.000000   0.000000   0.000000
     82       0.000000   0.000000   0.000000   0.000000   0.000000   0.000000
     83       0.000000   0.000000   0.000000   0.000000   0.000000   0.000000
     84       0.000000   0.000000   0.000000   0.000000   0.000000   0.000000
     85       0.000000   0.000000   0.000000   0.000000   0.000000   0.000000
     86       0.000000   0.000000   0.000000   0.000000   0.000000   0.000000
     87       0.000000   0.000000   0.000000   0.000000   0.000000   0.000000
     88       0.000000   0.000000   0.000000   0.000000   0.000000   0.000000
     89       0.000000   0.000000   0.000000   0.000000   0.000000   0.000000
                  6          7          8          9         10         11    
      0      -0.000001   0.026272  -0.049765  -0.029678  -0.013809  -0.027956
      1       0.000048  -0.107061   0.039238  -0.026690  -0.007023   0.060681
      2      -0.000249  -0.005797  -0.020733   0.225364   0.018939  -0.105966
      3      -0.001614   0.018957  -0.040822  -0.018738  -0.010644  -0.023012
      4       0.001745  -0.052957  -0.003141   0.006248  -0.019473   0.068936
      5      -0.002088  -0.022686  -0.046993   0.004524   0.000137  -0.166942
      6      -0.001171  -0.024967   0.002097   0.009454   0.006811  -0.030678
      7       0.000418  -0.018457  -0.026368   0.051893  -0.014819   0.053623
      8      -0.000319  -0.094564  -0.014822  -0.203743  -0.040001  -0.094800
      9       0.000098  -0.061473   0.034979   0.022782   0.020673  -0.039032
     10       0.000343  -0.039399  -0.008959   0.059681   0.001412   0.011165
     11       0.000127  -0.148100   0.040966  -0.185236  -0.061885   0.084846
     12      -0.000110  -0.053663   0.025670   0.009813   0.017009  -0.043818
     13      -0.000072  -0.093174   0.032324   0.023996   0.013441  -0.010201
     14      -0.000198  -0.134045   0.067918   0.040028  -0.043152   0.188674
     15      -0.000248  -0.010012  -0.016907  -0.015858  -0.000035  -0.036657
     16      -0.000041  -0.126786   0.055841  -0.017706   0.009399   0.016774
     17       0.000120  -0.063897   0.037746   0.243145  -0.001792   0.073022
     18       0.000117   0.059669  -0.083316  -0.045838  -0.027523  -0.029986
     19      -0.000429  -0.134265   0.056521  -0.058585  -0.007674   0.077575
     20       0.001207   0.054273  -0.042471   0.377630   0.043843  -0.171845
     21       0.000953  -0.030411   0.007990   0.021564   0.009426  -0.027982
     22      -0.008415   0.026891  -0.055862   0.085858  -0.022197   0.070734
     23       0.002428  -0.104707  -0.030595  -0.368594  -0.054302  -0.145238
     24       0.000190  -0.081043   0.051834   0.020789   0.027582  -0.049568
     25       0.000464  -0.107944   0.045573   0.030136   0.026401  -0.049648
     26      -0.000125  -0.177155   0.112941   0.056372  -0.061234   0.353492
     27       0.025308   0.055846  -0.084084  -0.041287  -0.020105  -0.025402
     28       0.002611  -0.029144  -0.030859  -0.013470  -0.027339   0.047380
     29       0.048787   0.026556  -0.085117   0.012462  -0.001119  -0.106644
     30      -0.014662   0.069226  -0.155461  -0.067173  -0.032544  -0.067667
     31      -0.002668  -0.039992  -0.012376  -0.001291  -0.025738   0.069805
     32      -0.018455   0.001606  -0.229871   0.002037  -0.045653  -0.095460
     33      -0.028228   0.027422  -0.134028  -0.051733  -0.032702  -0.083912
     34      -0.002163  -0.014370  -0.174153  -0.042129  -0.062945   0.040763
     35       0.031576   0.079337   0.031194   0.038745   0.028295   0.008538
     36       0.020037   0.118193   0.046634  -0.009720   0.008143   0.124202
     37       0.003121  -0.026461   0.070906  -0.029670   0.027513  -0.088239
     38      -0.000468   0.050220  -0.036964   0.024681   0.011275  -0.053406
     39      -0.233381   0.083673  -0.029752  -0.026970  -0.008937   0.037663
     40      -0.036742  -0.061822  -0.088317  -0.057775  -0.014510  -0.076200
     41      -0.967402   0.091631   0.056680   0.045023   0.031431   0.036445
     42       0.001687   0.052760   0.088162   0.022404  -0.038250   0.098102
     43       0.004296   0.142621   0.112846   0.020856  -0.062917  -0.126792
     44       0.003107   0.003907  -0.124785  -0.062732   0.137733   0.078236
     45       0.006569   0.058360   0.084703  -0.009930   0.023830   0.115425
     46      -0.006265   0.017112   0.127594  -0.031022   0.063232  -0.158769
     47      -0.006751   0.008285  -0.119384   0.027263  -0.038239   0.034387
     48      -0.001906   0.072018   0.091332   0.045256  -0.092631   0.106953
     49      -0.021444  -0.008710   0.192911  -0.076207   0.203135  -0.233524
     50      -0.014954   0.018468  -0.106842   0.071827  -0.128151   0.021109
     51      -0.002557  -0.012934   0.099835  -0.086464   0.200520   0.097278
     52      -0.003950  -0.018176   0.098265  -0.034114   0.050722  -0.120664
     53      -0.001266  -0.016464  -0.169566   0.054606  -0.131358   0.100088
     54      -0.001125   0.156542   0.128682   0.100109  -0.262688   0.082792
     55      -0.001047   0.134343   0.037327   0.014762   0.007908  -0.074393
     56      -0.001058  -0.051221  -0.265670  -0.104158   0.346186   0.169940
     57       0.001738   0.046204   0.082400  -0.035351   0.078580   0.133736
     58      -0.000139   0.274191   0.269412   0.078962  -0.344050  -0.187593
     59      -0.000337   0.007153  -0.118113  -0.107673   0.218140   0.104669
     60       0.034179   0.187888   0.133700   0.025299   0.013186   0.221338
     61       0.015745   0.003669   0.114586  -0.026580   0.047783  -0.120116
     62      -0.011027   0.073784   0.004766   0.014703   0.046043  -0.156558
     63       0.001369  -0.091630   0.039634   0.039125   0.044687   0.002581
     64       0.000212   0.106534  -0.031798   0.000411   0.088088  -0.026423
     65       0.000459   0.082780   0.075816  -0.040580  -0.077597  -0.029538
     66      -0.000653  -0.123498  -0.008363   0.084792  -0.048962  -0.042304
     67      -0.000446  -0.005094  -0.161994  -0.038510   0.354035   0.020675
     68      -0.000255   0.047640   0.025486  -0.002708  -0.143723  -0.066055
     69      -0.000453  -0.146380   0.074501  -0.012145   0.239356  -0.017053
     70       0.000496   0.120271   0.057917   0.010270   0.013104  -0.096047
     71      -0.000275   0.127081   0.209200  -0.004144  -0.277047  -0.136426
     72      -0.000629  -0.003573  -0.023788  -0.023998  -0.002730  -0.038115
     73       0.000871  -0.167984   0.086265  -0.043059   0.019057  -0.001770
     74       0.000156  -0.052455   0.059017   0.414703   0.012189   0.136042
     75      -0.000048  -0.095379   0.067569   0.043938   0.034052  -0.039794
     76       0.000708  -0.012995  -0.027182   0.093775   0.004990  -0.007825
     77       0.000343  -0.200618   0.064332  -0.344234  -0.094216   0.158313
     78       0.000484  -0.126107   0.004845   0.069188  -0.003047  -0.040449
     79       0.000713   0.195720  -0.130064   0.014096  -0.009982   0.130376
     80       0.000331   0.154897   0.176324  -0.115901   0.054350   0.051498
     81       0.001829  -0.221308  -0.016178   0.089775   0.037666  -0.147200
     82       0.000741   0.184600  -0.203149   0.004180   0.059883   0.199038
     83       0.001046   0.185762   0.278306  -0.106023  -0.046574  -0.023024
     84       0.000242  -0.092714   0.057822   0.026085   0.083455   0.004109
     85      -0.000172   0.273059  -0.058682   0.039397  -0.198311   0.110731
     86      -0.000593   0.193656   0.232678  -0.153586   0.116262   0.091185
     87       0.000042  -0.090849  -0.054221   0.114056  -0.165081  -0.011773
     88      -0.000358   0.195195  -0.200671   0.007649   0.036824   0.203027
     89      -0.000349   0.140188   0.093911  -0.143507   0.189468   0.149226
                 12         13         14         15         16         17    
      0      -0.011133  -0.115443   0.073996  -0.017604   0.002080  -0.063734
      1      -0.012281  -0.029667   0.024494  -0.022036  -0.001780  -0.020420
      2       0.002223   0.063500   0.118835  -0.055550  -0.020499   0.161022
      3      -0.009247  -0.102379   0.068114  -0.018703   0.000555  -0.043631
      4      -0.018715  -0.114034   0.086413  -0.030081  -0.001677  -0.029062
      5      -0.011241   0.045309   0.117474  -0.041300  -0.007350   0.005947
      6       0.000674  -0.006445  -0.022762   0.017603   0.005044  -0.046080
      7      -0.020915  -0.143826   0.120409  -0.044558  -0.001194  -0.065287
      8      -0.016502   0.024255   0.129452  -0.059968  -0.020064   0.154422
      9       0.009021   0.092424  -0.105452   0.037162   0.004234  -0.009139
     10      -0.015032  -0.056675   0.087251  -0.041598  -0.005715  -0.011688
     11      -0.012758  -0.028016   0.003740  -0.016649  -0.004094   0.043901
     12       0.006918   0.076986  -0.088521   0.032837   0.003588  -0.007516
     13      -0.007141   0.046514   0.034895  -0.035530  -0.012074   0.077056
     14      -0.003926  -0.046707  -0.102801   0.024095   0.016373  -0.147013
     15      -0.003128  -0.023982  -0.002394   0.002443   0.001930  -0.034516
     16      -0.005769   0.065062  -0.020434  -0.014797  -0.005974   0.034892
     17       0.005754   0.022014  -0.004713  -0.015794  -0.005429   0.056256
     18      -0.020280  -0.193648   0.135513  -0.027484   0.004377  -0.105111
     19      -0.010102  -0.007923  -0.008342  -0.014003   0.000126  -0.028147
     20       0.007698   0.091933   0.156988  -0.071939  -0.031006   0.251577
     21       0.002483   0.008328  -0.040116   0.023976   0.006001  -0.047785
     22      -0.026854  -0.248627   0.208680  -0.070333  -0.000696  -0.109921
     23      -0.025564   0.027737   0.174420  -0.089409  -0.030993   0.238147
     24       0.012977   0.137656  -0.133163   0.045747   0.003103   0.018916
     25      -0.001868   0.111723   0.025268  -0.034740  -0.017576   0.144808
     26      -0.004031  -0.105812  -0.244254   0.075235   0.040901  -0.362361
     27      -0.008121  -0.040679  -0.015755  -0.021280  -0.004727   0.013896
     28      -0.010637  -0.050891   0.022715  -0.007280  -0.004322   0.042339
     29      -0.041050   0.015819  -0.026557  -0.072944  -0.002366  -0.144348
     30      -0.007158   0.101317  -0.145451  -0.030977  -0.010119   0.033259
     31      -0.016692  -0.113384   0.081037  -0.006590  -0.000682   0.016350
     32      -0.090936   0.074469  -0.091737  -0.109590   0.001229  -0.231987
     33      -0.014630  -0.018959   0.041221  -0.000774   0.004107  -0.028996
     34      -0.040112   0.182620  -0.243440  -0.071950  -0.018243   0.033068
     35      -0.024214  -0.053960  -0.102679  -0.098440  -0.016251  -0.059402
     36       0.003794  -0.109390  -0.089094  -0.075581  -0.028498   0.175288
     37       0.068731   0.032824   0.073438   0.104903   0.016507  -0.034649
     38      -0.033354  -0.012130  -0.065490  -0.055530  -0.001851  -0.110876
     39      -0.005357  -0.085033  -0.046050  -0.044439  -0.014666   0.085297
     40       0.042968   0.305218  -0.027355   0.125331   0.030074  -0.134201
     41      -0.024703  -0.061327  -0.098247  -0.117484  -0.022124  -0.025706
     42      -0.028032   0.137334   0.111407  -0.017920  -0.006705  -0.020853
     43      -0.058770  -0.070196  -0.123846   0.078354  -0.002186   0.050476
     44       0.126035  -0.055980  -0.046796   0.077727   0.028675   0.068479
     45       0.035835   0.108666   0.066375  -0.066015  -0.014394   0.012477
     46       0.084164  -0.010939  -0.041667  -0.036296  -0.010107  -0.089996
     47      -0.059298  -0.008138   0.037238   0.172428   0.039002   0.003248
     48      -0.082467   0.153753   0.133396   0.017600  -0.003422  -0.007188
     49       0.210773   0.063333  -0.081250  -0.313769  -0.046978  -0.283689
     50      -0.151958   0.038931   0.092767   0.220319   0.045163  -0.030699
     51       0.221293   0.158648   0.071511  -0.236573  -0.031504  -0.097446
     52       0.087559   0.018015   0.035645   0.057165   0.007646  -0.064703
     53      -0.131120   0.013133   0.153728   0.387981   0.073368   0.089114
     54      -0.174791   0.152194   0.125783   0.108559  -0.027746   0.014637
     55      -0.091291  -0.073696  -0.122997   0.081337   0.027408   0.085023
     56       0.130686  -0.071387  -0.055418   0.030621   0.086485   0.113220
     57       0.076984   0.131976   0.081476  -0.106283  -0.007367  -0.000983
     58      -0.098724  -0.035403  -0.109924   0.147126  -0.072759   0.048753
     59       0.212895  -0.055106  -0.068661   0.004418   0.022888   0.083605
     60      -0.029402  -0.355340  -0.194567  -0.246366  -0.076801   0.363760
     61       0.075968  -0.030883   0.006661   0.018035  -0.003283  -0.035083
     62      -0.005130  -0.018382  -0.138011  -0.138433  -0.016551  -0.196546
     63      -0.039971   0.038317   0.031720   0.056816   0.029546  -0.015032
     64      -0.089610  -0.055538  -0.091111   0.078408   0.044421   0.080261
     65       0.171205  -0.045270  -0.067572   0.089088  -0.034411   0.032017
     66       0.112481  -0.021808  -0.025008   0.083163   0.000305   0.000243
     67      -0.242934  -0.098082  -0.111292   0.116088   0.105876   0.128671
     68       0.296067  -0.099847  -0.117469   0.114042  -0.055458   0.046943
     69      -0.275454   0.005103  -0.009635   0.081100   0.088188   0.029124
     70      -0.090805  -0.079215  -0.131994   0.086640   0.033978   0.082244
     71       0.260972  -0.072415  -0.120403   0.092697  -0.073259   0.020176
     72      -0.004807  -0.040350   0.013791  -0.002403   0.001691  -0.039348
     73       0.000351   0.153864  -0.093404   0.009796  -0.004407   0.051209
     74       0.014234   0.029101  -0.047725  -0.006848  -0.005375   0.078424
     75       0.016675   0.172907  -0.169775   0.049227   0.002957   0.023640
     76      -0.016342  -0.077100   0.120047  -0.047781  -0.005481  -0.026931
     77      -0.018614  -0.064539  -0.029194  -0.010835  -0.003339   0.056407
     78       0.055320  -0.027691  -0.036632   0.085186   0.011015   0.018381
     79       0.104204   0.109008   0.113723   0.030678   0.003415  -0.041575
     80      -0.089638   0.090152   0.065298   0.052189   0.021446  -0.025502
     81       0.031449  -0.196945  -0.219719   0.200340  -0.155605   0.103176
     82       0.076723   0.140411   0.180291   0.166679  -0.310972  -0.128508
     83      -0.048561   0.076521   0.006773  -0.150161   0.472661   0.076853
     84      -0.106792   0.045939   0.039097   0.083025   0.010898  -0.022050
     85       0.281117   0.172144   0.144590  -0.242018   0.543431   0.017000
     86      -0.223063   0.165291   0.139232   0.022891   0.075902  -0.057538
     87       0.314711   0.012528   0.012291  -0.014337   0.157240   0.004772
     88       0.103488   0.152876   0.191593   0.138373  -0.258971  -0.127935
     89      -0.194735   0.139943   0.162649   0.253650  -0.431302  -0.149662
                 18         19         20         21         22         23    
      0       0.116012   0.004113  -0.032447  -0.080106   0.014042  -0.118227
      1      -0.103018   0.051230   0.013403  -0.010839  -0.010096  -0.298756
      2       0.020048  -0.205869  -0.011035  -0.009942   0.035150  -0.078817
      3       0.053884  -0.001492  -0.019823  -0.057845  -0.007675  -0.183200
      4       0.095115  -0.003301  -0.037345  -0.069040  -0.048681   0.033857
      5      -0.036904   0.004358   0.037302   0.025504   0.318743  -0.006138
      6       0.145096  -0.013355  -0.030283  -0.053845   0.025353  -0.203157
      7       0.027559  -0.050981  -0.013549  -0.062987   0.020744   0.064851
      8       0.064635   0.197286  -0.041759  -0.041251   0.042252   0.007452
      9       0.094447   0.006189  -0.010880   0.008472   0.014597   0.093597
     10      -0.031540   0.048496  -0.000112  -0.020809   0.047233   0.293969
     11       0.026158  -0.206388  -0.014492  -0.017002  -0.137428   0.074345
     12       0.118592  -0.003330  -0.017939  -0.000679   0.004557   0.178879
     13      -0.148360   0.000898   0.021828   0.029980  -0.069985  -0.033876
     14      -0.101707   0.007310   0.046043   0.037976   0.189835  -0.001628
     15       0.088235  -0.010822  -0.017557  -0.030577   0.009943   0.184168
     16      -0.163096  -0.044630   0.039314   0.050985   0.014969  -0.079064
     17       0.001411   0.198148  -0.025322  -0.015378  -0.150508  -0.010590
     18       0.253571   0.006906  -0.068107  -0.140845   0.052179  -0.145411
     19      -0.160333   0.109827   0.031307   0.017314   0.034222  -0.279978
     20       0.062603  -0.447437  -0.033722  -0.033315  -0.199937  -0.056943
     21       0.144138  -0.027910  -0.026537  -0.043345   0.039922  -0.151546
     22      -0.031691  -0.114559   0.000760  -0.090007   0.088844  -0.197273
     23       0.116742   0.428877  -0.089870  -0.089053  -0.204285  -0.036417
     24       0.084743  -0.001218  -0.007899   0.026501  -0.007509  -0.039382
     25      -0.156468   0.000697   0.020194   0.046317  -0.094550  -0.206992
     26      -0.188574   0.017088   0.092319   0.070337   0.262126  -0.044016
     27      -0.109226   0.008336   0.040558   0.103908  -0.059130  -0.042117
     28       0.114804   0.000026  -0.010373   0.070072   0.019262   0.150663
     29      -0.081375   0.002817   0.023785  -0.002651  -0.026238   0.052578
     30      -0.160949   0.013337   0.056644   0.149122  -0.017378  -0.067253
     31       0.119496  -0.003772  -0.023346   0.018706  -0.024458   0.160726
     32      -0.231302  -0.007635  -0.029252  -0.169316  -0.165061   0.101119
     33      -0.268157   0.009349   0.059290   0.095484  -0.087134   0.053577
     34       0.111622  -0.006683  -0.054341  -0.042086   0.050980  -0.051856
     35       0.140365   0.001831   0.010975   0.065558  -0.035677  -0.064188
     36       0.006766   0.006979   0.025020   0.150723   0.053309  -0.045943
     37       0.177734   0.008884   0.115572   0.149943  -0.018032  -0.042759
     38      -0.021114   0.000846   0.011369   0.008264  -0.084202   0.028708
     39      -0.081130   0.007862   0.024351   0.132331  -0.025561  -0.026647
     40       0.151767   0.003060   0.189092  -0.158384  -0.108018  -0.308675
     41       0.128538   0.002266   0.002933   0.033614   0.026263  -0.009783
     42       0.006993   0.002451   0.133301  -0.068854  -0.006512   0.034782
     43      -0.071795  -0.000273   0.000827  -0.091480   0.007457   0.003133
     44      -0.018893   0.000919   0.057374  -0.066056   0.007272   0.007009
     45      -0.009021   0.002305   0.171831  -0.113390   0.005978   0.023719
     46       0.055341   0.002387   0.001339   0.101428  -0.050563  -0.007400
     47       0.097660   0.007656   0.088886   0.092970  -0.046106  -0.008538
     48       0.048344   0.005869   0.217330  -0.070904  -0.003198   0.032527
     49      -0.099896  -0.008542  -0.036186  -0.121926  -0.127312   0.099807
     50       0.134914   0.009895   0.127817   0.108013  -0.059821   0.008321
     51      -0.058194  -0.003231   0.177403  -0.209167  -0.034670   0.066497
     52       0.151167   0.007082   0.074425   0.167964  -0.039179  -0.035148
     53       0.267996   0.017331   0.195422   0.243947  -0.010567  -0.068948
     54       0.004090   0.004107   0.206696  -0.125515  -0.010183   0.032786
     55      -0.076807   0.000965   0.057845  -0.146236   0.017221   0.019423
     56      -0.029056   0.002315   0.116220  -0.132921   0.026228   0.034958
     57      -0.035417   0.001857   0.179347  -0.162874   0.018226   0.063946
     58      -0.079351  -0.003443   0.064680  -0.141600   0.002970  -0.000060
     59      -0.054843  -0.000329   0.104865  -0.150943   0.027248   0.031906
     60       0.043455   0.005900  -0.182312   0.403721   0.231615   0.256825
     61       0.150105   0.007684   0.040086   0.228381  -0.009924   0.006441
     62      -0.088050  -0.000867  -0.034133   0.039318  -0.145258  -0.012175
     63      -0.058038  -0.006893  -0.164523   0.029663   0.006092  -0.006903
     64      -0.062292   0.000567   0.057955  -0.133716   0.014869   0.019007
     65      -0.067709  -0.001316  -0.018745  -0.086197   0.013891   0.010562
     66      -0.083572  -0.006923  -0.178653   0.001045   0.012580  -0.005842
     67      -0.059463  -0.002222   0.030146  -0.119962   0.022258   0.002579
     68      -0.089705  -0.001609  -0.037250  -0.107011   0.019495   0.009660
     69      -0.071594  -0.008914  -0.174872   0.012269   0.014022  -0.014000
     70      -0.088735  -0.000020   0.031638  -0.152377   0.018691   0.019660
     71      -0.106008  -0.001234  -0.051136  -0.115357   0.017506   0.016173
     72       0.085926  -0.018075  -0.017507  -0.037830   0.020513   0.128105
     73      -0.162663  -0.101808   0.055794   0.102120   0.091291   0.173863
     74       0.052874   0.433653  -0.069801  -0.048620  -0.472277   0.062659
     75      -0.021460   0.020402   0.020495   0.070921  -0.001798   0.114080
     76      -0.001146   0.107859  -0.005405  -0.036533   0.136977   0.270755
     77       0.068938  -0.450879  -0.038009  -0.045237  -0.454872   0.084778
     78      -0.088062  -0.006647  -0.148921  -0.028231   0.017736  -0.000634
     79      -0.032264  -0.004354  -0.126800   0.028036   0.005928  -0.001182
     80      -0.055909  -0.006376  -0.143115   0.007703   0.008925  -0.002174
     81      -0.102238   0.001923   0.116783  -0.218655   0.023593   0.035082
     82      -0.038078  -0.006436  -0.196247   0.071452   0.004776  -0.009771
     83      -0.045609  -0.005037  -0.095690  -0.017615   0.009378   0.002877
     84      -0.084297  -0.010433  -0.238491   0.036042   0.013956  -0.012673
     85      -0.015410  -0.007408  -0.222071   0.103227   0.004990  -0.015580
     86      -0.050988  -0.010196  -0.237735   0.075565   0.005417  -0.015039
     87      -0.079927  -0.008716  -0.241346   0.040480   0.018245  -0.013252
     88      -0.036324  -0.007125  -0.218558   0.087246   0.004850  -0.012735
     89      -0.064805  -0.009690  -0.242317   0.068853   0.006864  -0.014279
                 24         25         26         27         28         29    
      0      -0.143927  -0.013631  -0.074055  -0.008374   0.004103   0.053665
      1       0.076225  -0.040628  -0.014591  -0.014020  -0.004937  -0.008305
      2       0.010115   0.174842  -0.011788   0.052314   0.017444  -0.004070
      3      -0.100010   0.006620  -0.042866  -0.000001   0.003522   0.016802
      4       0.157932   0.065952   0.039601   0.021513   0.004097  -0.030315
      5       0.027807  -0.262836   0.017841  -0.080696  -0.033165  -0.000787
      6       0.210502  -0.010774   0.019213  -0.006537  -0.004207  -0.033610
      7       0.021522  -0.046976   0.046230  -0.016261  -0.014276  -0.112948
      8       0.009817   0.168699   0.005723   0.050270   0.009023  -0.027688
      9       0.090107   0.011612   0.036764   0.001457  -0.004112  -0.040998
     10      -0.122665   0.044393   0.054617  -0.009043  -0.016233  -0.158463
     11      -0.019655  -0.201267   0.020230   0.035573   0.000172  -0.042230
     12       0.074210  -0.004713   0.049702   0.003243  -0.006378  -0.062312
     13      -0.171272  -0.042274  -0.053059  -0.017106   0.005308   0.085657
     14      -0.047115   0.167476  -0.016552   0.054760   0.014533   0.017164
     15      -0.280918  -0.003117  -0.086739  -0.007573   0.010534   0.113701
     16      -0.046990   0.049739  -0.018127  -0.009761   0.002356   0.035287
     17      -0.015776  -0.201512  -0.002452   0.037036   0.005711   0.008288
     18       0.041161  -0.019673  -0.029181   0.003504  -0.000767  -0.017607
     19       0.005510  -0.111646  -0.031871   0.079334   0.019901   0.012144
     20       0.007669   0.469629  -0.011249  -0.346240  -0.073026   0.034238
     21       0.221260  -0.027841   0.029555   0.018418  -0.001759  -0.043061
     22      -0.105996  -0.145051  -0.009441   0.080815   0.006245  -0.082843
     23      -0.002783   0.473697  -0.015070  -0.328823  -0.047791  -0.019237
     24       0.238984  -0.008016   0.058852   0.025686   0.001483  -0.023261
     25      -0.028655  -0.105380  -0.039117   0.115604   0.032998   0.100269
     26      -0.000846   0.456956  -0.013934  -0.484286  -0.091085   0.047944
     27      -0.052039   0.027378   0.071569   0.030236   0.002973   0.043774
     28       0.192711   0.009175   0.017496   0.019976   0.018458   0.275460
     29       0.073936  -0.029051   0.056900  -0.066893   0.025883   0.036191
     30      -0.096695  -0.022304   0.069907  -0.008204   0.001418   0.031689
     31       0.216654   0.046577   0.023135   0.044903   0.023098   0.250683
     32       0.141553   0.054840   0.030976  -0.000069   0.053767  -0.021758
     33       0.099823   0.020676   0.033119   0.010945   0.008012   0.030887
     34      -0.045081  -0.016721  -0.046474  -0.008544  -0.003585  -0.024791
     35      -0.092031   0.017604   0.143266   0.018605   0.023788   0.157266
     36      -0.031982  -0.012680   0.065534  -0.015013  -0.030979  -0.196747
     37      -0.044395  -0.004986   0.048251  -0.015329   0.002989   0.037369
     38       0.049501   0.031212  -0.118528   0.043816  -0.021629  -0.113991
     39      -0.017451   0.022329   0.017296   0.031152  -0.021804  -0.093890
     40      -0.412306   0.080271   0.488961   0.045204  -0.037291  -0.400626
     41      -0.034037  -0.022783   0.115857  -0.050293   0.031931   0.120373
     42       0.044544  -0.003701  -0.060330  -0.003283   0.020302   0.022329
     43      -0.000016  -0.000742   0.009078  -0.002551   0.028472  -0.031037
     44       0.007184   0.000117  -0.014708   0.006354  -0.045334   0.007822
     45       0.028165  -0.004025  -0.003347  -0.007571   0.008288  -0.000431
     46       0.010101   0.010548  -0.103601   0.001005   0.002666  -0.106583
     47       0.004252   0.015049  -0.097541   0.027224  -0.042051  -0.079611
     48       0.044871  -0.019677  -0.077458  -0.064192   0.201389  -0.040427
     49       0.125800   0.067315  -0.172142   0.138943  -0.202514   0.054346
     50       0.028206   0.005367  -0.165728  -0.012896   0.116755  -0.099106
     51       0.071230   0.031989  -0.015250   0.099130  -0.272995   0.156465
     52      -0.021713  -0.003597  -0.088822  -0.028923   0.016006  -0.071895
     53      -0.060796  -0.023959  -0.083314  -0.069478   0.105196  -0.103662
     54       0.034685   0.015935  -0.028899   0.078003  -0.334588   0.197422
     55       0.015447  -0.007716   0.003292  -0.014062   0.137302  -0.039373
     56       0.037164  -0.020507  -0.037165  -0.048777   0.296580  -0.085609
     57       0.074640  -0.025641  -0.053793  -0.063842   0.225308   0.017858
     58      -0.004776   0.019900   0.038576   0.060607  -0.404902   0.187994
     59       0.034475  -0.017142  -0.010211  -0.044059   0.114396   0.016396
     60       0.401862  -0.134252  -0.640557  -0.107692   0.022483   0.232681
     61       0.038867  -0.025459  -0.190258  -0.040438   0.022526   0.019708
     62       0.012367   0.043416  -0.243258   0.034211  -0.005393  -0.316017
     63      -0.008494   0.001209   0.004509   0.000702   0.009409  -0.021572
     64       0.014385  -0.005247   0.001094  -0.003568   0.030068   0.035633
     65       0.006308  -0.004152   0.003280  -0.001196  -0.027566   0.043278
     66      -0.010452  -0.000627   0.016858  -0.006183   0.130203  -0.076762
     67      -0.006373   0.001568   0.034092   0.025588  -0.338359   0.202949
     68       0.002498  -0.005035   0.015926  -0.005405   0.064989  -0.003037
     69      -0.020035   0.002977   0.032863   0.014306  -0.246385   0.111156
     70       0.012818  -0.008166   0.012245  -0.014270   0.133275  -0.008773
     71       0.009915  -0.010263   0.009092  -0.025456   0.256303  -0.084032
     72      -0.293444  -0.009506  -0.102887   0.006128   0.014998   0.129520
     73       0.059995   0.012641   0.077557   0.111415   0.012556  -0.079682
     74       0.029103  -0.021506   0.023249  -0.437963  -0.084216   0.009197
     75      -0.102568   0.005533  -0.041190   0.026258   0.016278   0.123827
     76      -0.055308  -0.000685   0.080442   0.104424  -0.002590  -0.214644
     77       0.003880  -0.022307   0.022177  -0.429536  -0.078470  -0.042503
     78      -0.006542  -0.002815   0.023975  -0.002955   0.005715   0.026226
     79      -0.003002  -0.001050   0.003791  -0.000513   0.002635   0.010641
     80      -0.006298  -0.001475   0.012314  -0.001378   0.001788   0.017072
     81       0.029759  -0.010482  -0.010332  -0.005879   0.006105   0.118196
     82      -0.011313   0.000220   0.012883  -0.000927  -0.022440   0.001331
     83      -0.001750  -0.001755   0.006450  -0.000116   0.035267   0.011990
     84      -0.017640   0.000725   0.033489  -0.004596   0.099842  -0.054257
     85      -0.018116   0.002131   0.019132   0.002626  -0.052280   0.005046
     86      -0.018549   0.002112   0.023392  -0.002595   0.086716  -0.060520
     87      -0.019503  -0.001633   0.038493   0.000723  -0.135441   0.073214
     88      -0.014397   0.000688   0.016662  -0.000805  -0.026586  -0.003168
     89      -0.017830   0.000754   0.024694  -0.003225   0.017617  -0.023997
                 30         31         32         33         34         35    
      0      -0.001122   0.026233  -0.000680  -0.006170  -0.002391  -0.001227
      1       0.002280  -0.017652  -0.011966   0.032642  -0.015655  -0.017457
      2      -0.014464   0.003050   0.069381  -0.014083   0.084434   0.078141
      3      -0.003114  -0.011502   0.001703   0.028096   0.003805  -0.001549
      4      -0.012125   0.035208  -0.003508  -0.025088   0.003978  -0.003749
      5       0.053181  -0.074775  -0.003972  -0.049008  -0.035005   0.014086
      6      -0.002004   0.004195   0.004111  -0.004835  -0.009811   0.005119
      7      -0.001690  -0.037555   0.021612   0.031784  -0.018380   0.017204
      8      -0.013517   0.000997  -0.066084   0.016654   0.077727  -0.068189
      9       0.000530  -0.025392   0.005645   0.020494   0.002437  -0.001989
     10      -0.003740  -0.082941   0.027857   0.080273   0.004529  -0.005749
     11      -0.007617  -0.008747  -0.069200   0.037362  -0.002568   0.031861
     12       0.000732  -0.037101   0.000731   0.027968   0.009421  -0.003670
     13       0.005822   0.035805  -0.004657  -0.046967   0.018168  -0.012659
     14      -0.018415   0.042217  -0.003572   0.021310  -0.099762   0.053565
     15      -0.001561   0.085373  -0.009061  -0.070187  -0.002124   0.004761
     16       0.003603   0.005718  -0.018579  -0.008413   0.003276   0.024895
     17      -0.007347   0.017716   0.073224  -0.014279  -0.018820  -0.107773
     18      -0.002071   0.014240   0.013683   0.000493   0.015715   0.014358
     19      -0.013048  -0.011900   0.113616  -0.018858   0.132495   0.120370
     20       0.049004   0.015763  -0.464854   0.168269  -0.546416  -0.505566
     21      -0.004022  -0.000611  -0.027216  -0.001865   0.025322  -0.016592
     22      -0.018771  -0.027214  -0.129606   0.058384   0.157433  -0.091977
     23       0.031030  -0.008205   0.458749  -0.011252  -0.511174   0.298810
     24       0.000240  -0.026166  -0.003960   0.018494  -0.012802   0.006836
     25      -0.026815   0.091200  -0.010856  -0.002637  -0.133612   0.082876
     26       0.135367  -0.217203   0.010719  -0.192992   0.535134  -0.358934
     27       0.033559  -0.142348   0.001107   0.021826  -0.005688  -0.001294
     28       0.043255   0.026001  -0.015901  -0.138158  -0.016162  -0.001253
     29      -0.094895   0.302053   0.004922   0.034364   0.025967   0.001241
     30       0.010706  -0.161396   0.019543   0.155438   0.000916   0.001964
     31       0.040399   0.047052  -0.022976  -0.201219  -0.013897  -0.002623
     32      -0.128484   0.268091  -0.001237  -0.053980   0.039089  -0.003768
     33      -0.002098  -0.030443   0.003108   0.020520   0.001363  -0.000154
     34      -0.005048  -0.013746   0.003093   0.032123   0.002763  -0.000074
     35       0.015783  -0.123950   0.007163   0.056795   0.000740  -0.000713
     36      -0.003623   0.149947  -0.010622  -0.091893  -0.001801   0.002400
     37      -0.009341   0.044287   0.006001   0.035828   0.005279   0.001953
     38       0.039989  -0.080169  -0.014866  -0.101852  -0.017485  -0.001595
     39       0.043407  -0.083398  -0.009676  -0.062574  -0.012905  -0.001113
     40       0.039981   0.103373  -0.028234  -0.285364  -0.033067   0.006639
     41      -0.062187   0.150316   0.010215   0.064226   0.015217   0.000465
     42      -0.009312  -0.037662   0.002738   0.021263   0.002694   0.002599
     43      -0.003602  -0.012308  -0.009696  -0.068016  -0.012867  -0.002842
     44       0.011912   0.040087   0.003607   0.036069   0.005307  -0.006778
     45      -0.020584   0.007493  -0.003681  -0.016945  -0.003179  -0.004331
     46      -0.036209   0.002504  -0.003511  -0.002841   0.005673  -0.003795
     47       0.065956   0.024991  -0.001872  -0.025929  -0.003262   0.005304
     48      -0.215926  -0.230645  -0.023625  -0.078153  -0.020776  -0.022315
     49       0.295081  -0.024119  -0.009018  -0.123913  -0.028777   0.016681
     50      -0.086526  -0.198205  -0.020364  -0.090822  -0.022327  -0.009998
     51       0.300663   0.227507   0.026781   0.101936   0.014642   0.022169
     52      -0.089883   0.051221   0.014029   0.133227   0.030396  -0.005372
     53      -0.170290   0.003545   0.012683   0.143715   0.029759  -0.009859
     54       0.163792   0.202006   0.042722   0.238929   0.040646   0.009102
     55       0.081850  -0.009786  -0.009624  -0.083485  -0.022630   0.008641
[...]
     29       0.000116   0.000048   0.000005  -0.000012  -0.000013   0.000475
     30       0.001257   0.000305   0.000052  -0.000567  -0.000540   0.003402
     31       0.009920   0.002138   0.002119  -0.002293  -0.001907   0.004869
     32      -0.000654  -0.000116  -0.000071   0.000272  -0.000152  -0.002556
     33      -0.000109  -0.000036  -0.000099   0.000060   0.000189   0.000336
     34       0.000059   0.000025   0.000043  -0.000093   0.000062   0.000188
     35      -0.000072   0.000009  -0.000029  -0.000030   0.000093   0.000125
     36      -0.000010  -0.000053  -0.000017   0.000082   0.000001   0.013220
     37       0.000027   0.000100   0.000053  -0.000182   0.000027  -0.061199
     38       0.000106  -0.000037   0.000032   0.000067  -0.000141   0.031246
     39       0.000876   0.000869   0.000561  -0.001672   0.000499   0.002163
     40      -0.000238  -0.000065  -0.000025   0.000291  -0.000378  -0.004070
     41      -0.000185  -0.000256  -0.000262   0.000270   0.000913   0.012856
     42      -0.000295   0.000002   0.000105  -0.000045   0.000048  -0.000071
     43       0.000214   0.000013   0.000037  -0.000006  -0.000023   0.000184
     44       0.000023  -0.000000  -0.000153   0.000026  -0.000055   0.000153
     45      -0.000264   0.000058  -0.000000  -0.000067  -0.000109   0.001017
     46       0.000091  -0.000029   0.000000   0.000038   0.000112  -0.001653
     47       0.000147  -0.000052  -0.000013   0.000025   0.000105   0.001268
     48       0.002085  -0.000715  -0.000142   0.000614   0.001647   0.000546
     49       0.000437  -0.000068   0.000058   0.000073   0.000197  -0.001114
     50      -0.002619   0.000902   0.000162  -0.000766  -0.002007  -0.001267
     51       0.000178  -0.000031   0.000002   0.000103   0.000092  -0.002164
     52      -0.001179   0.000374  -0.000047  -0.000635  -0.000798   0.008560
     53       0.000934  -0.000283   0.000017   0.000429   0.000735  -0.008519
     54       0.000526   0.000002  -0.000018   0.000138  -0.000035  -0.001614
     55      -0.004600  -0.000111  -0.000783   0.000019   0.000190   0.001315
     56       0.003704   0.000041   0.000654   0.000017  -0.000079  -0.002281
     57       0.004310  -0.000016  -0.001117   0.000428  -0.000646   0.000494
     58       0.002533   0.000036   0.000567  -0.000106   0.000050  -0.000576
     59      -0.004430  -0.000028   0.001190  -0.000324   0.000874  -0.000269
     60      -0.000426   0.000400   0.000037  -0.000487  -0.000418  -0.204833
     61      -0.000259  -0.001178  -0.000443   0.002399  -0.001154   0.861674
     62      -0.000505   0.000217  -0.000032  -0.000187  -0.000357  -0.458536
     63      -0.000044   0.000011   0.000014  -0.000007  -0.000045   0.000089
     64       0.000147  -0.000005   0.000024  -0.000016   0.000045  -0.000067
     65      -0.000086  -0.000000  -0.000034   0.000002   0.000016   0.000037
     66       0.000242  -0.000056  -0.000097  -0.000018   0.000491  -0.000373
     67       0.000086  -0.000022  -0.000000   0.000014   0.000078   0.000014
     68      -0.000450   0.000047   0.000016   0.000094  -0.000577   0.000524
     69       0.000421  -0.000015   0.000041  -0.000009   0.000095   0.000012
     70      -0.002014   0.000052  -0.000371   0.000200  -0.000519   0.001382
     71       0.001249  -0.000058   0.000224  -0.000086   0.000383  -0.000376
     72      -0.284911   0.078865   0.842143  -0.372948  -0.151094   0.001230
     73      -0.049616   0.015440   0.147563  -0.065763  -0.026954   0.000047
     74      -0.020834   0.006135   0.061655  -0.027417  -0.011159   0.000063
     75       0.004969  -0.309898   0.070409   0.054695   0.096040  -0.000199
     76       0.011584  -0.833318   0.193718   0.146431   0.256362  -0.001140
     77       0.003082  -0.220293   0.051106   0.038705   0.067814  -0.000326
     78       0.000095  -0.000002   0.000064  -0.000041   0.000021  -0.000028
     79       0.000161  -0.000006   0.000060  -0.000009   0.000021  -0.000023
     80      -0.000135   0.000000  -0.000050   0.000001   0.000002  -0.000002
     81      -0.000094   0.000007  -0.000034   0.000033  -0.000021   0.000248
     82      -0.000999   0.000103  -0.000577   0.000272  -0.000408   0.000734
     83      -0.000738   0.000074  -0.000433   0.000207  -0.000299   0.000598
     84      -0.001331   0.000038  -0.000723   0.000345  -0.000194   0.000273
     85       0.000035  -0.000010   0.000061   0.000003   0.000025  -0.000027
     86       0.001390  -0.000054   0.000774  -0.000319   0.000284  -0.000254
     87       0.000306   0.000001   0.000052   0.000076  -0.000007  -0.000055
     88      -0.001139  -0.000028  -0.000251  -0.000172   0.000119   0.000064
     89       0.000931  -0.000000   0.000272   0.000097  -0.000031  -0.000108


-----------
IR SPECTRUM  
-----------

 Mode    freq (cm**-1)   T**2         TX         TY         TZ
-------------------------------------------------------------------
   7:        44.93    0.000000  (  0.000000   0.000000   0.000000)
   8:        65.70    0.000000  (  0.000000   0.000000   0.000000)
   9:        77.73    0.000000  (  0.000000   0.000000   0.000000)
  10:        83.35    0.000000  (  0.000000   0.000000   0.000000)
  11:       121.08    0.000000  (  0.000000   0.000000   0.000000)
  12:       122.75    0.000000  (  0.000000   0.000000   0.000000)
  13:       181.60    0.000000  (  0.000000   0.000000   0.000000)
  14:       213.47    0.000000  (  0.000000   0.000000   0.000000)
  15:       254.53    0.000000  (  0.000000   0.000000   0.000000)
  16:       275.51    0.000000  (  0.000000   0.000000   0.000000)
  17:       293.19    0.000000  (  0.000000   0.000000   0.000000)
  18:       370.37    0.000000  (  0.000000   0.000000   0.000000)
  19:       383.75    0.000000  (  0.000000   0.000000   0.000000)
  20:       395.73    0.000000  (  0.000000   0.000000   0.000000)
  21:       424.27    0.000000  (  0.000000   0.000000   0.000000)
  22:       509.45    0.000000  (  0.000000   0.000000   0.000000)
  23:       587.73    0.000000  (  0.000000   0.000000   0.000000)
  24:       590.19    0.000000  (  0.000000   0.000000   0.000000)
  25:       672.09    0.000000  (  0.000000   0.000000   0.000000)
  26:       709.95    0.000000  (  0.000000   0.000000   0.000000)
  27:       754.70    0.000000  (  0.000000   0.000000   0.000000)
  28:       771.01    0.000000  (  0.000000   0.000000   0.000000)
  29:       782.84    0.000000  (  0.000000   0.000000   0.000000)
  30:       814.76    0.000000  (  0.000000   0.000000   0.000000)
  31:       854.26    0.000000  (  0.000000   0.000000   0.000000)
  32:       885.83    0.000000  (  0.000000   0.000000   0.000000)
  33:       886.85    0.000000  (  0.000000   0.000000   0.000000)
  34:       912.15    0.000000  (  0.000000   0.000000   0.000000)
  35:       933.96    0.000000  (  0.000000   0.000000   0.000000)
  36:       936.64    0.000000  (  0.000000   0.000000   0.000000)
  37:       949.53    0.000000  (  0.000000   0.000000   0.000000)
  38:       956.99    0.000000  (  0.000000   0.000000   0.000000)
  39:       981.21    0.000000  (  0.000000   0.000000   0.000000)
  40:      1042.34    0.000000  (  0.000000   0.000000   0.000000)
  41:      1065.53    0.000000  (  0.000000   0.000000   0.000000)
  42:      1070.16    0.000000  (  0.000000   0.000000   0.000000)
  43:      1087.76    0.000000  (  0.000000   0.000000   0.000000)
  44:      1103.97    0.000000  (  0.000000   0.000000   0.000000)
  45:      1107.44    0.000000  (  0.000000   0.000000   0.000000)
  46:      1116.53    0.000000  (  0.000000   0.000000   0.000000)
  47:      1132.17    0.000000  (  0.000000   0.000000   0.000000)
  48:      1137.88    0.000000  (  0.000000   0.000000   0.000000)
  49:      1179.25    0.000000  (  0.000000   0.000000   0.000000)
  50:      1184.63    0.000000  (  0.000000   0.000000   0.000000)
  51:      1196.63    0.000000  (  0.000000   0.000000   0.000000)
  52:      1207.69    0.000000  (  0.000000   0.000000   0.000000)
  53:      1216.09    0.000000  (  0.000000   0.000000   0.000000)
  54:      1250.92    0.000000  (  0.000000   0.000000   0.000000)
  55:      1264.04    0.000000  (  0.000000   0.000000   0.000000)
  56:      1268.85    0.000000  (  0.000000   0.000000   0.000000)
  57:      1276.85    0.000000  (  0.000000   0.000000   0.000000)
  58:      1280.73    0.000000  (  0.000000   0.000000   0.000000)
  59:      1297.81    0.000000  (  0.000000   0.000000   0.000000)
  60:      1314.38    0.000000  (  0.000000   0.000000   0.000000)
  61:      1337.69    0.000000  (  0.000000   0.000000   0.000000)
  62:      1370.62    0.000000  (  0.000000   0.000000   0.000000)
  63:      1425.40    0.000000  (  0.000000   0.000000   0.000000)
  64:      1428.57    0.000000  (  0.000000   0.000000   0.000000)
  65:      1457.22    0.000000  (  0.000000   0.000000   0.000000)
  66:      1470.53    0.000000  (  0.000000   0.000000   0.000000)
  67:      1497.94    0.000000  (  0.000000   0.000000   0.000000)
  68:      1503.79    0.000000  (  0.000000   0.000000   0.000000)
  69:      1507.63    0.000000  (  0.000000   0.000000   0.000000)
  70:      1510.87    0.000000  (  0.000000   0.000000   0.000000)
  71:      1565.89    0.000000  (  0.000000   0.000000   0.000000)
  72:      1573.48    0.000000  (  0.000000   0.000000   0.000000)
  73:      1701.04    0.000000  (  0.000000   0.000000   0.000000)
  74:      2832.57    0.000000  (  0.000000   0.000000   0.000000)
  75:      2942.23    0.000000  (  0.000000   0.000000   0.000000)
  76:      2952.04    0.000000  (  0.000000   0.000000   0.000000)
  77:      2966.80    0.000000  (  0.000000   0.000000   0.000000)
  78:      2979.28    0.000000  (  0.000000   0.000000   0.000000)
  79:      2979.78    0.000000  (  0.000000   0.000000   0.000000)
  80:      2986.44    0.000000  (  0.000000   0.000000   0.000000)
  81:      2989.58    0.000000  (  0.000000   0.000000   0.000000)
  82:      3000.48    0.000000  (  0.000000   0.000000   0.000000)
  83:      3001.72    0.000000  (  0.000000   0.000000   0.000000)
  84:      3034.32    0.000000  (  0.000000   0.000000   0.000000)
  85:      3046.22    0.000000  (  0.000000   0.000000   0.000000)
  86:      3051.63    0.000000  (  0.000000   0.000000   0.000000)
  87:      3065.52    0.000000  (  0.000000   0.000000   0.000000)
  88:      3071.47    0.000000  (  0.000000   0.000000   0.000000)
  89:      3335.91    0.000000  (  0.000000   0.000000   0.000000)

The first frequency considered to be a vibration is 7
The total number of vibrations considered is 83


--------------------------
THERMOCHEMISTRY AT 298.15K
--------------------------

Temperature         ... 298.15 K
Pressure            ... 1.00 atm
Total Mass          ... 179.26 AMU

Throughout the following assumptions are being made:
  (1) The electronic state is orbitally nondegenerate
  (2) There are no thermally accessible electronically excited states
  (3) Hindered rotations indicated by low frequency modes are not
      treated as such but are treated as vibrations and this may
      cause some error
  (4) All equations used are the standard statistical mechanics
      equations for an ideal gas
  (5) All vibrations are strictly harmonic

freq.      44.93  E(vib)   ...       0.53 
freq.      65.70  E(vib)   ...       0.50 
freq.      77.73  E(vib)   ...       0.49 
freq.      83.35  E(vib)   ...       0.48 
freq.     121.08  E(vib)   ...       0.44 
freq.     122.75  E(vib)   ...       0.43 
freq.     181.60  E(vib)   ...       0.37 
freq.     213.47  E(vib)   ...       0.34 
freq.     254.53  E(vib)   ...       0.30 
freq.     275.51  E(vib)   ...       0.28 
freq.     293.19  E(vib)   ...       0.27 
freq.     370.37  E(vib)   ...       0.21 
freq.     383.75  E(vib)   ...       0.20 
freq.     395.73  E(vib)   ...       0.20 
freq.     424.27  E(vib)   ...       0.18 
freq.     509.45  E(vib)   ...       0.14 
freq.     587.73  E(vib)   ...       0.10 
freq.     590.19  E(vib)   ...       0.10 
freq.     672.09  E(vib)   ...       0.08 
freq.     709.95  E(vib)   ...       0.07 
freq.     754.70  E(vib)   ...       0.06 
freq.     771.01  E(vib)   ...       0.05 
freq.     782.84  E(vib)   ...       0.05 
freq.     814.76  E(vib)   ...       0.05 
freq.     854.26  E(vib)   ...       0.04 
freq.     885.83  E(vib)   ...       0.04 
freq.     886.85  E(vib)   ...       0.04 
freq.     912.15  E(vib)   ...       0.03 
freq.     933.96  E(vib)   ...       0.03 
freq.     936.64  E(vib)   ...       0.03 
freq.     949.53  E(vib)   ...       0.03 
freq.     956.99  E(vib)   ...       0.03 
freq.     981.21  E(vib)   ...       0.02 
freq.    1042.34  E(vib)   ...       0.02 
freq.    1065.53  E(vib)   ...       0.02 
freq.    1070.16  E(vib)   ...       0.02 
freq.    1087.76  E(vib)   ...       0.02 
freq.    1103.97  E(vib)   ...       0.02 
freq.    1107.44  E(vib)   ...       0.02 
freq.    1116.53  E(vib)   ...       0.01 
freq.    1132.17  E(vib)   ...       0.01 
freq.    1137.88  E(vib)   ...       0.01 
freq.    1179.25  E(vib)   ...       0.01 
freq.    1184.63  E(vib)   ...       0.01 
freq.    1196.63  E(vib)   ...       0.01 
freq.    1207.69  E(vib)   ...       0.01 
freq.    1216.09  E(vib)   ...       0.01 
freq.    1250.92  E(vib)   ...       0.01 
freq.    1264.04  E(vib)   ...       0.01 
freq.    1268.85  E(vib)   ...       0.01 
freq.    1276.85  E(vib)   ...       0.01 
freq.    1280.73  E(vib)   ...       0.01 
freq.    1297.81  E(vib)   ...       0.01 
freq.    1314.38  E(vib)   ...       0.01 
freq.    1337.69  E(vib)   ...       0.01 
freq.    1370.62  E(vib)   ...       0.01 
freq.    1425.40  E(vib)   ...       0.00 
freq.    1428.57  E(vib)   ...       0.00 
freq.    1457.22  E(vib)   ...       0.00 
freq.    1470.53  E(vib)   ...       0.00 
freq.    1497.94  E(vib)   ...       0.00 
freq.    1503.79  E(vib)   ...       0.00 
freq.    1507.63  E(vib)   ...       0.00 
freq.    1510.87  E(vib)   ...       0.00 
freq.    1565.89  E(vib)   ...       0.00 
freq.    1573.48  E(vib)   ...       0.00 
freq.    1701.04  E(vib)   ...       0.00 
freq.    2832.57  E(vib)   ...       0.00 
freq.    2942.23  E(vib)   ...       0.00 
freq.    2952.04  E(vib)   ...       0.00 
freq.    2966.80  E(vib)   ...       0.00 
freq.    2979.28  E(vib)   ...       0.00 
freq.    2979.78  E(vib)   ...       0.00 
freq.    2986.44  E(vib)   ...       0.00 
freq.    2989.58  E(vib)   ...       0.00 
freq.    3000.48  E(vib)   ...       0.00 
freq.    3001.72  E(vib)   ...       0.00 
freq.    3034.32  E(vib)   ...       0.00 
freq.    3046.22  E(vib)   ...       0.00 
freq.    3051.63  E(vib)   ...       0.00 
freq.    3065.52  E(vib)   ...       0.00 
freq.    3071.47  E(vib)   ...       0.00 
freq.    3335.91  E(vib)   ...       0.00 

------------
INNER ENERGY
------------

The inner energy is: U= E(el) + E(ZPE) + E(vib) + E(rot) + E(trans)
    E(el)   - is the total energy from the electronic structure calculation
              = E(kin-el) + E(nuc-el) + E(el-el) + E(nuc-nuc)
    E(ZPE)  - the the zero temperature vibrational energy from the frequency calculation
    E(vib)  - the the finite temperature correction to E(ZPE) due to population
              of excited vibrational states
    E(rot)  - is the rotational thermal energy
    E(trans)- is the translational thermal energy

Summary of contributions to the inner energy U:
Electronic energy                ...    -39.15509420 Eh
Zero point energy                ...      0.25102312 Eh     157.52 kcal/mol
Thermal vibrational correction   ...      0.01037944 Eh       6.51 kcal/mol
Thermal rotational correction    ...      0.00141627 Eh       0.89 kcal/mol
Thermal translational correction ...      0.00141627 Eh       0.89 kcal/mol
-----------------------------------------------------------------------
Total thermal energy                    -38.89085909 Eh


Summary of corrections to the electronic energy:
(perhaps to be used in another calculation)
Total thermal correction                  0.01321199 Eh       8.29 kcal/mol
Non-thermal (ZPE) correction              0.25102312 Eh     157.52 kcal/mol
-----------------------------------------------------------------------
Total correction                          0.26423511 Eh     165.81 kcal/mol


--------
ENTHALPY
--------

The enthalpy is H = U + kB*T
                kB is Boltzmann's constant
Total free energy                 ...    -38.89085909 Eh 
Thermal Enthalpy correction       ...      0.00094421 Eh       0.59 kcal/mol
-----------------------------------------------------------------------
Total Enthalpy                    ...    -38.88991488 Eh


Note: Only C1 symmetry has been detected, increase convergence thresholds 
      if your molecule has a higher symmetry. Symmetry factor of 1.0 is   
      used for the rotational entropy correction. 
 

Note: Rotational entropy computed according to Herzberg 
Infrared and Raman Spectra, Chapter V,1, Van Nostrand Reinhold, 1945 
Point Group:  C1, Symmetry Number:   1  
Rotational constants in cm-1:     0.038539     0.013824     0.010893 

Vibrational entropy computed according to the QRRHO of S. Grimme
Chem.Eur.J. 2012 18 9955


-------
ENTROPY
-------

The entropy contributions are T*S = T*(S(el)+S(vib)+S(rot)+S(trans))
     S(el)   - electronic entropy
     S(vib)  - vibrational entropy
     S(rot)  - rotational entropy
     S(trans)- translational entropy
The entropies will be listed as mutliplied by the temperature to get
units of energy

Electronic entropy                ...      0.00000000 Eh      0.00 kcal/mol
Vibrational entropy               ...      0.01810286 Eh     11.36 kcal/mol
Rotational entropy                ...      0.01520285 Eh      9.54 kcal/mol
Translational entropy             ...      0.01969790 Eh     12.36 kcal/mol
-----------------------------------------------------------------------
Final entropy term                ...      0.05300360 Eh     33.26 kcal/mol

In case the symmetry of your molecule has not been determined correctly
or in case you have a reason to use a different symmetry number we print 
out the resulting rotational entropy values for sn=1,12 :
 --------------------------------------------------------
|  sn= 1 | S(rot)=       0.01520285 Eh      9.54 kcal/mol|
|  sn= 2 | S(rot)=       0.01454839 Eh      9.13 kcal/mol|
|  sn= 3 | S(rot)=       0.01416556 Eh      8.89 kcal/mol|
|  sn= 4 | S(rot)=       0.01389394 Eh      8.72 kcal/mol|
|  sn= 5 | S(rot)=       0.01368325 Eh      8.59 kcal/mol|
|  sn= 6 | S(rot)=       0.01351110 Eh      8.48 kcal/mol|
|  sn= 7 | S(rot)=       0.01336556 Eh      8.39 kcal/mol|
|  sn= 8 | S(rot)=       0.01323948 Eh      8.31 kcal/mol|
|  sn= 9 | S(rot)=       0.01312827 Eh      8.24 kcal/mol|
|  sn=10 | S(rot)=       0.01302879 Eh      8.18 kcal/mol|
|  sn=11 | S(rot)=       0.01293880 Eh      8.12 kcal/mol|
|  sn=12 | S(rot)=       0.01285665 Eh      8.07 kcal/mol|
 --------------------------------------------------------


-------------------
GIBBS FREE ENERGY
-------------------

The Gibbs free energy is G = H - T*S

Total enthalpy                    ...    -38.88991488 Eh 
Total entropy correction          ...     -0.05300360 Eh    -33.26 kcal/mol
-----------------------------------------------------------------------
Final Gibbs free energy         ...    -38.94291849 Eh

For completeness - the Gibbs free energy minus the electronic energy
G-E(el)                           ...      0.21217571 Eh    133.14 kcal/mol


Total Time for Numerical Frequencies  :        78.348 sec
Time for Reference State(s)           :         0.162 sec
Time for Displacements                :        69.724 sec

Timings for individual modules:

Sum of individual times         ...        0.361 sec (=   0.006 min)
XTB module                      ...        0.361 sec (=   0.006 min) 100.0 %
                             ****ORCA TERMINATED NORMALLY****
TOTAL RUN TIME: 0 days 0 hours 1 minutes 19 seconds 555 msec
