(SLURM) JOB ID:         509

                                 *****************
                                 * O   R   C   A *
                                 *****************

           --- An Ab Initio, DFT and Semiempirical electronic structure package ---

                  #######################################################
                  #                        -***-                        #
                  #          Department of theory and spectroscopy      #
                  #               Directorship: Frank Neese             #
                  #        Max Planck Institute fuer Kohlenforschung    #
                  #                Kaiser Wilhelm Platz 1               #
                  #                 D-45470 Muelheim/Ruhr               #
                  #                      Germany                        #
                  #                                                     #
                  #                  All rights reserved                #
                  #                        -***-                        #
                  #######################################################


                         Program Version 4.2.1 -  RELEASE  -


 With contributions from (in alphabetic order):
   Daniel Aravena         : Magnetic Suceptibility
   Michael Atanasov       : Ab Initio Ligand Field Theory (pilot matlab implementation)
   Alexander A. Auer      : GIAO ZORA, VPT2
   Ute Becker             : Parallelization
   Giovanni Bistoni       : ED, misc. LED, open-shell LED, HFLD
   Martin Brehm           : Molecular dynamics
   Dmytro Bykov           : SCF Hessian
   Vijay G. Chilkuri      : MRCI spin determinant printing, contributions to CSF-ICE
   Dipayan Datta          : RHF DLPNO-CCSD density
   Achintya Kumar Dutta   : EOM-CC, STEOM-CC
   Dmitry Ganyushin       : Spin-Orbit,Spin-Spin,Magnetic field MRCI
   Miquel Garcia          : C-PCM Hessian, Gaussian charge scheme
   Yang Guo               : DLPNO-NEVPT2, CIM, IAO-localization
   Andreas Hansen         : Spin unrestricted coupled pair/coupled cluster methods
   Benjamin Helmich-Paris : CASSCF linear response (MC-RPA)
   Lee Huntington         : MR-EOM, pCC
   Robert Izsak           : Overlap fitted RIJCOSX, COSX-SCS-MP3, EOM
   Christian Kollmar      : KDIIS, OOCD, Brueckner-CCSD(T), CCSD density
   Simone Kossmann        : Meta GGA functionals, TD-DFT gradient, OOMP2, MP2 Hessian
   Martin Krupicka        : AUTO-CI
   Lucas Lang             : DCDCAS
   Dagmar Lenk            : GEPOL surface, SMD
   Dimitrios Liakos       : Extrapolation schemes; Compound Job, initial MDCI parallelization
   Dimitrios Manganas     : Further ROCIS development; embedding schemes
   Dimitrios Pantazis     : SARC Basis sets
   Taras Petrenko         : DFT Hessian,TD-DFT gradient, ASA, ECA, R-Raman, ABS, FL, XAS/XES, NRVS
   Peter Pinski           : DLPNO-MP2, DLPNO-MP2 Gradient
   Christoph Reimann      : Effective Core Potentials
   Marius Retegan         : Local ZFS, SOC
   Christoph Riplinger    : Optimizer, TS searches, QM/MM, DLPNO-CCSD(T), (RO)-DLPNO pert. Triples
   Tobias Risthaus        : Range-separated hybrids, TD-DFT gradient, RPA, STAB
   Michael Roemelt        : Original ROCIS implementation
   Masaaki Saitow         : Open-shell DLPNO-CCSD energy and density
   Barbara Sandhoefer     : DKH picture change effects
   Avijit Sen             : IP-ROCIS
   Kantharuban Sivalingam : CASSCF convergence, NEVPT2, FIC-MRCI
   Bernardo de Souza      : ESD, SOC TD-DFT
   Georgi Stoychev        : AutoAux, RI-MP2 NMR
   Willem Van den Heuvel  : Paramagnetic NMR
   Boris Wezisla          : Elementary symmetry handling
   Frank Wennmohs         : Technical directorship


 We gratefully acknowledge several colleagues who have allowed us to
 interface, adapt or use parts of their codes:
   Stefan Grimme, W. Hujo, H. Kruse,             : VdW corrections, initial TS optimization,
                  C. Bannwarth                     DFT functionals, gCP, sTDA/sTD-DF
   Ed Valeev, F. Pavosevic, A. Kumar             : LibInt (2-el integral package), F12 methods
   Garnet Chan, S. Sharma, J. Yang, R. Olivares  : DMRG
   Ulf Ekstrom                                   : XCFun DFT Library
   Mihaly Kallay                                 : mrcc  (arbitrary order and MRCC methods)
   Andreas Klamt, Michael Diedenhofen            : otool_cosmo (COSMO solvation model)
   Jiri Pittner, Ondrej Demel                    : Mk-CCSD
   Frank Weinhold                                : gennbo (NPA and NBO analysis)
   Christopher J. Cramer and Donald G. Truhlar   : smd solvation model
   Lars Goerigk                                  : TD-DFT with DH, B97 family of functionals
   V. Asgeirsson, H. Jonsson                     : NEB implementation
   FAccTs GmbH                                   : IRC, NEB, NEB-TS, Multilevel, MM, QM/MM, CI optimization
   S Lehtola, MJT Oliveira, MAL Marques          : LibXC Library


 Your calculation uses the libint2 library for the computation of 2-el integrals
 For citations please refer to: http://libint.valeyev.net

 Your ORCA version has been built with support for libXC version: 4.2.3
 For citations please refer to: https://tddft.org/programs/libxc/

 This ORCA versions uses:
   CBLAS   interface :  Fast vector & matrix operations
   LAPACKE interface :  Fast linear algebra routines
   SCALAPACK package :  Parallel linear algebra routines




***************************************
The coordinates will be read from file: init.xyz
***************************************


Your calculation utilizes the SMD solvation module
Please cite in your paper:
A.V. Marenich, C.J. Cramer, D.G. Truhlar J. Phys. Chem. B, 113, (2009), 6378 

Your calculation utilizes the semiempirical GFN2-xTB method
Please cite in your paper:
C. Bannwarth, Ehlert S., S. Grimme,  J. Chem. Theory Comput., 15, (2019), 1652.
   

----- Orbital basis set information -----
Your calculation utilizes the basis: def2-SVP
   F. Weigend and R. Ahlrichs, Phys. Chem. Chem. Phys. 7, 3297 (2005).

================================================================================
                                        WARNINGS
                       Please study these warnings very carefully!
================================================================================

WARNING: Gradients needed for Numerical Frequencies
  ===> : Setting RunTyp to EnGrad

WARNING: The environment variable RSH_COMMAND is not set!
  ===> : All Displacements for the Numerical Hessian calculation
         will be started on localhost

WARNING: Found dipole moment calculation with XTB calculation
  ===> : Switching off dipole moment calculation


INFO   : the flag for use of LIBINT has been found!

================================================================================
                                       INPUT FILE
================================================================================
NAME = /tmp/slurm-scratch/freq.509/freq.inp
|  1> ! XTB2 NumFreq
|  2> %maxcore 1450
|  3> 
|  4> * xyzfile 0 1 init.xyz
|  5> 
|  6> %cpcm
|  7>  smd true
|  8>  smdsolvent "ch2cl2"
|  9> end
| 10> %pal nprocs 9 end
| 11> 
| 12>                          ****END OF INPUT****
================================================================================

                     *******************************
                     * Energy+Gradient Calculation *
                     *******************************

      -----------------------------------------------------------      
     |                   =====================                   |     
     |                           x T B                           |     
     |                   =====================                   |     
     |                         S. Grimme                         |     
     |          Mulliken Center for Theoretical Chemistry        |     
     |                    University of Bonn                     |     
      -----------------------------------------------------------      

   * xtb version 6.3.2 (30e43eb) compiled by 'schneider@apollo14' on 2020-08-08

   xtb is free software: you can redistribute it and/or modify it under
   the terms of the GNU Lesser General Public License as published by
   the Free Software Foundation, either version 3 of the License, or
   (at your option) any later version.
   
   xtb is distributed in the hope that it will be useful,
   but WITHOUT ANY WARRANTY; without even the implied warranty of
   MERCHANTABILITY or FITNESS FOR A PARTICULAR PURPOSE.  See the
   GNU Lesser General Public License for more details.
   
   Cite this work as:
   * S. Grimme, C. Bannwarth, P. Shushkov, J. Chem. Theory Comput., 2017,
     13, 1989-2009. DOI: 10.1021/acs.jctc.7b00118
   * C. Bannwarth, S. Ehlert and S. Grimme., J. Chem. Theory Comput., 2019,
     15, 1652-1671. DOI: 10.1021/acs.jctc.8b01176
   * P. Pracht, E. Caldeweyher, S. Ehlert, S. Grimme, ChemRxiv, 2019, preprint.
     DOI: 10.26434/chemrxiv.8326202.v1
   
   for GFN-FF:
   * S. Spicher and S. Grimme, Angew. Chem. Int. Ed., 2020,
     DOI: 10.1002/anie.202004239
   
   for DFT-D4:
   * E. Caldeweyher, C. Bannwarth and S. Grimme, J. Chem. Phys., 2017,
     147, 034112. DOI: 10.1063/1.4993215
   * E. Caldeweyher, S. Ehlert, A. Hansen, H. Neugebauer, S. Spicher,
     C. Bannwarth and S. Grimme, J. Chem. Phys., 2019, 150, 154122.
     DOI: 10.1063/1.5090222
   
   for sTDA-xTB:
   * S. Grimme and C. Bannwarth, J. Chem. Phys., 2016, 145, 054103.
     DOI: 10.1063/1.4959605
   
   in the mass-spec context:
   * V. Asgeirsson, C. Bauer and S. Grimme, Chem. Sci., 2017, 8, 4879.
     DOI: 10.1039/c7sc00601b
   * J. Koopman and S. Grimme, ACS Omega 2019, 4, 12, 15120-15133.
     DOI: 10.1021/acsomega.9b02011
   
   for metadynamics refer to:
   * S. Grimme, J. Chem. Theory Comput., 2019, 155, 2847-2862
     DOI: 10.1021/acs.jctc.9b00143
   
   with help from (in alphabetical order)
   C. Bannwarth, F. Bohle, G. Brandenburg, E. Caldeweyher, M. Checinski,
   S. Dohm, S. Ehlert, S. Ehrlich, F. März, H. Neugebauer, J. Pisarek,
   P. Pracht, P. Shushkov, and S. Spicher.
   
 * started run on 2020/09/07 at 06:10:47.329     

           -------------------------------------------------
          |                Calculation Setup                |
           -------------------------------------------------

          program call               : /opt/orca/otool_xtb /tmp/slurm-scratch/freq.509/freq_XTB.xyz --grad -c 0 -u 0 -P 9 --namespace /tmp/slurm-scratch/freq.509/freq --gbsa CH2Cl2
          hostname                   : apollo14
          calculation namespace      : /tmp/slurm-scratch/freq.509/freq
          coordinate file            : /tmp/slurm-scratch/freq.509/freq_XTB.xyz
          omp threads                :                     9
          number of atoms            :                    46
          number of electrons        :                   104
          charge                     :                     0
          spin                       :                   0.0
          first test random number   :      0.23899193788790

   ID    Z sym.   atoms
    1    6 C      1-6, 12, 18, 21, 25, 28, 33, 36, 39, 43
    2    1 H      7-9, 11, 13-15, 17, 19, 20, 22, 24, 26, 27, 29-32, 34, 35,
                  37, 38, 40-42, 44-46
    3    7 N      10, 16
    4    8 O      23

molecular fragmentation (1/2 indicates fragments):
1111111111211122222211221112221111122222221111
# atoms in fragment 1/2:    27    19
 fragment masses (1/2) :      161.24       91.15
CMA distance (Bohr)    :   8.668
constraining FC (au)   :  0.0500
########################################################################
[WARNING] Please study the warnings concerning your input carefully
-1- prog_main_parseArguments: Process number higher than OMP_NUM_THREADS, I hope you know what you are doing.
########################################################################

           -------------------------------------------------
          |                 G F N 2 - x T B                 |
           -------------------------------------------------

        Reference                      10.1021/acs.jctc.8b01176
      * Hamiltonian:
        H0-scaling (s, p, d)           1.850000    2.230000    2.230000
        zeta-weighting                 0.500000
      * Dispersion:
        s8                             2.700000
        a1                             0.520000
        a2                             5.000000
        s9                             5.000000
      * Repulsion:
        kExp                           1.500000    1.000000
        rExp                           1.000000
      * Coulomb:
        alpha                          2.000000
        third order                    shell-resolved
        anisotropic                    true
        a3                             3.000000
        a5                             4.000000
        cn-shift                       1.200000
        cn-exp                         4.000000
        max-rad                        5.000000

      * Solvation model:               GBSA
        Solvent                        CH2Cl2
        Parameter file                 internal GFN2-xTB/GBSA
        Dielectric constant                8.9300E+00
        Reference state                gsolv [1 M gas/solution]
        Free energy shift                  4.4408E-03 Eh       2.7867E+00 kcal/mol
        Temperature                        2.9815E+02 K
        Density                            1.3300E+00 kg/L
        Solvent mass                       8.4930E+01 g/mol
        Interaction kernel             Still
        Born radius scaling (c1)           1.4917E+00
        Born radii integrator          GBOBC
        Born offset                        0.0000E+00 a0       0.0000E+00 AA
        H-bond correction              false
        Ion screening                  false
        Surface tension                    1.0000E-05 Eh       1.5569E+01 dyn/cm
        Grid points                               230 per atom

          ...................................................
          :                      SETUP                      :
          :.................................................:
          :  # basis functions                 100          :
          :  # atomic orbitals                 100          :
          :  # shells                           64          :
          :  # electrons                       104          :
          :  max. iterations                   250          :
          :  Hamiltonian                  GFN2-xTB          :
          :  restarted?                      false          :
          :  GBSA solvation                   true          :
          :  PC potential                    false          :
          :  electronic temp.          300.0000000     K    :
          :  accuracy                    1.0000000          :
          :  -> integral cutoff          0.2500000E+02      :
          :  -> integral neglect         0.1000000E-07      :
          :  -> SCF convergence          0.1000000E-05 Eh   :
          :  -> wf. convergence          0.1000000E-03 e    :
          :  Broyden damping             0.4000000          :
          ...................................................

 iter      E             dE          RMSdq      gap      omega  full diag
   1    -56.9372676 -0.569373E+02  0.363E+00    3.21       0.0  T
   2    -57.0554357 -0.118168E+00  0.199E+00    2.97       1.0  T
   3    -57.0566624 -0.122670E-02  0.856E-01    2.73       1.0  T
   4    -57.0561582  0.504160E-03  0.325E-01    2.83       1.0  T
   5    -57.0607103 -0.455211E-02  0.704E-02    2.81       1.0  T
   6    -57.0607265 -0.162121E-04  0.343E-02    2.82       1.0  T
   7    -57.0607332 -0.668572E-05  0.136E-02    2.82       1.1  T
   8    -57.0607362 -0.299145E-05  0.443E-03    2.82       3.3  T
   9    -57.0607364 -0.145957E-06  0.240E-03    2.82       6.1  T
  10    -57.0607364 -0.216850E-07  0.686E-04    2.82      21.5  T
  11    -57.0607364 -0.717840E-08  0.327E-04    2.82      45.0  T

   *** convergence criteria satisfied after 11 iterations ***

         #    Occupation            Energy/Eh            Energy/eV
      -------------------------------------------------------------
         1        2.0000           -0.6799165             -18.5015
       ...           ...                  ...                  ...
        46        2.0000           -0.4206709             -11.4470
        47        2.0000           -0.4195410             -11.4163
        48        2.0000           -0.4074424             -11.0871
        49        2.0000           -0.3984146             -10.8414
        50        2.0000           -0.3932429             -10.7007
        51        2.0000           -0.3672671              -9.9938
        52        2.0000           -0.3432664              -9.3408 (HOMO)
        53                         -0.2397929              -6.5251 (LUMO)
        54                         -0.2280541              -6.2057
        55                         -0.1560568              -4.2465
        56                         -0.0848080              -2.3077
        57                         -0.0482218              -1.3122
       ...                                ...                  ...
       100                          0.6447532              17.5446
      -------------------------------------------------------------
                  HL-Gap            0.1034735 Eh            2.8157 eV
             Fermi-level           -0.2915296 Eh           -7.9329 eV

 SCC (total)                   0 d,  0 h,  0 min,  0.142 sec
 SCC setup                      ...        0 min,  0.007 sec (  4.702%)
 Dispersion                     ...        0 min,  0.007 sec (  4.678%)
 classical contributions        ...        0 min,  0.005 sec (  3.802%)
 integral evaluation            ...        0 min,  0.018 sec ( 13.003%)
 iterations                     ...        0 min,  0.045 sec ( 31.923%)
 molecular gradient             ...        0 min,  0.059 sec ( 41.556%)
 printout                       ...        0 min,  0.000 sec (  0.317%)

         :::::::::::::::::::::::::::::::::::::::::::::::::::::
         ::                     SUMMARY                     ::
         :::::::::::::::::::::::::::::::::::::::::::::::::::::
         :: total energy             -56.260223768023 Eh    ::
         :: total w/o Gsasa/hb       -56.237069556349 Eh    ::
         :: gradient norm              0.038959896246 Eh/a0 ::
         :: HOMO-LUMO gap              2.815657543422 eV    ::
         ::.................................................::
         :: SCC energy               -57.060736394601 Eh    ::
         :: -> isotropic ES            0.104889051861 Eh    ::
         :: -> anisotropic ES         -0.003590026600 Eh    ::
         :: -> anisotropic XC          0.034747994596 Eh    ::
         :: -> dispersion             -0.037814115138 Eh    ::
         :: -> Gsolv                  -0.039029698511 Eh    ::
         ::    -> Gborn               -0.015875486837 Eh    ::
         ::    -> Gsasa               -0.027595040847 Eh    ::
         ::    -> Ghb                  0.000000000000 Eh    ::
         ::    -> Gshift               0.004440829173 Eh    ::
         :: repulsion energy           0.800329193212 Eh    ::
         :: add. restraining           0.000000000000 Eh    ::
         :: total charge              -0.000000000000 e     ::
         :::::::::::::::::::::::::::::::::::::::::::::::::::::

           -------------------------------------------------
          |                Property Printout                |
           -------------------------------------------------

    * Orbital Energies and Occupations

         #    Occupation            Energy/Eh            Energy/eV
      -------------------------------------------------------------
         1        2.0000           -0.6799165             -18.5015
       ...           ...                  ...                  ...
        40        2.0000           -0.4429705             -12.0538
        41        2.0000           -0.4416432             -12.0177
        42        2.0000           -0.4392647             -11.9530
        43        2.0000           -0.4337722             -11.8035
        44        2.0000           -0.4295350             -11.6882
        45        2.0000           -0.4260876             -11.5944
        46        2.0000           -0.4206709             -11.4470
        47        2.0000           -0.4195410             -11.4163
        48        2.0000           -0.4074424             -11.0871
        49        2.0000           -0.3984146             -10.8414
        50        2.0000           -0.3932429             -10.7007
        51        2.0000           -0.3672671              -9.9938
        52        2.0000           -0.3432664              -9.3408 (HOMO)
        53                         -0.2397929              -6.5251 (LUMO)
        54                         -0.2280541              -6.2057
        55                         -0.1560568              -4.2465
        56                         -0.0848080              -2.3077
        57                         -0.0482218              -1.3122
        58                          0.0372329               1.0132
        59                          0.0552956               1.5047
        60                          0.0824674               2.2441
        61                          0.0916907               2.4950
        62                          0.1000250               2.7218
        63                          0.1068932               2.9087
       ...                                ...                  ...
       100                          0.6447532              17.5446
      -------------------------------------------------------------
                  HL-Gap            0.1034735 Eh            2.8157 eV
             Fermi-level           -0.2915296 Eh           -7.9329 eV

     #   Z          covCN         q      C6AA      α(0)
     1   6 C        2.914    -0.032    28.809     8.801
     2   6 C        2.921    -0.037    28.918     8.818
     3   6 C        2.966     0.001    27.998     8.679
     4   6 C        2.919    -0.042    29.051     8.839
     5   6 C        2.914    -0.033    28.810     8.802
     6   6 C        2.915    -0.033    28.825     8.804
     7   1 H        0.925     0.022     2.701     2.570
     8   1 H        0.926     0.043     2.411     2.428
     9   1 H        0.925     0.040     2.445     2.445
    10   7 N        1.998    -0.405    31.438     8.316
    11   1 H        0.858     0.253     0.872     1.463
    12   6 C        3.759     0.033    20.059     6.385
    13   1 H        0.923    -0.004     3.120     2.762
    14   1 H        0.923    -0.011     3.258     2.823
    15   1 H        0.992     0.269     0.805     1.402
    16   7 N        3.442    -0.216    25.701     7.530
    17   1 H        0.805     0.219     1.023     1.589
    18   6 C        3.733    -0.009    20.826     6.514
    19   1 H        0.925     0.075     2.034     2.230
    20   1 H        0.925     0.071     2.080     2.255
    21   6 C        3.275     0.144    23.641     7.833
    22   1 H        0.924    -0.011     3.251     2.820
    23   8 O        1.233    -0.704    28.475     7.169
    24   1 H        0.860     0.213     1.044     1.601
    25   6 C        3.802    -0.067    21.781     6.644
    26   1 H        0.924     0.035     2.520     2.482
    27   1 H        0.924     0.034     2.535     2.490
    28   6 C        3.801    -0.072    21.884     6.660
    29   1 H        0.924     0.053     2.282     2.362
    30   1 H        0.924     0.048     2.346     2.395
    31   1 H        0.925     0.036     2.509     2.477
    32   1 H        0.925     0.043     2.403     2.424
    33   6 C        3.800    -0.052    21.511     6.604
    34   1 H        0.924     0.028     2.611     2.527
    35   1 H        0.924     0.025     2.661     2.551
    36   6 C        3.800    -0.056    21.589     6.615
    37   1 H        0.924     0.043     2.411     2.428
    38   1 H        0.924     0.038     2.473     2.459
    39   6 C        3.750    -0.106    22.589     6.778
    40   1 H        0.924     0.040     2.448     2.447
    41   1 H        0.924     0.040     2.444     2.445
    42   1 H        0.924     0.037     2.485     2.465
    43   6 C        3.749    -0.103    22.528     6.769
    44   1 H        0.924     0.036     2.498     2.472
    45   1 H        0.924     0.035     2.518     2.481
    46   1 H        0.924     0.038     2.476     2.461

 Mol. C6AA /au·bohr⁶  :      17425.990385
 Mol. C8AA /au·bohr⁸  :     382174.715081
 Mol. α(0) /au        :        202.315338


Wiberg/Mayer (AO) data.
largest (>0.10) Wiberg bond orders for each atom

 ---------------------------------------------------------------------------
     #   Z sym  total        # sym  WBO       # sym  WBO       # sym  WBO
 ---------------------------------------------------------------------------
     1   6 C    3.991 --     2 C    1.450     6 C    1.435    31 H    0.971
                             4 C    0.109
     2   6 C    3.992 --     1 C    1.450     3 C    1.398     7 H    0.969
                             5 C    0.109
     3   6 C    3.987 --     4 C    1.398     2 C    1.398    21 C    1.024
                             6 C    0.108
     4   6 C    3.991 --     5 C    1.450     3 C    1.398     8 H    0.966
                             1 C    0.109
     5   6 C    3.991 --     4 C    1.450     6 C    1.435    32 H    0.970
                             2 C    0.109
     6   6 C    3.990 --     5 C    1.435     1 C    1.435     9 H    0.971
                             3 C    0.108
     7   1 H    0.999 --     2 C    0.969
     8   1 H    0.998 --     4 C    0.966
     9   1 H    0.998 --     6 C    0.971
    10   7 N    3.033 --    21 C    1.397    12 C    1.015    15 H    0.270
                            23 O    0.151
    11   1 H    0.936 --    16 N    0.854
    12   6 C    3.991 --    10 N    1.015    25 C    1.003    14 H    0.966
                            13 H    0.964
    13   1 H    1.000 --    12 C    0.964
    14   1 H    1.000 --    12 C    0.966
    15   1 H    0.927 --    16 N    0.624    10 N    0.270
    16   7 N    3.573 --    18 C    0.974    24 H    0.938    11 H    0.854
                            15 H    0.624
    17   1 H    0.952 --    23 O    0.941
    18   6 C    3.944 --    28 C    1.006    16 N    0.974    19 H    0.971
                            20 H    0.971
    19   1 H    0.994 --    18 C    0.971
    20   1 H    0.995 --    18 C    0.971
    21   6 C    3.956 --    10 N    1.397     3 C    1.024    22 H    0.951
                            23 O    0.507
    22   1 H    0.999 --    21 C    0.951
    23   8 O    1.767 --    17 H    0.941    21 C    0.507    10 N    0.151
    24   1 H    0.955 --    16 N    0.938
    25   6 C    3.996 --    33 C    1.008    12 C    1.003    27 H    0.977
                            26 H    0.976
    26   1 H    0.999 --    25 C    0.976
    27   1 H    0.999 --    25 C    0.977
    28   6 C    3.991 --    18 C    1.006    36 C    1.005    30 H    0.975
                            29 H    0.974
    29   1 H    0.997 --    28 C    0.974
    30   1 H    0.998 --    28 C    0.975
    31   1 H    0.998 --     1 C    0.971
    32   1 H    0.998 --     5 C    0.970
    33   6 C    3.997 --    43 C    1.019    25 C    1.008    35 H    0.978
                            34 H    0.978
    34   1 H    0.999 --    33 C    0.978
    35   1 H    0.999 --    33 C    0.978
    36   6 C    3.995 --    39 C    1.020    28 C    1.005    38 H    0.977
                            37 H    0.977
    37   1 H    0.998 --    36 C    0.977
    38   1 H    0.999 --    36 C    0.977
    39   6 C    3.995 --    36 C    1.020    42 H    0.987    41 H    0.987
                            40 H    0.986
    40   1 H    0.998 --    39 C    0.986
    41   1 H    0.998 --    39 C    0.987
    42   1 H    0.999 --    39 C    0.987
    43   6 C    3.996 --    33 C    1.019    45 H    0.988    46 H    0.988
                            44 H    0.987
    44   1 H    0.998 --    43 C    0.987
    45   1 H    0.999 --    43 C    0.988
    46   1 H    0.999 --    43 C    0.988
 ---------------------------------------------------------------------------

Topologies differ in total number of bonds
Writing topology from bond orders to xtbtopo.mol

molecular dipole:
                 x           y           z       tot (Debye)
 q only:       -0.191      -2.296      -2.004
   full:        0.085      -2.070      -1.349       6.283
molecular quadrupole (traceless):
                xx          xy          yy          xz          yz          zz
 q only:        2.186      12.961       8.405       7.583       8.019     -10.591
  q+dip:        0.813      10.283       4.840       5.443      11.229      -5.653
   full:        0.468      10.201       7.177       5.936       9.487      -7.645


           -------------------------------------------------
          | TOTAL ENERGY              -56.260223768023 Eh   |
          | GRADIENT NORM               0.038959896246 Eh/α |
          | HOMO-LUMO GAP               2.815657543422 eV   |
           -------------------------------------------------

------------------------------------------------------------------------
 * finished run on 2020/09/07 at 06:10:47.538     
------------------------------------------------------------------------
 total:
 * wall-time:     0 d,  0 h,  0 min,  0.209 sec
 *  cpu-time:     0 d,  0 h,  0 min,  2.461 sec
 * ratio c/w:    11.796 speedup
 SCF:
 * wall-time:     0 d,  0 h,  0 min,  0.147 sec
 *  cpu-time:     0 d,  0 h,  0 min,  1.735 sec
 * ratio c/w:    11.802 speedup


-------------------------   --------------------
FINAL SINGLE POINT ENERGY       -56.260223768020
-------------------------   --------------------


----------------------------------------------------------------------------
                           ORCA NUMERICAL FREQUENCIES
                              (9-process run)
----------------------------------------------------------------------------

Number of atoms                ... 46
Central differences            ... used
Number of displacements        ... 276
Numerical increment            ... 5.000e-03 bohr
IR-spectrum generation         ... on
Raman-spectrum generation      ... off
Surface Crossing Hessian       ... off
List of participating nodes    ...  /tmp/slurm-scratch/freq.509/freq.hostnames

The output will be reduced. Please look at the following files:
SCF program output             ... >/tmp/slurm-scratch/freq.509/freq.lastscf
Integral program output        ... >/tmp/slurm-scratch/freq.509/freq.lastint
Gradient program output        ... >/tmp/slurm-scratch/freq.509/freq.lastgrad
Dipole moment program output   ... >/tmp/slurm-scratch/freq.509/freq.lastmom
AutoCI program output          ... >/tmp/slurm-scratch/freq.509/freq.lastautoci


         <<< Energy and Gradient at the input geometry >>>

        <<< Energy and Gradient at displaced geometries >>>
             <<<Displacing   2/coordinate 2 (+)>>>
             <<<Displacing   2/coordinate 3 (+)>>>
             <<<Displacing   1/coordinate 3 (+)>>>
             <<<Displacing   2/coordinate 2 (-)>>>
             <<<Displacing   1/coordinate 3 (-)>>>
             <<<Displacing   2/coordinate 3 (-)>>>
             <<<Displacing   3/coordinate 1 (+)>>>
             <<<Displacing   2/coordinate 1 (+)>>>
             <<<Displacing   3/coordinate 2 (+)>>>
             <<<Displacing   3/coordinate 3 (+)>>>
             <<<Displacing   1/coordinate 2 (+)>>>
             <<<Displacing   1/coordinate 1 (+)>>>
             <<<Displacing   2/coordinate 1 (-)>>>
             <<<Displacing   3/coordinate 1 (-)>>>
             <<<Displacing   1/coordinate 1 (-)>>>
             <<<Displacing   1/coordinate 2 (-)>>>
             <<<Displacing   3/coordinate 2 (-)>>>
             <<<Displacing   3/coordinate 3 (-)>>>
             <<<Displacing   4/coordinate 1 (+)>>>
             <<<Displacing   4/coordinate 2 (+)>>>
             <<<Displacing   4/coordinate 1 (-)>>>
             <<<Displacing   4/coordinate 3 (+)>>>
             <<<Displacing   5/coordinate 2 (+)>>>
             <<<Displacing   4/coordinate 2 (-)>>>
             <<<Displacing   4/coordinate 3 (-)>>>
             <<<Displacing   5/coordinate 2 (-)>>>
             <<<Displacing   6/coordinate 3 (+)>>>
             <<<Displacing   6/coordinate 3 (-)>>>
             <<<Displacing   6/coordinate 1 (+)>>>
             <<<Displacing   5/coordinate 1 (+)>>>
             <<<Displacing   5/coordinate 3 (+)>>>
             <<<Displacing   6/coordinate 1 (-)>>>
             <<<Displacing   5/coordinate 1 (-)>>>
             <<<Displacing   5/coordinate 3 (-)>>>
             <<<Displacing   6/coordinate 2 (+)>>>
             <<<Displacing   6/coordinate 2 (-)>>>
             <<<Displacing   8/coordinate 2 (+)>>>
             <<<Displacing   7/coordinate 2 (+)>>>
             <<<Displacing   8/coordinate 2 (-)>>>
             <<<Displacing   9/coordinate 1 (+)>>>
             <<<Displacing   7/coordinate 1 (+)>>>
             <<<Displacing   7/coordinate 2 (-)>>>
             <<<Displacing   9/coordinate 1 (-)>>>
             <<<Displacing   7/coordinate 1 (-)>>>
             <<<Displacing   8/coordinate 1 (+)>>>
             <<<Displacing   7/coordinate 3 (+)>>>
             <<<Displacing   8/coordinate 1 (-)>>>
             <<<Displacing   8/coordinate 3 (+)>>>
             <<<Displacing   7/coordinate 3 (-)>>>
             <<<Displacing   8/coordinate 3 (-)>>>
             <<<Displacing   9/coordinate 2 (+)>>>
             <<<Displacing   9/coordinate 3 (+)>>>
             <<<Displacing   9/coordinate 2 (-)>>>
             <<<Displacing   9/coordinate 3 (-)>>>
             <<<Displacing  10/coordinate 1 (+)>>>
             <<<Displacing  10/coordinate 2 (+)>>>
             <<<Displacing  10/coordinate 1 (-)>>>
             <<<Displacing  10/coordinate 2 (-)>>>
             <<<Displacing  10/coordinate 3 (+)>>>
             <<<Displacing  10/coordinate 3 (-)>>>
             <<<Displacing  11/coordinate 2 (+)>>>
             <<<Displacing  12/coordinate 1 (+)>>>
             <<<Displacing  11/coordinate 1 (+)>>>
             <<<Displacing  11/coordinate 2 (-)>>>
             <<<Displacing  12/coordinate 1 (-)>>>
             <<<Displacing  11/coordinate 1 (-)>>>
             <<<Displacing  11/coordinate 3 (+)>>>
             <<<Displacing  12/coordinate 2 (+)>>>
             <<<Displacing  11/coordinate 3 (-)>>>
             <<<Displacing  12/coordinate 2 (-)>>>
             <<<Displacing  12/coordinate 3 (+)>>>
             <<<Displacing  12/coordinate 3 (-)>>>
             <<<Displacing  13/coordinate 1 (+)>>>
             <<<Displacing  13/coordinate 2 (+)>>>
             <<<Displacing  13/coordinate 3 (+)>>>
             <<<Displacing  14/coordinate 1 (+)>>>
             <<<Displacing  13/coordinate 1 (-)>>>
             <<<Displacing  13/coordinate 2 (-)>>>
             <<<Displacing  13/coordinate 3 (-)>>>
             <<<Displacing  14/coordinate 1 (-)>>>
             <<<Displacing  14/coordinate 2 (+)>>>
             <<<Displacing  14/coordinate 2 (-)>>>
             <<<Displacing  15/coordinate 1 (+)>>>
             <<<Displacing  14/coordinate 3 (+)>>>
             <<<Displacing  15/coordinate 2 (+)>>>
             <<<Displacing  15/coordinate 1 (-)>>>
             <<<Displacing  14/coordinate 3 (-)>>>
             <<<Displacing  15/coordinate 2 (-)>>>
             <<<Displacing  15/coordinate 3 (+)>>>
             <<<Displacing  15/coordinate 3 (-)>>>
             <<<Displacing  17/coordinate 1 (+)>>>
             <<<Displacing  16/coordinate 1 (+)>>>
             <<<Displacing  16/coordinate 2 (+)>>>
             <<<Displacing  16/coordinate 1 (-)>>>
             <<<Displacing  16/coordinate 2 (-)>>>
             <<<Displacing  17/coordinate 1 (-)>>>
             <<<Displacing  16/coordinate 3 (+)>>>
             <<<Displacing  16/coordinate 3 (-)>>>
             <<<Displacing  17/coordinate 2 (+)>>>
             <<<Displacing  17/coordinate 2 (-)>>>
             <<<Displacing  18/coordinate 2 (+)>>>
             <<<Displacing  17/coordinate 3 (+)>>>
             <<<Displacing  18/coordinate 2 (-)>>>
             <<<Displacing  18/coordinate 1 (+)>>>
             <<<Displacing  17/coordinate 3 (-)>>>
             <<<Displacing  18/coordinate 1 (-)>>>
             <<<Displacing  18/coordinate 3 (+)>>>
             <<<Displacing  18/coordinate 3 (-)>>>
             <<<Displacing  19/coordinate 2 (+)>>>
             <<<Displacing  19/coordinate 1 (+)>>>
             <<<Displacing  19/coordinate 3 (+)>>>
             <<<Displacing  19/coordinate 2 (-)>>>
             <<<Displacing  19/coordinate 3 (-)>>>
             <<<Displacing  19/coordinate 1 (-)>>>
             <<<Displacing  20/coordinate 1 (+)>>>
             <<<Displacing  20/coordinate 2 (+)>>>
             <<<Displacing  20/coordinate 3 (+)>>>
             <<<Displacing  20/coordinate 1 (-)>>>
             <<<Displacing  20/coordinate 2 (-)>>>
             <<<Displacing  20/coordinate 3 (-)>>>
             <<<Displacing  21/coordinate 1 (+)>>>
             <<<Displacing  21/coordinate 2 (+)>>>
             <<<Displacing  21/coordinate 2 (-)>>>
             <<<Displacing  21/coordinate 1 (-)>>>
             <<<Displacing  21/coordinate 3 (+)>>>
             <<<Displacing  21/coordinate 3 (-)>>>
             <<<Displacing  22/coordinate 1 (+)>>>
             <<<Displacing  22/coordinate 2 (+)>>>
             <<<Displacing  22/coordinate 1 (-)>>>
             <<<Displacing  22/coordinate 2 (-)>>>
             <<<Displacing  22/coordinate 3 (+)>>>
             <<<Displacing  22/coordinate 3 (-)>>>
             <<<Displacing  23/coordinate 3 (+)>>>
             <<<Displacing  23/coordinate 2 (+)>>>
             <<<Displacing  23/coordinate 1 (+)>>>
             <<<Displacing  23/coordinate 2 (-)>>>
             <<<Displacing  23/coordinate 3 (-)>>>
             <<<Displacing  23/coordinate 1 (-)>>>
             <<<Displacing  24/coordinate 1 (+)>>>
             <<<Displacing  24/coordinate 2 (+)>>>
             <<<Displacing  24/coordinate 1 (-)>>>
             <<<Displacing  24/coordinate 2 (-)>>>
             <<<Displacing  24/coordinate 3 (+)>>>
             <<<Displacing  24/coordinate 3 (-)>>>
             <<<Displacing  25/coordinate 1 (+)>>>
             <<<Displacing  25/coordinate 2 (+)>>>
             <<<Displacing  25/coordinate 2 (-)>>>
             <<<Displacing  25/coordinate 1 (-)>>>
             <<<Displacing  25/coordinate 3 (+)>>>
             <<<Displacing  26/coordinate 1 (+)>>>
             <<<Displacing  25/coordinate 3 (-)>>>
             <<<Displacing  26/coordinate 3 (+)>>>
             <<<Displacing  26/coordinate 1 (-)>>>
             <<<Displacing  26/coordinate 3 (-)>>>
             <<<Displacing  26/coordinate 2 (+)>>>
             <<<Displacing  26/coordinate 2 (-)>>>
             <<<Displacing  27/coordinate 2 (+)>>>
             <<<Displacing  27/coordinate 1 (+)>>>
             <<<Displacing  27/coordinate 1 (-)>>>
             <<<Displacing  27/coordinate 2 (-)>>>
             <<<Displacing  27/coordinate 3 (+)>>>
             <<<Displacing  27/coordinate 3 (-)>>>
             <<<Displacing  28/coordinate 1 (+)>>>
             <<<Displacing  28/coordinate 1 (-)>>>
             <<<Displacing  28/coordinate 2 (+)>>>
             <<<Displacing  29/coordinate 1 (+)>>>
             <<<Displacing  28/coordinate 2 (-)>>>
             <<<Displacing  29/coordinate 1 (-)>>>
             <<<Displacing  28/coordinate 3 (+)>>>
             <<<Displacing  28/coordinate 3 (-)>>>
             <<<Displacing  29/coordinate 2 (+)>>>
             <<<Displacing  29/coordinate 2 (-)>>>
             <<<Displacing  29/coordinate 3 (+)>>>
             <<<Displacing  29/coordinate 3 (-)>>>
             <<<Displacing  30/coordinate 1 (+)>>>
             <<<Displacing  30/coordinate 1 (-)>>>
             <<<Displacing  30/coordinate 2 (+)>>>
             <<<Displacing  30/coordinate 2 (-)>>>
             <<<Displacing  30/coordinate 3 (+)>>>
             <<<Displacing  30/coordinate 3 (-)>>>
             <<<Displacing  31/coordinate 3 (+)>>>
             <<<Displacing  31/coordinate 1 (+)>>>
             <<<Displacing  31/coordinate 2 (+)>>>
             <<<Displacing  31/coordinate 3 (-)>>>
             <<<Displacing  31/coordinate 1 (-)>>>
             <<<Displacing  31/coordinate 2 (-)>>>
             <<<Displacing  32/coordinate 2 (+)>>>
             <<<Displacing  32/coordinate 2 (-)>>>
             <<<Displacing  32/coordinate 1 (+)>>>
             <<<Displacing  32/coordinate 1 (-)>>>
             <<<Displacing  32/coordinate 3 (+)>>>
             <<<Displacing  32/coordinate 3 (-)>>>
             <<<Displacing  33/coordinate 1 (+)>>>
             <<<Displacing  33/coordinate 1 (-)>>>
             <<<Displacing  33/coordinate 2 (+)>>>
             <<<Displacing  33/coordinate 2 (-)>>>
             <<<Displacing  34/coordinate 1 (+)>>>
             <<<Displacing  33/coordinate 3 (+)>>>
             <<<Displacing  34/coordinate 1 (-)>>>
             <<<Displacing  33/coordinate 3 (-)>>>
             <<<Displacing  34/coordinate 2 (+)>>>
             <<<Displacing  34/coordinate 2 (-)>>>
             <<<Displacing  34/coordinate 3 (+)>>>
             <<<Displacing  34/coordinate 3 (-)>>>
             <<<Displacing  35/coordinate 1 (+)>>>
             <<<Displacing  35/coordinate 2 (+)>>>
             <<<Displacing  35/coordinate 1 (-)>>>
             <<<Displacing  35/coordinate 2 (-)>>>
             <<<Displacing  35/coordinate 3 (+)>>>
             <<<Displacing  35/coordinate 3 (-)>>>
             <<<Displacing  36/coordinate 1 (+)>>>
             <<<Displacing  36/coordinate 1 (-)>>>
             <<<Displacing  36/coordinate 2 (+)>>>
             <<<Displacing  36/coordinate 2 (-)>>>
             <<<Displacing  36/coordinate 3 (+)>>>
             <<<Displacing  36/coordinate 3 (-)>>>
             <<<Displacing  37/coordinate 2 (+)>>>
             <<<Displacing  37/coordinate 2 (-)>>>
             <<<Displacing  37/coordinate 1 (+)>>>
             <<<Displacing  37/coordinate 1 (-)>>>
             <<<Displacing  37/coordinate 3 (+)>>>
             <<<Displacing  37/coordinate 3 (-)>>>
             <<<Displacing  38/coordinate 2 (+)>>>
             <<<Displacing  38/coordinate 1 (+)>>>
             <<<Displacing  38/coordinate 2 (-)>>>
             <<<Displacing  38/coordinate 1 (-)>>>
             <<<Displacing  38/coordinate 3 (+)>>>
             <<<Displacing  38/coordinate 3 (-)>>>
             <<<Displacing  39/coordinate 1 (+)>>>
             <<<Displacing  39/coordinate 1 (-)>>>
             <<<Displacing  39/coordinate 2 (+)>>>
             <<<Displacing  39/coordinate 2 (-)>>>
             <<<Displacing  39/coordinate 3 (+)>>>
             <<<Displacing  39/coordinate 3 (-)>>>
             <<<Displacing  40/coordinate 1 (+)>>>
             <<<Displacing  40/coordinate 2 (+)>>>
             <<<Displacing  40/coordinate 1 (-)>>>
             <<<Displacing  40/coordinate 2 (-)>>>
             <<<Displacing  40/coordinate 3 (+)>>>
             <<<Displacing  40/coordinate 3 (-)>>>
             <<<Displacing  41/coordinate 1 (+)>>>
             <<<Displacing  41/coordinate 2 (+)>>>
             <<<Displacing  41/coordinate 1 (-)>>>
             <<<Displacing  41/coordinate 2 (-)>>>
             <<<Displacing  41/coordinate 3 (+)>>>
             <<<Displacing  41/coordinate 3 (-)>>>
             <<<Displacing  42/coordinate 1 (+)>>>
             <<<Displacing  42/coordinate 1 (-)>>>
             <<<Displacing  42/coordinate 3 (+)>>>
             <<<Displacing  42/coordinate 2 (+)>>>
             <<<Displacing  42/coordinate 3 (-)>>>
             <<<Displacing  42/coordinate 2 (-)>>>
             <<<Displacing  43/coordinate 1 (+)>>>
             <<<Displacing  43/coordinate 2 (+)>>>
             <<<Displacing  43/coordinate 1 (-)>>>
             <<<Displacing  43/coordinate 2 (-)>>>
             <<<Displacing  43/coordinate 3 (+)>>>
             <<<Displacing  43/coordinate 3 (-)>>>
             <<<Displacing  44/coordinate 2 (+)>>>
             <<<Displacing  44/coordinate 2 (-)>>>
             <<<Displacing  44/coordinate 1 (+)>>>
             <<<Displacing  44/coordinate 1 (-)>>>
             <<<Displacing  44/coordinate 3 (+)>>>
             <<<Displacing  44/coordinate 3 (-)>>>
             <<<Displacing  45/coordinate 1 (+)>>>
             <<<Displacing  45/coordinate 1 (-)>>>
             <<<Displacing  45/coordinate 2 (+)>>>
             <<<Displacing  45/coordinate 2 (-)>>>
             <<<Displacing  45/coordinate 3 (+)>>>
             <<<Displacing  45/coordinate 3 (-)>>>
             <<<Displacing  46/coordinate 1 (+)>>>
             <<<Displacing  46/coordinate 1 (-)>>>
             <<<Displacing  46/coordinate 2 (+)>>>
             <<<Displacing  46/coordinate 2 (-)>>>
             <<<Displacing  46/coordinate 3 (+)>>>
             <<<Displacing  46/coordinate 3 (-)>>>

-----------------------
VIBRATIONAL FREQUENCIES
-----------------------

Scaling factor for frequencies =  1.000000000 (already applied!)

   0:         0.00 cm**-1
   1:         0.00 cm**-1
   2:         0.00 cm**-1
   3:         0.00 cm**-1
   4:         0.00 cm**-1
   5:         0.00 cm**-1
   6:      -677.55 cm**-1 ***imaginary mode***
   7:        28.91 cm**-1
   8:        43.92 cm**-1
   9:        50.85 cm**-1
  10:        61.70 cm**-1
  11:        74.24 cm**-1
  12:        85.85 cm**-1
  13:        92.74 cm**-1
  14:        93.75 cm**-1
  15:       114.82 cm**-1
  16:       122.79 cm**-1
  17:       130.13 cm**-1
  18:       141.90 cm**-1
  19:       166.03 cm**-1
  20:       183.33 cm**-1
  21:       203.09 cm**-1
  22:       234.21 cm**-1
  23:       251.79 cm**-1
  24:       266.57 cm**-1
  25:       278.07 cm**-1
  26:       283.70 cm**-1
  27:       287.96 cm**-1
  28:       344.81 cm**-1
  29:       367.08 cm**-1
  30:       386.00 cm**-1
  31:       394.71 cm**-1
  32:       421.65 cm**-1
  33:       425.92 cm**-1
  34:       456.79 cm**-1
  35:       484.92 cm**-1
  36:       535.91 cm**-1
  37:       557.90 cm**-1
  38:       591.22 cm**-1
  39:       631.11 cm**-1
  40:       677.99 cm**-1
  41:       767.28 cm**-1
  42:       770.29 cm**-1
  43:       775.27 cm**-1
  44:       776.60 cm**-1
  45:       823.63 cm**-1
  46:       826.16 cm**-1
  47:       841.27 cm**-1
  48:       879.79 cm**-1
  49:       886.24 cm**-1
  50:       911.82 cm**-1
  51:       923.13 cm**-1
  52:       933.96 cm**-1
  53:       936.80 cm**-1
  54:       943.20 cm**-1
  55:       945.74 cm**-1
  56:       950.13 cm**-1
  57:       983.71 cm**-1
  58:       994.69 cm**-1
  59:      1029.25 cm**-1
  60:      1051.90 cm**-1
  61:      1053.04 cm**-1
  62:      1069.44 cm**-1
  63:      1080.88 cm**-1
  64:      1090.82 cm**-1
  65:      1099.96 cm**-1
  66:      1108.95 cm**-1
  67:      1111.94 cm**-1
  68:      1114.39 cm**-1
  69:      1130.91 cm**-1
  70:      1134.89 cm**-1
  71:      1161.36 cm**-1
  72:      1177.84 cm**-1
  73:      1184.76 cm**-1
  74:      1196.17 cm**-1
  75:      1209.29 cm**-1
  76:      1216.83 cm**-1
  77:      1238.48 cm**-1
  78:      1258.89 cm**-1
  79:      1269.93 cm**-1
  80:      1270.57 cm**-1
  81:      1275.70 cm**-1
  82:      1276.51 cm**-1
  83:      1278.47 cm**-1
  84:      1282.70 cm**-1
  85:      1285.19 cm**-1
  86:      1310.71 cm**-1
  87:      1330.76 cm**-1
  88:      1341.98 cm**-1
  89:      1370.23 cm**-1
  90:      1373.79 cm**-1
  91:      1393.23 cm**-1
  92:      1410.44 cm**-1
  93:      1428.05 cm**-1
  94:      1429.54 cm**-1
  95:      1437.03 cm**-1
  96:      1461.26 cm**-1
  97:      1466.80 cm**-1
  98:      1477.33 cm**-1
  99:      1497.99 cm**-1
 100:      1502.82 cm**-1
 101:      1505.56 cm**-1
 102:      1507.08 cm**-1
 103:      1507.25 cm**-1
 104:      1509.47 cm**-1
 105:      1511.00 cm**-1
 106:      1513.30 cm**-1
 107:      1514.87 cm**-1
 108:      1556.36 cm**-1
 109:      1565.73 cm**-1
 110:      1574.09 cm**-1
 111:      2823.92 cm**-1
 112:      2872.07 cm**-1
 113:      2893.18 cm**-1
 114:      2931.51 cm**-1
 115:      2941.87 cm**-1
 116:      2944.43 cm**-1
 117:      2946.04 cm**-1
 118:      2954.64 cm**-1
 119:      2959.25 cm**-1
 120:      2963.94 cm**-1
 121:      2968.77 cm**-1
 122:      2972.78 cm**-1
 123:      2977.95 cm**-1
 124:      2983.04 cm**-1
 125:      2984.03 cm**-1
 126:      2989.40 cm**-1
 127:      2997.17 cm**-1
 128:      3001.26 cm**-1
 129:      3010.43 cm**-1
 130:      3025.17 cm**-1
 131:      3044.26 cm**-1
 132:      3051.35 cm**-1
 133:      3056.22 cm**-1
 134:      3067.17 cm**-1
 135:      3083.07 cm**-1
 136:      3394.42 cm**-1
 137:      3588.93 cm**-1


------------
NORMAL MODES
------------

These modes are the cartesian displacements weighted by the diagonal matrix
M(i,i)=1/sqrt(m[i]) where m[i] is the mass of the displaced atom
Thus, these vectors are normalized but *not* orthogonal

                  0          1          2          3          4          5    
      0       0.000000   0.000000   0.000000   0.000000   0.000000   0.000000
      1       0.000000   0.000000   0.000000   0.000000   0.000000   0.000000
      2       0.000000   0.000000   0.000000   0.000000   0.000000   0.000000
      3       0.000000   0.000000   0.000000   0.000000   0.000000   0.000000
      4       0.000000   0.000000   0.000000   0.000000   0.000000   0.000000
      5       0.000000   0.000000   0.000000   0.000000   0.000000   0.000000
      6       0.000000   0.000000   0.000000   0.000000   0.000000   0.000000
      7       0.000000   0.000000   0.000000   0.000000   0.000000   0.000000
      8       0.000000   0.000000   0.000000   0.000000   0.000000   0.000000
      9       0.000000   0.000000   0.000000   0.000000   0.000000   0.000000
     10       0.000000   0.000000   0.000000   0.000000   0.000000   0.000000
     11       0.000000   0.000000   0.000000   0.000000   0.000000   0.000000
     12       0.000000   0.000000   0.000000   0.000000   0.000000   0.000000
     13       0.000000   0.000000   0.000000   0.000000   0.000000   0.000000
     14       0.000000   0.000000   0.000000   0.000000   0.000000   0.000000
     15       0.000000   0.000000   0.000000   0.000000   0.000000   0.000000
     16       0.000000   0.000000   0.000000   0.000000   0.000000   0.000000
     17       0.000000   0.000000   0.000000   0.000000   0.000000   0.000000
     18       0.000000   0.000000   0.000000   0.000000   0.000000   0.000000
     19       0.000000   0.000000   0.000000   0.000000   0.000000   0.000000
     20       0.000000   0.000000   0.000000   0.000000   0.000000   0.000000
     21       0.000000   0.000000   0.000000   0.000000   0.000000   0.000000
     22       0.000000   0.000000   0.000000   0.000000   0.000000   0.000000
     23       0.000000   0.000000   0.000000   0.000000   0.000000   0.000000
     24       0.000000   0.000000   0.000000   0.000000   0.000000   0.000000
     25       0.000000   0.000000   0.000000   0.000000   0.000000   0.000000
     26       0.000000   0.000000   0.000000   0.000000   0.000000   0.000000
     27       0.000000   0.000000   0.000000   0.000000   0.000000   0.000000
     28       0.000000   0.000000   0.000000   0.000000   0.000000   0.000000
     29       0.000000   0.000000   0.000000   0.000000   0.000000   0.000000
     30       0.000000   0.000000   0.000000   0.000000   0.000000   0.000000
     31       0.000000   0.000000   0.000000   0.000000   0.000000   0.000000
     32       0.000000   0.000000   0.000000   0.000000   0.000000   0.000000
     33       0.000000   0.000000   0.000000   0.000000   0.000000   0.000000
     34       0.000000   0.000000   0.000000   0.000000   0.000000   0.000000
     35       0.000000   0.000000   0.000000   0.000000   0.000000   0.000000
     36       0.000000   0.000000   0.000000   0.000000   0.000000   0.000000
     37       0.000000   0.000000   0.000000   0.000000   0.000000   0.000000
     38       0.000000   0.000000   0.000000   0.000000   0.000000   0.000000
     39       0.000000   0.000000   0.000000   0.000000   0.000000   0.000000
     40       0.000000   0.000000   0.000000   0.000000   0.000000   0.000000
     41       0.000000   0.000000   0.000000   0.000000   0.000000   0.000000
     42       0.000000   0.000000   0.000000   0.000000   0.000000   0.000000
     43       0.000000   0.000000   0.000000   0.000000   0.000000   0.000000
     44       0.000000   0.000000   0.000000   0.000000   0.000000   0.000000
     45       0.000000   0.000000   0.000000   0.000000   0.000000   0.000000
     46       0.000000   0.000000   0.000000   0.000000   0.000000   0.000000
     47       0.000000   0.000000   0.000000   0.000000   0.000000   0.000000
     48       0.000000   0.000000   0.000000   0.000000   0.000000   0.000000
     49       0.000000   0.000000   0.000000   0.000000   0.000000   0.000000
     50       0.000000   0.000000   0.000000   0.000000   0.000000   0.000000
     51       0.000000   0.000000   0.000000   0.000000   0.000000   0.000000
     52       0.000000   0.000000   0.000000   0.000000   0.000000   0.000000
     53       0.000000   0.000000   0.000000   0.000000   0.000000   0.000000
     54       0.000000   0.000000   0.000000   0.000000   0.000000   0.000000
     55       0.000000   0.000000   0.000000   0.000000   0.000000   0.000000
     56       0.000000   0.000000   0.000000   0.000000   0.000000   0.000000
     57       0.000000   0.000000   0.000000   0.000000   0.000000   0.000000
     58       0.000000   0.000000   0.000000   0.000000   0.000000   0.000000
     59       0.000000   0.000000   0.000000   0.000000   0.000000   0.000000
     60       0.000000   0.000000   0.000000   0.000000   0.000000   0.000000
     61       0.000000   0.000000   0.000000   0.000000   0.000000   0.000000
     62       0.000000   0.000000   0.000000   0.000000   0.000000   0.000000
     63       0.000000   0.000000   0.000000   0.000000   0.000000   0.000000
     64       0.000000   0.000000   0.000000   0.000000   0.000000   0.000000
     65       0.000000   0.000000   0.000000   0.000000   0.000000   0.000000
     66       0.000000   0.000000   0.000000   0.000000   0.000000   0.000000
     67       0.000000   0.000000   0.000000   0.000000   0.000000   0.000000
     68       0.000000   0.000000   0.000000   0.000000   0.000000   0.000000
     69       0.000000   0.000000   0.000000   0.000000   0.000000   0.000000
     70       0.000000   0.000000   0.000000   0.000000   0.000000   0.000000
     71       0.000000   0.000000   0.000000   0.000000   0.000000   0.000000
     72       0.000000   0.000000   0.000000   0.000000   0.000000   0.000000
     73       0.000000   0.000000   0.000000   0.000000   0.000000   0.000000
     74       0.000000   0.000000   0.000000   0.000000   0.000000   0.000000
     75       0.000000   0.000000   0.000000   0.000000   0.000000   0.000000
     76       0.000000   0.000000   0.000000   0.000000   0.000000   0.000000
     77       0.000000   0.000000   0.000000   0.000000   0.000000   0.000000
     78       0.000000   0.000000   0.000000   0.000000   0.000000   0.000000
     79       0.000000   0.000000   0.000000   0.000000   0.000000   0.000000
     80       0.000000   0.000000   0.000000   0.000000   0.000000   0.000000
     81       0.000000   0.000000   0.000000   0.000000   0.000000   0.000000
     82       0.000000   0.000000   0.000000   0.000000   0.000000   0.000000
     83       0.000000   0.000000   0.000000   0.000000   0.000000   0.000000
     84       0.000000   0.000000   0.000000   0.000000   0.000000   0.000000
     85       0.000000   0.000000   0.000000   0.000000   0.000000   0.000000
     86       0.000000   0.000000   0.000000   0.000000   0.000000   0.000000
     87       0.000000   0.000000   0.000000   0.000000   0.000000   0.000000
     88       0.000000   0.000000   0.000000   0.000000   0.000000   0.000000
     89       0.000000   0.000000   0.000000   0.000000   0.000000   0.000000
     90       0.000000   0.000000   0.000000   0.000000   0.000000   0.000000
     91       0.000000   0.000000   0.000000   0.000000   0.000000   0.000000
     92       0.000000   0.000000   0.000000   0.000000   0.000000   0.000000
     93       0.000000   0.000000   0.000000   0.000000   0.000000   0.000000
     94       0.000000   0.000000   0.000000   0.000000   0.000000   0.000000
     95       0.000000   0.000000   0.000000   0.000000   0.000000   0.000000
     96       0.000000   0.000000   0.000000   0.000000   0.000000   0.000000
     97       0.000000   0.000000   0.000000   0.000000   0.000000   0.000000
     98       0.000000   0.000000   0.000000   0.000000   0.000000   0.000000
     99       0.000000   0.000000   0.000000   0.000000   0.000000   0.000000
    100       0.000000   0.000000   0.000000   0.000000   0.000000   0.000000
    101       0.000000   0.000000   0.000000   0.000000   0.000000   0.000000
    102       0.000000   0.000000   0.000000   0.000000   0.000000   0.000000
    103       0.000000   0.000000   0.000000   0.000000   0.000000   0.000000
    104       0.000000   0.000000   0.000000   0.000000   0.000000   0.000000
    105       0.000000   0.000000   0.000000   0.000000   0.000000   0.000000
    106       0.000000   0.000000   0.000000   0.000000   0.000000   0.000000
    107       0.000000   0.000000   0.000000   0.000000   0.000000   0.000000
    108       0.000000   0.000000   0.000000   0.000000   0.000000   0.000000
    109       0.000000   0.000000   0.000000   0.000000   0.000000   0.000000
    110       0.000000   0.000000   0.000000   0.000000   0.000000   0.000000
    111       0.000000   0.000000   0.000000   0.000000   0.000000   0.000000
    112       0.000000   0.000000   0.000000   0.000000   0.000000   0.000000
    113       0.000000   0.000000   0.000000   0.000000   0.000000   0.000000
    114       0.000000   0.000000   0.000000   0.000000   0.000000   0.000000
    115       0.000000   0.000000   0.000000   0.000000   0.000000   0.000000
    116       0.000000   0.000000   0.000000   0.000000   0.000000   0.000000
    117       0.000000   0.000000   0.000000   0.000000   0.000000   0.000000
    118       0.000000   0.000000   0.000000   0.000000   0.000000   0.000000
    119       0.000000   0.000000   0.000000   0.000000   0.000000   0.000000
    120       0.000000   0.000000   0.000000   0.000000   0.000000   0.000000
    121       0.000000   0.000000   0.000000   0.000000   0.000000   0.000000
    122       0.000000   0.000000   0.000000   0.000000   0.000000   0.000000
    123       0.000000   0.000000   0.000000   0.000000   0.000000   0.000000
    124       0.000000   0.000000   0.000000   0.000000   0.000000   0.000000
    125       0.000000   0.000000   0.000000   0.000000   0.000000   0.000000
    126       0.000000   0.000000   0.000000   0.000000   0.000000   0.000000
    127       0.000000   0.000000   0.000000   0.000000   0.000000   0.000000
    128       0.000000   0.000000   0.000000   0.000000   0.000000   0.000000
    129       0.000000   0.000000   0.000000   0.000000   0.000000   0.000000
    130       0.000000   0.000000   0.000000   0.000000   0.000000   0.000000
    131       0.000000   0.000000   0.000000   0.000000   0.000000   0.000000
    132       0.000000   0.000000   0.000000   0.000000   0.000000   0.000000
    133       0.000000   0.000000   0.000000   0.000000   0.000000   0.000000
    134       0.000000   0.000000   0.000000   0.000000   0.000000   0.000000
    135       0.000000   0.000000   0.000000   0.000000   0.000000   0.000000
    136       0.000000   0.000000   0.000000   0.000000   0.000000   0.000000
    137       0.000000   0.000000   0.000000   0.000000   0.000000   0.000000
                  6          7          8          9         10         11    
      0       0.004048  -0.042238  -0.007908   0.018215   0.007638   0.015900
      1       0.002544  -0.035460   0.162714  -0.025200   0.047318  -0.141980
      2       0.000244  -0.017667  -0.015201  -0.062253  -0.042450  -0.037277
      3       0.005853  -0.040639  -0.004290   0.025448   0.013368   0.035724
      4      -0.000162  -0.030983   0.081898   0.020209   0.027528  -0.159250
      5       0.003104  -0.011915  -0.002858  -0.034835  -0.021018   0.036472
      6       0.011457  -0.045891   0.010867  -0.002463   0.005546  -0.020475
      7      -0.009372  -0.026600   0.015317   0.016518   0.003246  -0.021349
      8       0.005011  -0.007849   0.008062  -0.002554  -0.002273   0.042709
      9      -0.002011  -0.052943   0.020084  -0.036736  -0.008462  -0.098414
     10       0.001034  -0.025614   0.034963  -0.034678  -0.001610   0.135614
     11       0.000290  -0.010178   0.005694   0.000698  -0.005436  -0.023653
     12      -0.000377  -0.054465   0.016714  -0.044382  -0.014276  -0.119461
     13       0.002486  -0.030423   0.117019  -0.078924   0.018895   0.154732
     14       0.000124  -0.015935  -0.006975  -0.027003  -0.026936  -0.099084
     15       0.000208  -0.049138   0.002846  -0.016744  -0.006174  -0.062114
     16       0.000581  -0.035602   0.180730  -0.074285   0.044231   0.017114
     17      -0.000053  -0.019613  -0.017257  -0.058233  -0.045531  -0.105690
     18       0.008598  -0.035154  -0.012966   0.053333   0.024134   0.096765
     19      -0.003680  -0.030446   0.067955   0.059280   0.031863  -0.276068
     20       0.003550  -0.010500  -0.001256  -0.037988  -0.019258   0.087281
     21       0.000495  -0.056821   0.027176  -0.057438  -0.015324  -0.143460
     22      -0.017995  -0.020072  -0.019074  -0.037444  -0.020879   0.240391
     23       0.006104  -0.007916   0.016421   0.023420   0.008275  -0.011184
     24      -0.000431  -0.050343   0.000202  -0.022356  -0.010782  -0.077510
     25      -0.003657  -0.039201   0.242139  -0.107954   0.061014   0.033510
     26      -0.001097  -0.024012  -0.026446  -0.079126  -0.062090  -0.161761
     27      -0.009614  -0.047932   0.013939  -0.006067   0.007998  -0.011225
     28      -0.102695  -0.027476  -0.081738   0.033454  -0.033266   0.001660
     29      -0.011919   0.002849   0.018881   0.041248   0.014482   0.098098
     30       0.028027  -0.007457   0.071105   0.025464  -0.104835   0.022011
     31      -0.255407  -0.008384  -0.128815   0.038098   0.011172  -0.003854
     32      -0.175706   0.010241  -0.027733   0.119916   0.155280   0.014429
     33      -0.008138  -0.046369   0.010080  -0.002910   0.006468  -0.018867
     34      -0.024271  -0.013189  -0.086176   0.068164  -0.034145  -0.006884
     35      -0.005995  -0.004491   0.006626   0.023465   0.008908   0.069608
     36      -0.051685  -0.098431  -0.029054  -0.012615   0.004086  -0.051966
     37       0.021375  -0.054986  -0.120057   0.103655  -0.033633  -0.029388
     38       0.020199  -0.095475  -0.065104   0.064888   0.008069   0.017234
     39       0.075257  -0.027109   0.008194  -0.001243   0.005608  -0.041469
     40      -0.001437  -0.075402  -0.132220   0.104566  -0.034544  -0.032847
     41      -0.056211   0.081154   0.070132  -0.026372   0.009280   0.103804
     42      -0.027174  -0.036280   0.005480  -0.021104   0.026130   0.014119
     43       0.794075  -0.022767  -0.109332   0.001704  -0.026477   0.026211
     44       0.376813   0.007602   0.027808   0.101133   0.039873   0.054647
     45      -0.027492  -0.002052  -0.014981  -0.020298   0.015510   0.030737
     46       0.027877  -0.022799  -0.100776   0.011505  -0.034608   0.026219
     47      -0.029064   0.008234   0.013413   0.142095   0.099291   0.009328
     48      -0.013549  -0.044829   0.091131  -0.003473   0.021140   0.007053
     49       0.125072   0.002865  -0.059794   0.125160   0.032245  -0.073948
     50       0.025545   0.018818  -0.020726   0.101703   0.030263   0.044802
     51       0.012855   0.028331  -0.045917  -0.025628   0.025749   0.032061
     52       0.008605  -0.072556  -0.059960   0.014257  -0.040531   0.028335
     53      -0.004533   0.003934   0.121080   0.218602  -0.068072  -0.021983
     54      -0.001293   0.029849  -0.176218  -0.161802   0.228352   0.061730
     55       0.010081  -0.101823   0.046209   0.147650  -0.151403   0.016442
     56       0.000547  -0.002403   0.205357   0.310468  -0.188792  -0.038675
     57       0.015499   0.004531   0.076244   0.081924  -0.137260   0.009471
     58       0.004209  -0.090470  -0.110543  -0.093505   0.048857   0.040266
     59       0.003520  -0.006320   0.250199   0.365818  -0.252345  -0.047109
     60       0.023746  -0.044498   0.014073   0.004754   0.008786  -0.006305
     61      -0.114408  -0.021565  -0.062662   0.064474   0.001959  -0.028275
     62       0.075397  -0.000564   0.015839   0.024453   0.011257   0.093416
     63      -0.009512  -0.039817  -0.010678   0.029493   0.008203   0.013131
     64       0.063109  -0.009198  -0.087456   0.104004   0.035896  -0.054492
     65      -0.088105  -0.009015   0.030806  -0.001259  -0.016032   0.118092
     66       0.006434  -0.040909   0.087996   0.001828  -0.001973   0.003370
     67       0.116887  -0.005982  -0.085042   0.101541   0.047629  -0.060532
     68      -0.014764   0.011602  -0.015910   0.092018   0.070508   0.051656
     69      -0.094094   0.014863  -0.093495  -0.058244   0.119867   0.037488
     70       0.126102   0.000757  -0.111091  -0.006908  -0.055346   0.055837
     71      -0.125130   0.012994  -0.058966   0.113763   0.212023   0.001491
     72      -0.000549  -0.007281   0.052903   0.011346   0.010840   0.052348
     73      -0.003072   0.136271   0.016663   0.005686  -0.030567   0.036684
     74      -0.003064  -0.006690  -0.007584  -0.000308   0.006489   0.022112
     75      -0.003242  -0.046598   0.049991   0.041492  -0.012941   0.140121
     76      -0.003624   0.181419   0.055479  -0.018074  -0.041084   0.077243
     77      -0.001226  -0.070332  -0.060317   0.033529   0.019438  -0.028386
     78       0.001012   0.055779   0.096025   0.005623   0.031389   0.063919
     79      -0.003634   0.156039   0.041142  -0.009203  -0.048595   0.086398
     80      -0.000484   0.063018   0.055691  -0.025489  -0.005810   0.100738
     81      -0.005371   0.088929  -0.066814   0.009555  -0.028544   0.019472
     82      -0.001594  -0.061790  -0.087047  -0.016278  -0.018602   0.032008
     83      -0.002415   0.023669  -0.045000  -0.025399   0.138297   0.009159
     84       0.002714   0.109153  -0.176783  -0.043883   0.164614   0.015542
     85       0.001348  -0.044428  -0.038556   0.111685  -0.092904   0.007847
     86      -0.000754   0.032505  -0.164476  -0.136166   0.342676   0.018115
     87       0.001744   0.090195   0.046950   0.082784  -0.267531   0.018096
     88       0.002021  -0.029273  -0.193145  -0.161532   0.075282   0.050079
     89      -0.001772   0.028389  -0.120843  -0.087089   0.275967   0.012964
     90       0.005298  -0.038103  -0.019254   0.040097   0.013830   0.061741
     91       0.002262  -0.038703   0.210776  -0.021586   0.066140  -0.248652
     92      -0.002350  -0.020669  -0.023071  -0.086555  -0.056745  -0.041112
     93      -0.002297  -0.059902   0.024803  -0.071727  -0.025602  -0.180590
     94       0.000774  -0.029745   0.130167  -0.116827   0.015944   0.278931
     95       0.000599  -0.017637  -0.008399  -0.024233  -0.029278  -0.150346
     96      -0.000139   0.001003   0.047363  -0.002261   0.019147   0.007708
     97       0.000586   0.192694   0.031267  -0.008190   0.014463  -0.050517
     98       0.000261  -0.015218  -0.039327  -0.041320   0.005662  -0.084805
     99      -0.000799  -0.046827   0.013924  -0.001773  -0.004218  -0.000537
    100      -0.000112   0.187746   0.016910   0.000814   0.031307  -0.090857
    101      -0.002018  -0.051686  -0.080155  -0.028501   0.014741  -0.146564
    102      -0.000870   0.035948   0.046676  -0.032125   0.045120  -0.089939
    103       0.000872   0.169769   0.008707   0.008036   0.022045  -0.075755
    104      -0.001284   0.018131  -0.008439  -0.065247  -0.003260  -0.055804
    105      -0.000322   0.120711  -0.097320   0.016731  -0.021386   0.010821
    106      -0.002075  -0.116128  -0.040144  -0.027530  -0.020484   0.046732
    107       0.000216   0.026565   0.049986  -0.049504  -0.123417   0.029614
    108      -0.000952   0.116333  -0.180900  -0.024048   0.178408   0.009924
    109       0.000598  -0.143817   0.013476   0.064115  -0.039149   0.031399
    110      -0.000298   0.023528   0.104132  -0.010459  -0.231736   0.027145
    111      -0.000412   0.103314  -0.011047   0.044023  -0.184879   0.017800
    112       0.001129  -0.135135  -0.048080  -0.114248  -0.005139   0.071626
    113       0.000371   0.021240   0.127055   0.016455  -0.269619   0.023287
    114      -0.001321   0.178095  -0.130569   0.040701  -0.064025  -0.005073
    115      -0.001679  -0.106885  -0.054076  -0.044477  -0.017755   0.049170
    116       0.000464   0.039768  -0.023874  -0.206815  -0.056114   0.062310
    117      -0.001124   0.197112  -0.147028   0.045831  -0.066307  -0.010220
    118      -0.003114  -0.141743  -0.025837  -0.052695  -0.007792   0.057967
    119       0.000416   0.045166   0.008309  -0.229087  -0.169062   0.073420
    120       0.000353   0.192053  -0.185327   0.023211   0.034762  -0.009294
    121      -0.000028  -0.090718  -0.040659   0.038625  -0.045105   0.026481
    122       0.000141   0.042498  -0.075160  -0.264872   0.038060   0.070910
    123       0.000481   0.186439  -0.083850   0.069901  -0.192383  -0.006674
    124      -0.000344  -0.081504  -0.106138  -0.132298   0.001869   0.064929
    125       0.000520   0.041279  -0.058495  -0.240714   0.011600   0.066601
    126       0.000372   0.025336   0.085699   0.022780   0.023959   0.100320
    127       0.000289   0.279821   0.090909  -0.053999   0.028041  -0.053758
    128      -0.000019  -0.018347  -0.057999  -0.068673   0.004576  -0.156187
    129       0.000193   0.029951   0.081075   0.012495   0.028121   0.067523
    130      -0.000750   0.309897   0.100709  -0.061457   0.050651  -0.096858
    131      -0.000583  -0.022823  -0.079230  -0.097241   0.003336  -0.234478
    132      -0.000108   0.067724   0.118934   0.023501   0.041596   0.119909
    133      -0.000414   0.287798   0.103380  -0.063655   0.017889  -0.027310
    134      -0.000674   0.016551  -0.022042  -0.081710   0.000430  -0.108447
    135       0.001052  -0.004051   0.084977   0.050686   0.005948   0.182194
    136      -0.000165   0.303890   0.111510  -0.070054   0.025105  -0.039442
    137       0.000624  -0.051001  -0.086578  -0.047161   0.009105  -0.178151
                 12         13         14         15         16         17    
      0       0.012877  -0.001795  -0.029703   0.020382  -0.027026   0.012178
      1      -0.067822   0.112222   0.004779  -0.004047   0.016159   0.028936
      2       0.043522  -0.065118  -0.021693  -0.000691   0.001555  -0.018489
      3       0.010290   0.010506  -0.026878   0.022723  -0.026465   0.017648
      4      -0.085976   0.082774   0.025162  -0.009922  -0.019739  -0.012263
      5       0.032901  -0.018155  -0.010915   0.008962   0.001595   0.003304
      6       0.013546  -0.004149  -0.035032   0.015246  -0.016117   0.013445
      7      -0.004380  -0.025539   0.009097   0.005676  -0.042357  -0.033210
      8      -0.004592   0.042933   0.005689   0.010526   0.000357   0.016588
      9       0.019121  -0.031019  -0.047678   0.007627  -0.008258   0.006895
     10       0.093206  -0.111900  -0.019913   0.023297  -0.036820  -0.033809
     11      -0.028787   0.057464   0.009221   0.003477   0.001410   0.014144
     12       0.021701  -0.043309  -0.051011   0.004702  -0.007975   0.001136
     13       0.117431  -0.093503  -0.042848   0.032078  -0.004035   0.004898
     14      -0.020912   0.015043  -0.000250  -0.007820   0.002558  -0.006809
     15       0.018087  -0.028239  -0.041682   0.011424  -0.018094   0.003827
     16       0.037778   0.022202  -0.032496   0.020265   0.025617   0.044251
     17       0.014464  -0.046577  -0.014372  -0.010301   0.001538  -0.025185
     18       0.005119   0.032485  -0.017469   0.030514  -0.034569   0.025064
     19      -0.160742   0.145229   0.051170  -0.022183  -0.025489  -0.017653
     20       0.052898  -0.029901  -0.015749   0.014904   0.000857   0.006887
     21       0.020191  -0.042529  -0.054168   0.000822  -0.000807   0.004365
     22       0.145767  -0.185541  -0.021555   0.033409  -0.052284  -0.053823
     23      -0.048012   0.095013   0.017052   0.006901  -0.000885   0.023631
     24       0.019683  -0.037575  -0.043297   0.009090  -0.018466  -0.001364
     25       0.056409   0.041388  -0.050943   0.029607   0.054793   0.083486
     26       0.020333  -0.080298  -0.020328  -0.018966   0.000640  -0.043536
     27       0.013633  -0.006153  -0.022441   0.016793  -0.012677   0.022641
     28       0.004945   0.026505  -0.036986   0.008595  -0.032499   0.006932
     29      -0.031895   0.091057   0.014445   0.001892  -0.008987  -0.005114
     30      -0.027307  -0.049757   0.137974  -0.107950   0.106532  -0.152994
     31       0.009735  -0.023084  -0.013591  -0.052208  -0.014599   0.033573
     32      -0.001991  -0.063340   0.031385   0.111125  -0.058546   0.090618
     33       0.022594   0.003797  -0.034167   0.026258  -0.008075   0.024209
     34       0.054494   0.069012  -0.072533   0.060989   0.004345   0.020700
     35      -0.032970   0.089505   0.000458  -0.006416  -0.018926  -0.012933
     36       0.056551   0.011149   0.002769  -0.010595  -0.068466   0.029520
     37       0.154567   0.140516  -0.051583   0.064565  -0.027275   0.039629
     38       0.125613   0.191824   0.052365  -0.024040  -0.101045   0.016778
     39       0.039484   0.010928  -0.065136   0.057118   0.026511   0.026557
     40       0.167940   0.149456  -0.033855   0.049019  -0.053366   0.041727
     41      -0.187227  -0.021340  -0.052425   0.012040   0.060714  -0.041639
     42      -0.028940  -0.058764   0.098587  -0.005424   0.031809  -0.002841
     43      -0.006216   0.047919  -0.038505  -0.061718  -0.006695   0.010710
     44      -0.014628   0.029679   0.018240   0.044765  -0.020986  -0.006546
     45      -0.044819  -0.071934   0.169710  -0.018651   0.074703  -0.031832
     46      -0.007245   0.044465  -0.021390  -0.046509  -0.013530   0.005340
     47       0.004648  -0.054943   0.018603   0.073933  -0.042869   0.032926
     48      -0.017204   0.038729  -0.018805  -0.060736  -0.022771  -0.073451
     49      -0.014902  -0.132501   0.066551   0.094129  -0.037428  -0.016479
     50      -0.026693  -0.027100   0.085230   0.095699   0.002162   0.033406
     51      -0.044296  -0.062483   0.160579   0.000456   0.068851  -0.015351
     52      -0.011629   0.031082   0.000343  -0.078776  -0.002066  -0.013197
     53       0.047030  -0.079685  -0.019432  -0.097824   0.028536  -0.130872
     54      -0.075037  -0.038359   0.161303   0.077181   0.052566   0.142968
     55      -0.019137   0.004711   0.067508   0.001689  -0.055219  -0.082379
     56       0.060470  -0.096313  -0.007080  -0.119293   0.025990  -0.221187
     57      -0.021533  -0.089869   0.173676  -0.072733   0.089867  -0.150812
     58      -0.011730   0.032140  -0.022610  -0.160681   0.057545   0.024495
     59       0.066231  -0.103000   0.004459  -0.114932   0.014626  -0.264111
     60       0.007579   0.008604  -0.030739   0.011417  -0.016020   0.010065
     61      -0.006039  -0.037104   0.011220   0.034565  -0.054390  -0.006081
     62      -0.021711   0.080564   0.013270   0.004523  -0.000680   0.010057
     63       0.003662   0.033543  -0.042239   0.018975  -0.017284   0.017274
     64      -0.002086  -0.087939   0.023926   0.083370  -0.058361   0.019536
     65      -0.025384   0.125581  -0.000396  -0.030539   0.002253  -0.008685
     66      -0.019343   0.027784  -0.002692  -0.050444  -0.007558  -0.082257
     67       0.000393  -0.106933   0.021940   0.091539  -0.055604   0.026310
     68      -0.022479  -0.007545   0.056280   0.077549  -0.024886   0.049350
     69      -0.059618  -0.081758   0.188205   0.070652   0.040083   0.072060
     70      -0.021719   0.090632  -0.007018  -0.013618  -0.013793  -0.006626
     71      -0.002509  -0.088049   0.029990   0.142723  -0.075461   0.140438
     72      -0.028424   0.014674  -0.049293   0.031251   0.018315   0.017447
     73      -0.146511  -0.074974  -0.166381   0.113355   0.151482  -0.017809
     74      -0.031157   0.054203  -0.006014   0.000037  -0.012170  -0.013404
     75      -0.165463  -0.038896  -0.165861   0.027950  -0.005446   0.031048
     76      -0.301236  -0.184829  -0.263964   0.132387   0.199374  -0.025494
     77       0.171249   0.199838   0.120334  -0.026435  -0.079340  -0.002036
     78       0.020707   0.075958   0.021367   0.029693   0.051064  -0.003547
     79      -0.321175  -0.197781  -0.290554   0.130644   0.183539  -0.017135
     80      -0.248845  -0.081384  -0.137751   0.024269   0.056265  -0.026200
     81      -0.023135  -0.023644   0.095293   0.003925   0.035387  -0.019002
     82      -0.010393   0.041898  -0.018282  -0.097732   0.006952   0.004314
     83       0.041011  -0.044007  -0.100972  -0.210202   0.115871  -0.002237
     84      -0.005816  -0.000710  -0.023253  -0.101695   0.068388  -0.080250
     85       0.009446   0.044728  -0.040946  -0.077281  -0.039735  -0.074317
     86       0.045643  -0.025698  -0.191147  -0.310323   0.167538  -0.015634
     87      -0.031114  -0.027570   0.189980   0.118545  -0.020469   0.052910
     88      -0.009536   0.084789  -0.088530  -0.151929   0.037666   0.093207
     89       0.045097  -0.034527  -0.161154  -0.277085   0.148805  -0.024018
     90       0.010276   0.009704  -0.021737   0.025308  -0.034713   0.013987
     91      -0.132306   0.201737   0.016496  -0.014895   0.037256   0.053126
     92       0.072884  -0.114103  -0.034873  -0.001189   0.000774  -0.030425
     93       0.026539  -0.064915  -0.060650  -0.002994  -0.000262  -0.006623
     94       0.197310  -0.164851  -0.067702   0.049643   0.001330   0.010054
     95      -0.041563   0.028637   0.003948  -0.014897   0.003283  -0.010372
     96       0.029026   0.028128  -0.005251   0.033053   0.022120   0.016510
     97       0.109474   0.093582   0.058249   0.093110   0.154624  -0.040872
     98       0.003741  -0.017083   0.001718   0.020676   0.003102  -0.002823
     99      -0.040420  -0.041869  -0.101740   0.103400   0.104657   0.016181
    100       0.264650   0.220984   0.159926   0.148580   0.250034  -0.070507
    101       0.178045   0.117838   0.084124   0.142994   0.189453  -0.044763
    102       0.178946   0.074442   0.126415   0.010612  -0.000367   0.015553
    103       0.231724   0.207320   0.120469   0.172874   0.280690  -0.073255
    104      -0.155571  -0.170953  -0.076142  -0.090378  -0.172067   0.041827
    105      -0.004973   0.009514   0.022473  -0.019037   0.013628  -0.024008
    106      -0.040630  -0.013137   0.100350  -0.069842   0.046595   0.004943
    107       0.014740  -0.033967   0.027729  -0.057764   0.062966   0.176701
    108      -0.003497   0.018926  -0.056870  -0.067308   0.007174  -0.232925
    109      -0.028412  -0.080423   0.151567  -0.166053   0.158871   0.142993
    110       0.016254  -0.051661   0.079053  -0.050437   0.087353   0.312138
    111      -0.018975  -0.020917   0.136799   0.035134   0.034810   0.143541
    112      -0.076362  -0.005563   0.159395   0.038190  -0.010717  -0.113980
    113       0.020390  -0.063563   0.095746  -0.064655   0.108977   0.376876
[...]
  13:        92.74    0.000000  (  0.000000   0.000000   0.000000)
  14:        93.75    0.000000  (  0.000000   0.000000   0.000000)
  15:       114.82    0.000000  (  0.000000   0.000000   0.000000)
  16:       122.79    0.000000  (  0.000000   0.000000   0.000000)
  17:       130.13    0.000000  (  0.000000   0.000000   0.000000)
  18:       141.90    0.000000  (  0.000000   0.000000   0.000000)
  19:       166.03    0.000000  (  0.000000   0.000000   0.000000)
  20:       183.33    0.000000  (  0.000000   0.000000   0.000000)
  21:       203.09    0.000000  (  0.000000   0.000000   0.000000)
  22:       234.21    0.000000  (  0.000000   0.000000   0.000000)
  23:       251.79    0.000000  (  0.000000   0.000000   0.000000)
  24:       266.57    0.000000  (  0.000000   0.000000   0.000000)
  25:       278.07    0.000000  (  0.000000   0.000000   0.000000)
  26:       283.70    0.000000  (  0.000000   0.000000   0.000000)
  27:       287.96    0.000000  (  0.000000   0.000000   0.000000)
  28:       344.81    0.000000  (  0.000000   0.000000   0.000000)
  29:       367.08    0.000000  (  0.000000   0.000000   0.000000)
  30:       386.00    0.000000  (  0.000000   0.000000   0.000000)
  31:       394.71    0.000000  (  0.000000   0.000000   0.000000)
  32:       421.65    0.000000  (  0.000000   0.000000   0.000000)
  33:       425.92    0.000000  (  0.000000   0.000000   0.000000)
  34:       456.79    0.000000  (  0.000000   0.000000   0.000000)
  35:       484.92    0.000000  (  0.000000   0.000000   0.000000)
  36:       535.91    0.000000  (  0.000000   0.000000   0.000000)
  37:       557.90    0.000000  (  0.000000   0.000000   0.000000)
  38:       591.22    0.000000  (  0.000000   0.000000   0.000000)
  39:       631.11    0.000000  (  0.000000   0.000000   0.000000)
  40:       677.99    0.000000  (  0.000000   0.000000   0.000000)
  41:       767.28    0.000000  (  0.000000   0.000000   0.000000)
  42:       770.29    0.000000  (  0.000000   0.000000   0.000000)
  43:       775.27    0.000000  (  0.000000   0.000000   0.000000)
  44:       776.60    0.000000  (  0.000000   0.000000   0.000000)
  45:       823.63    0.000000  (  0.000000   0.000000   0.000000)
  46:       826.16    0.000000  (  0.000000   0.000000   0.000000)
  47:       841.27    0.000000  (  0.000000   0.000000   0.000000)
  48:       879.79    0.000000  (  0.000000   0.000000   0.000000)
  49:       886.24    0.000000  (  0.000000   0.000000   0.000000)
  50:       911.82    0.000000  (  0.000000   0.000000   0.000000)
  51:       923.13    0.000000  (  0.000000   0.000000   0.000000)
  52:       933.96    0.000000  (  0.000000   0.000000   0.000000)
  53:       936.80    0.000000  (  0.000000   0.000000   0.000000)
  54:       943.20    0.000000  (  0.000000   0.000000   0.000000)
  55:       945.74    0.000000  (  0.000000   0.000000   0.000000)
  56:       950.13    0.000000  (  0.000000   0.000000   0.000000)
  57:       983.71    0.000000  (  0.000000   0.000000   0.000000)
  58:       994.69    0.000000  (  0.000000   0.000000   0.000000)
  59:      1029.25    0.000000  (  0.000000   0.000000   0.000000)
  60:      1051.90    0.000000  (  0.000000   0.000000   0.000000)
  61:      1053.04    0.000000  (  0.000000   0.000000   0.000000)
  62:      1069.44    0.000000  (  0.000000   0.000000   0.000000)
  63:      1080.88    0.000000  (  0.000000   0.000000   0.000000)
  64:      1090.82    0.000000  (  0.000000   0.000000   0.000000)
  65:      1099.96    0.000000  (  0.000000   0.000000   0.000000)
  66:      1108.95    0.000000  (  0.000000   0.000000   0.000000)
  67:      1111.94    0.000000  (  0.000000   0.000000   0.000000)
  68:      1114.39    0.000000  (  0.000000   0.000000   0.000000)
  69:      1130.91    0.000000  (  0.000000   0.000000   0.000000)
  70:      1134.89    0.000000  (  0.000000   0.000000   0.000000)
  71:      1161.36    0.000000  (  0.000000   0.000000   0.000000)
  72:      1177.84    0.000000  (  0.000000   0.000000   0.000000)
  73:      1184.76    0.000000  (  0.000000   0.000000   0.000000)
  74:      1196.17    0.000000  (  0.000000   0.000000   0.000000)
  75:      1209.29    0.000000  (  0.000000   0.000000   0.000000)
  76:      1216.83    0.000000  (  0.000000   0.000000   0.000000)
  77:      1238.48    0.000000  (  0.000000   0.000000   0.000000)
  78:      1258.89    0.000000  (  0.000000   0.000000   0.000000)
  79:      1269.93    0.000000  (  0.000000   0.000000   0.000000)
  80:      1270.57    0.000000  (  0.000000   0.000000   0.000000)
  81:      1275.70    0.000000  (  0.000000   0.000000   0.000000)
  82:      1276.51    0.000000  (  0.000000   0.000000   0.000000)
  83:      1278.47    0.000000  (  0.000000   0.000000   0.000000)
  84:      1282.70    0.000000  (  0.000000   0.000000   0.000000)
  85:      1285.19    0.000000  (  0.000000   0.000000   0.000000)
  86:      1310.71    0.000000  (  0.000000   0.000000   0.000000)
  87:      1330.76    0.000000  (  0.000000   0.000000   0.000000)
  88:      1341.98    0.000000  (  0.000000   0.000000   0.000000)
  89:      1370.23    0.000000  (  0.000000   0.000000   0.000000)
  90:      1373.79    0.000000  (  0.000000   0.000000   0.000000)
  91:      1393.23    0.000000  (  0.000000   0.000000   0.000000)
  92:      1410.44    0.000000  (  0.000000   0.000000   0.000000)
  93:      1428.05    0.000000  (  0.000000   0.000000   0.000000)
  94:      1429.54    0.000000  (  0.000000   0.000000   0.000000)
  95:      1437.03    0.000000  (  0.000000   0.000000   0.000000)
  96:      1461.26    0.000000  (  0.000000   0.000000   0.000000)
  97:      1466.80    0.000000  (  0.000000   0.000000   0.000000)
  98:      1477.33    0.000000  (  0.000000   0.000000   0.000000)
  99:      1497.99    0.000000  (  0.000000   0.000000   0.000000)
 100:      1502.82    0.000000  (  0.000000   0.000000   0.000000)
 101:      1505.56    0.000000  (  0.000000   0.000000   0.000000)
 102:      1507.08    0.000000  (  0.000000   0.000000   0.000000)
 103:      1507.25    0.000000  (  0.000000   0.000000   0.000000)
 104:      1509.47    0.000000  (  0.000000   0.000000   0.000000)
 105:      1511.00    0.000000  (  0.000000   0.000000   0.000000)
 106:      1513.30    0.000000  (  0.000000   0.000000   0.000000)
 107:      1514.87    0.000000  (  0.000000   0.000000   0.000000)
 108:      1556.36    0.000000  (  0.000000   0.000000   0.000000)
 109:      1565.73    0.000000  (  0.000000   0.000000   0.000000)
 110:      1574.09    0.000000  (  0.000000   0.000000   0.000000)
 111:      2823.92    0.000000  (  0.000000   0.000000   0.000000)
 112:      2872.07    0.000000  (  0.000000   0.000000   0.000000)
 113:      2893.18    0.000000  (  0.000000   0.000000   0.000000)
 114:      2931.51    0.000000  (  0.000000   0.000000   0.000000)
 115:      2941.87    0.000000  (  0.000000   0.000000   0.000000)
 116:      2944.43    0.000000  (  0.000000   0.000000   0.000000)
 117:      2946.04    0.000000  (  0.000000   0.000000   0.000000)
 118:      2954.64    0.000000  (  0.000000   0.000000   0.000000)
 119:      2959.25    0.000000  (  0.000000   0.000000   0.000000)
 120:      2963.94    0.000000  (  0.000000   0.000000   0.000000)
 121:      2968.77    0.000000  (  0.000000   0.000000   0.000000)
 122:      2972.78    0.000000  (  0.000000   0.000000   0.000000)
 123:      2977.95    0.000000  (  0.000000   0.000000   0.000000)
 124:      2983.04    0.000000  (  0.000000   0.000000   0.000000)
 125:      2984.03    0.000000  (  0.000000   0.000000   0.000000)
 126:      2989.40    0.000000  (  0.000000   0.000000   0.000000)
 127:      2997.17    0.000000  (  0.000000   0.000000   0.000000)
 128:      3001.26    0.000000  (  0.000000   0.000000   0.000000)
 129:      3010.43    0.000000  (  0.000000   0.000000   0.000000)
 130:      3025.17    0.000000  (  0.000000   0.000000   0.000000)
 131:      3044.26    0.000000  (  0.000000   0.000000   0.000000)
 132:      3051.35    0.000000  (  0.000000   0.000000   0.000000)
 133:      3056.22    0.000000  (  0.000000   0.000000   0.000000)
 134:      3067.17    0.000000  (  0.000000   0.000000   0.000000)
 135:      3083.07    0.000000  (  0.000000   0.000000   0.000000)
 136:      3394.42    0.000000  (  0.000000   0.000000   0.000000)
 137:      3588.93    0.000000  (  0.000000   0.000000   0.000000)

The first frequency considered to be a vibration is 7
The total number of vibrations considered is 131


--------------------------
THERMOCHEMISTRY AT 298.15K
--------------------------

Temperature         ... 298.15 K
Pressure            ... 1.00 atm
Total Mass          ... 252.40 AMU

Throughout the following assumptions are being made:
  (1) The electronic state is orbitally nondegenerate
  (2) There are no thermally accessible electronically excited states
  (3) Hindered rotations indicated by low frequency modes are not
      treated as such but are treated as vibrations and this may
      cause some error
  (4) All equations used are the standard statistical mechanics
      equations for an ideal gas
  (5) All vibrations are strictly harmonic

freq.      28.91  E(vib)   ...       0.55 
freq.      43.92  E(vib)   ...       0.53 
freq.      50.85  E(vib)   ...       0.52 
freq.      61.70  E(vib)   ...       0.51 
freq.      74.24  E(vib)   ...       0.49 
freq.      85.85  E(vib)   ...       0.48 
freq.      92.74  E(vib)   ...       0.47 
freq.      93.75  E(vib)   ...       0.47 
freq.     114.82  E(vib)   ...       0.44 
freq.     122.79  E(vib)   ...       0.43 
freq.     130.13  E(vib)   ...       0.43 
freq.     141.90  E(vib)   ...       0.41 
freq.     166.03  E(vib)   ...       0.39 
freq.     183.33  E(vib)   ...       0.37 
freq.     203.09  E(vib)   ...       0.35 
freq.     234.21  E(vib)   ...       0.32 
freq.     251.79  E(vib)   ...       0.30 
freq.     266.57  E(vib)   ...       0.29 
freq.     278.07  E(vib)   ...       0.28 
freq.     283.70  E(vib)   ...       0.28 
freq.     287.96  E(vib)   ...       0.27 
freq.     344.81  E(vib)   ...       0.23 
freq.     367.08  E(vib)   ...       0.22 
freq.     386.00  E(vib)   ...       0.20 
freq.     394.71  E(vib)   ...       0.20 
freq.     421.65  E(vib)   ...       0.18 
freq.     425.92  E(vib)   ...       0.18 
freq.     456.79  E(vib)   ...       0.16 
freq.     484.92  E(vib)   ...       0.15 
freq.     535.91  E(vib)   ...       0.12 
freq.     557.90  E(vib)   ...       0.12 
freq.     591.22  E(vib)   ...       0.10 
freq.     631.11  E(vib)   ...       0.09 
freq.     677.99  E(vib)   ...       0.08 
freq.     767.28  E(vib)   ...       0.06 
freq.     770.29  E(vib)   ...       0.05 
freq.     775.27  E(vib)   ...       0.05 
freq.     776.60  E(vib)   ...       0.05 
freq.     823.63  E(vib)   ...       0.05 
freq.     826.16  E(vib)   ...       0.04 
freq.     841.27  E(vib)   ...       0.04 
freq.     879.79  E(vib)   ...       0.04 
freq.     886.24  E(vib)   ...       0.04 
freq.     911.82  E(vib)   ...       0.03 
freq.     923.13  E(vib)   ...       0.03 
freq.     933.96  E(vib)   ...       0.03 
freq.     936.80  E(vib)   ...       0.03 
freq.     943.20  E(vib)   ...       0.03 
freq.     945.74  E(vib)   ...       0.03 
freq.     950.13  E(vib)   ...       0.03 
freq.     983.71  E(vib)   ...       0.02 
freq.     994.69  E(vib)   ...       0.02 
freq.    1029.25  E(vib)   ...       0.02 
freq.    1051.90  E(vib)   ...       0.02 
freq.    1053.04  E(vib)   ...       0.02 
freq.    1069.44  E(vib)   ...       0.02 
freq.    1080.88  E(vib)   ...       0.02 
freq.    1090.82  E(vib)   ...       0.02 
freq.    1099.96  E(vib)   ...       0.02 
freq.    1108.95  E(vib)   ...       0.02 
freq.    1111.94  E(vib)   ...       0.01 
freq.    1114.39  E(vib)   ...       0.01 
freq.    1130.91  E(vib)   ...       0.01 
freq.    1134.89  E(vib)   ...       0.01 
freq.    1161.36  E(vib)   ...       0.01 
freq.    1177.84  E(vib)   ...       0.01 
freq.    1184.76  E(vib)   ...       0.01 
freq.    1196.17  E(vib)   ...       0.01 
freq.    1209.29  E(vib)   ...       0.01 
freq.    1216.83  E(vib)   ...       0.01 
freq.    1238.48  E(vib)   ...       0.01 
freq.    1258.89  E(vib)   ...       0.01 
freq.    1269.93  E(vib)   ...       0.01 
freq.    1270.57  E(vib)   ...       0.01 
freq.    1275.70  E(vib)   ...       0.01 
freq.    1276.51  E(vib)   ...       0.01 
freq.    1278.47  E(vib)   ...       0.01 
freq.    1282.70  E(vib)   ...       0.01 
freq.    1285.19  E(vib)   ...       0.01 
freq.    1310.71  E(vib)   ...       0.01 
freq.    1330.76  E(vib)   ...       0.01 
freq.    1341.98  E(vib)   ...       0.01 
freq.    1370.23  E(vib)   ...       0.01 
freq.    1373.79  E(vib)   ...       0.01 
freq.    1393.23  E(vib)   ...       0.00 
freq.    1410.44  E(vib)   ...       0.00 
freq.    1428.05  E(vib)   ...       0.00 
freq.    1429.54  E(vib)   ...       0.00 
freq.    1437.03  E(vib)   ...       0.00 
freq.    1461.26  E(vib)   ...       0.00 
freq.    1466.80  E(vib)   ...       0.00 
freq.    1477.33  E(vib)   ...       0.00 
freq.    1497.99  E(vib)   ...       0.00 
freq.    1502.82  E(vib)   ...       0.00 
freq.    1505.56  E(vib)   ...       0.00 
freq.    1507.08  E(vib)   ...       0.00 
freq.    1507.25  E(vib)   ...       0.00 
freq.    1509.47  E(vib)   ...       0.00 
freq.    1511.00  E(vib)   ...       0.00 
freq.    1513.30  E(vib)   ...       0.00 
freq.    1514.87  E(vib)   ...       0.00 
freq.    1556.36  E(vib)   ...       0.00 
freq.    1565.73  E(vib)   ...       0.00 
freq.    1574.09  E(vib)   ...       0.00 
freq.    2823.92  E(vib)   ...       0.00 
freq.    2872.07  E(vib)   ...       0.00 
freq.    2893.18  E(vib)   ...       0.00 
freq.    2931.51  E(vib)   ...       0.00 
freq.    2941.87  E(vib)   ...       0.00 
freq.    2944.43  E(vib)   ...       0.00 
freq.    2946.04  E(vib)   ...       0.00 
freq.    2954.64  E(vib)   ...       0.00 
freq.    2959.25  E(vib)   ...       0.00 
freq.    2963.94  E(vib)   ...       0.00 
freq.    2968.77  E(vib)   ...       0.00 
freq.    2972.78  E(vib)   ...       0.00 
freq.    2977.95  E(vib)   ...       0.00 
freq.    2983.04  E(vib)   ...       0.00 
freq.    2984.03  E(vib)   ...       0.00 
freq.    2989.40  E(vib)   ...       0.00 
freq.    2997.17  E(vib)   ...       0.00 
freq.    3001.26  E(vib)   ...       0.00 
freq.    3010.43  E(vib)   ...       0.00 
freq.    3025.17  E(vib)   ...       0.00 
freq.    3044.26  E(vib)   ...       0.00 
freq.    3051.35  E(vib)   ...       0.00 
freq.    3056.22  E(vib)   ...       0.00 
freq.    3067.17  E(vib)   ...       0.00 
freq.    3083.07  E(vib)   ...       0.00 
freq.    3394.42  E(vib)   ...       0.00 
freq.    3588.93  E(vib)   ...       0.00 

------------
INNER ENERGY
------------

The inner energy is: U= E(el) + E(ZPE) + E(vib) + E(rot) + E(trans)
    E(el)   - is the total energy from the electronic structure calculation
              = E(kin-el) + E(nuc-el) + E(el-el) + E(nuc-nuc)
    E(ZPE)  - the the zero temperature vibrational energy from the frequency calculation
    E(vib)  - the the finite temperature correction to E(ZPE) due to population
              of excited vibrational states
    E(rot)  - is the rotational thermal energy
    E(trans)- is the translational thermal energy

Summary of contributions to the inner energy U:
Electronic energy                ...    -56.26022377 Eh
Zero point energy                ...      0.39850626 Eh     250.07 kcal/mol
Thermal vibrational correction   ...      0.01868352 Eh      11.72 kcal/mol
Thermal rotational correction    ...      0.00141627 Eh       0.89 kcal/mol
Thermal translational correction ...      0.00141627 Eh       0.89 kcal/mol
-----------------------------------------------------------------------
Total thermal energy                    -55.84020144 Eh


Summary of corrections to the electronic energy:
(perhaps to be used in another calculation)
Total thermal correction                  0.02151606 Eh      13.50 kcal/mol
Non-thermal (ZPE) correction              0.39850626 Eh     250.07 kcal/mol
-----------------------------------------------------------------------
Total correction                          0.42002232 Eh     263.57 kcal/mol


--------
ENTHALPY
--------

The enthalpy is H = U + kB*T
                kB is Boltzmann's constant
Total free energy                 ...    -55.84020144 Eh 
Thermal Enthalpy correction       ...      0.00094421 Eh       0.59 kcal/mol
-----------------------------------------------------------------------
Total Enthalpy                    ...    -55.83925723 Eh


Note: Only C1 symmetry has been detected, increase convergence thresholds 
      if your molecule has a higher symmetry. Symmetry factor of 1.0 is   
      used for the rotational entropy correction. 
 

Note: Rotational entropy computed according to Herzberg 
Infrared and Raman Spectra, Chapter V,1, Van Nostrand Reinhold, 1945 
Point Group:  C1, Symmetry Number:   1  
Rotational constants in cm-1:     0.011810     0.006885     0.004847 

Vibrational entropy computed according to the QRRHO of S. Grimme
Chem.Eur.J. 2012 18 9955


-------
ENTROPY
-------

The entropy contributions are T*S = T*(S(el)+S(vib)+S(rot)+S(trans))
     S(el)   - electronic entropy
     S(vib)  - vibrational entropy
     S(rot)  - rotational entropy
     S(trans)- translational entropy
The entropies will be listed as mutliplied by the temperature to get
units of energy

Electronic entropy                ...      0.00000000 Eh      0.00 kcal/mol
Vibrational entropy               ...      0.03346681 Eh     21.00 kcal/mol
Rotational entropy                ...      0.01647252 Eh     10.34 kcal/mol
Translational entropy             ...      0.02018250 Eh     12.66 kcal/mol
-----------------------------------------------------------------------
Final entropy term                ...      0.07012183 Eh     44.00 kcal/mol

In case the symmetry of your molecule has not been determined correctly
or in case you have a reason to use a different symmetry number we print 
out the resulting rotational entropy values for sn=1,12 :
 --------------------------------------------------------
|  sn= 1 | S(rot)=       0.01647252 Eh     10.34 kcal/mol|
|  sn= 2 | S(rot)=       0.01581806 Eh      9.93 kcal/mol|
|  sn= 3 | S(rot)=       0.01543523 Eh      9.69 kcal/mol|
|  sn= 4 | S(rot)=       0.01516361 Eh      9.52 kcal/mol|
|  sn= 5 | S(rot)=       0.01495292 Eh      9.38 kcal/mol|
|  sn= 6 | S(rot)=       0.01478077 Eh      9.28 kcal/mol|
|  sn= 7 | S(rot)=       0.01463523 Eh      9.18 kcal/mol|
|  sn= 8 | S(rot)=       0.01450915 Eh      9.10 kcal/mol|
|  sn= 9 | S(rot)=       0.01439794 Eh      9.03 kcal/mol|
|  sn=10 | S(rot)=       0.01429846 Eh      8.97 kcal/mol|
|  sn=11 | S(rot)=       0.01420847 Eh      8.92 kcal/mol|
|  sn=12 | S(rot)=       0.01412632 Eh      8.86 kcal/mol|
 --------------------------------------------------------


-------------------
GIBBS FREE ENERGY
-------------------

The Gibbs free energy is G = H - T*S

Total enthalpy                    ...    -55.83925723 Eh 
Total entropy correction          ...     -0.07012183 Eh    -44.00 kcal/mol
-----------------------------------------------------------------------
Final Gibbs free energy         ...    -55.90937906 Eh

For completeness - the Gibbs free energy minus the electronic energy
G-E(el)                           ...      0.35084470 Eh    220.16 kcal/mol


Total Time for Numerical Frequencies  :       176.161 sec
Time for Reference State(s)           :         0.254 sec
Time for Displacements                :       160.877 sec

Timings for individual modules:

Sum of individual times         ...        0.474 sec (=   0.008 min)
XTB module                      ...        0.474 sec (=   0.008 min) 100.0 %
                             ****ORCA TERMINATED NORMALLY****
TOTAL RUN TIME: 0 days 0 hours 2 minutes 57 seconds 295 msec
(SLURM) EXECUTION TIME: 177.316604141 seconds.
