(SLURM) JOB ID:         813

                                 *****************
                                 * O   R   C   A *
                                 *****************

           --- An Ab Initio, DFT and Semiempirical electronic structure package ---

                  #######################################################
                  #                        -***-                        #
                  #          Department of theory and spectroscopy      #
                  #               Directorship: Frank Neese             #
                  #        Max Planck Institute fuer Kohlenforschung    #
                  #                Kaiser Wilhelm Platz 1               #
                  #                 D-45470 Muelheim/Ruhr               #
                  #                      Germany                        #
                  #                                                     #
                  #                  All rights reserved                #
                  #                        -***-                        #
                  #######################################################


                         Program Version 4.2.1 -  RELEASE  -


 With contributions from (in alphabetic order):
   Daniel Aravena         : Magnetic Suceptibility
   Michael Atanasov       : Ab Initio Ligand Field Theory (pilot matlab implementation)
   Alexander A. Auer      : GIAO ZORA, VPT2
   Ute Becker             : Parallelization
   Giovanni Bistoni       : ED, misc. LED, open-shell LED, HFLD
   Martin Brehm           : Molecular dynamics
   Dmytro Bykov           : SCF Hessian
   Vijay G. Chilkuri      : MRCI spin determinant printing, contributions to CSF-ICE
   Dipayan Datta          : RHF DLPNO-CCSD density
   Achintya Kumar Dutta   : EOM-CC, STEOM-CC
   Dmitry Ganyushin       : Spin-Orbit,Spin-Spin,Magnetic field MRCI
   Miquel Garcia          : C-PCM Hessian, Gaussian charge scheme
   Yang Guo               : DLPNO-NEVPT2, CIM, IAO-localization
   Andreas Hansen         : Spin unrestricted coupled pair/coupled cluster methods
   Benjamin Helmich-Paris : CASSCF linear response (MC-RPA)
   Lee Huntington         : MR-EOM, pCC
   Robert Izsak           : Overlap fitted RIJCOSX, COSX-SCS-MP3, EOM
   Christian Kollmar      : KDIIS, OOCD, Brueckner-CCSD(T), CCSD density
   Simone Kossmann        : Meta GGA functionals, TD-DFT gradient, OOMP2, MP2 Hessian
   Martin Krupicka        : AUTO-CI
   Lucas Lang             : DCDCAS
   Dagmar Lenk            : GEPOL surface, SMD
   Dimitrios Liakos       : Extrapolation schemes; Compound Job, initial MDCI parallelization
   Dimitrios Manganas     : Further ROCIS development; embedding schemes
   Dimitrios Pantazis     : SARC Basis sets
   Taras Petrenko         : DFT Hessian,TD-DFT gradient, ASA, ECA, R-Raman, ABS, FL, XAS/XES, NRVS
   Peter Pinski           : DLPNO-MP2, DLPNO-MP2 Gradient
   Christoph Reimann      : Effective Core Potentials
   Marius Retegan         : Local ZFS, SOC
   Christoph Riplinger    : Optimizer, TS searches, QM/MM, DLPNO-CCSD(T), (RO)-DLPNO pert. Triples
   Tobias Risthaus        : Range-separated hybrids, TD-DFT gradient, RPA, STAB
   Michael Roemelt        : Original ROCIS implementation
   Masaaki Saitow         : Open-shell DLPNO-CCSD energy and density
   Barbara Sandhoefer     : DKH picture change effects
   Avijit Sen             : IP-ROCIS
   Kantharuban Sivalingam : CASSCF convergence, NEVPT2, FIC-MRCI
   Bernardo de Souza      : ESD, SOC TD-DFT
   Georgi Stoychev        : AutoAux, RI-MP2 NMR
   Willem Van den Heuvel  : Paramagnetic NMR
   Boris Wezisla          : Elementary symmetry handling
   Frank Wennmohs         : Technical directorship


 We gratefully acknowledge several colleagues who have allowed us to
 interface, adapt or use parts of their codes:
   Stefan Grimme, W. Hujo, H. Kruse,             : VdW corrections, initial TS optimization,
                  C. Bannwarth                     DFT functionals, gCP, sTDA/sTD-DF
   Ed Valeev, F. Pavosevic, A. Kumar             : LibInt (2-el integral package), F12 methods
   Garnet Chan, S. Sharma, J. Yang, R. Olivares  : DMRG
   Ulf Ekstrom                                   : XCFun DFT Library
   Mihaly Kallay                                 : mrcc  (arbitrary order and MRCC methods)
   Andreas Klamt, Michael Diedenhofen            : otool_cosmo (COSMO solvation model)
   Jiri Pittner, Ondrej Demel                    : Mk-CCSD
   Frank Weinhold                                : gennbo (NPA and NBO analysis)
   Christopher J. Cramer and Donald G. Truhlar   : smd solvation model
   Lars Goerigk                                  : TD-DFT with DH, B97 family of functionals
   V. Asgeirsson, H. Jonsson                     : NEB implementation
   FAccTs GmbH                                   : IRC, NEB, NEB-TS, Multilevel, MM, QM/MM, CI optimization
   S Lehtola, MJT Oliveira, MAL Marques          : LibXC Library


 Your calculation uses the libint2 library for the computation of 2-el integrals
 For citations please refer to: http://libint.valeyev.net

 Your ORCA version has been built with support for libXC version: 4.2.3
 For citations please refer to: https://tddft.org/programs/libxc/

 This ORCA versions uses:
   CBLAS   interface :  Fast vector & matrix operations
   LAPACKE interface :  Fast linear algebra routines
   SCALAPACK package :  Parallel linear algebra routines




***************************************
The coordinates will be read from file: init.xyz
***************************************


Your calculation utilizes the SMD solvation module
Please cite in your paper:
A.V. Marenich, C.J. Cramer, D.G. Truhlar J. Phys. Chem. B, 113, (2009), 6378 

Your calculation utilizes the semiempirical GFN2-xTB method
Please cite in your paper:
C. Bannwarth, Ehlert S., S. Grimme,  J. Chem. Theory Comput., 15, (2019), 1652.
   

----- Orbital basis set information -----
Your calculation utilizes the basis: def2-SVP
   F. Weigend and R. Ahlrichs, Phys. Chem. Chem. Phys. 7, 3297 (2005).

================================================================================
                                        WARNINGS
                       Please study these warnings very carefully!
================================================================================

WARNING: Gradients needed for Numerical Frequencies
  ===> : Setting RunTyp to EnGrad

WARNING: The environment variable RSH_COMMAND is not set!
  ===> : All Displacements for the Numerical Hessian calculation
         will be started on localhost

WARNING: Found dipole moment calculation with XTB calculation
  ===> : Switching off dipole moment calculation


INFO   : the flag for use of LIBINT has been found!

================================================================================
                                       INPUT FILE
================================================================================
NAME = /tmp/slurm-scratch/freq.813/freq.inp
|  1> ! XTB2 NumFreq
|  2> %maxcore 1150
|  3> 
|  4> * xyzfile 0 1 init.xyz
|  5> 
|  6> %cpcm
|  7>  smd true
|  8>  smdsolvent "ch2cl2"
|  9> end
| 10> %pal nprocs 6 end
| 11> 
| 12>                          ****END OF INPUT****
================================================================================

                     *******************************
                     * Energy+Gradient Calculation *
                     *******************************

      -----------------------------------------------------------      
     |                   =====================                   |     
     |                           x T B                           |     
     |                   =====================                   |     
     |                         S. Grimme                         |     
     |          Mulliken Center for Theoretical Chemistry        |     
     |                    University of Bonn                     |     
      -----------------------------------------------------------      

   * xtb version 6.3.2 (30e43eb) compiled by 'schneider@apollo14' on 2020-08-08

   xtb is free software: you can redistribute it and/or modify it under
   the terms of the GNU Lesser General Public License as published by
   the Free Software Foundation, either version 3 of the License, or
   (at your option) any later version.
   
   xtb is distributed in the hope that it will be useful,
   but WITHOUT ANY WARRANTY; without even the implied warranty of
   MERCHANTABILITY or FITNESS FOR A PARTICULAR PURPOSE.  See the
   GNU Lesser General Public License for more details.
   
   Cite this work as:
   * S. Grimme, C. Bannwarth, P. Shushkov, J. Chem. Theory Comput., 2017,
     13, 1989-2009. DOI: 10.1021/acs.jctc.7b00118
   * C. Bannwarth, S. Ehlert and S. Grimme., J. Chem. Theory Comput., 2019,
     15, 1652-1671. DOI: 10.1021/acs.jctc.8b01176
   * P. Pracht, E. Caldeweyher, S. Ehlert, S. Grimme, ChemRxiv, 2019, preprint.
     DOI: 10.26434/chemrxiv.8326202.v1
   
   for GFN-FF:
   * S. Spicher and S. Grimme, Angew. Chem. Int. Ed., 2020,
     DOI: 10.1002/anie.202004239
   
   for DFT-D4:
   * E. Caldeweyher, C. Bannwarth and S. Grimme, J. Chem. Phys., 2017,
     147, 034112. DOI: 10.1063/1.4993215
   * E. Caldeweyher, S. Ehlert, A. Hansen, H. Neugebauer, S. Spicher,
     C. Bannwarth and S. Grimme, J. Chem. Phys., 2019, 150, 154122.
     DOI: 10.1063/1.5090222
   
   for sTDA-xTB:
   * S. Grimme and C. Bannwarth, J. Chem. Phys., 2016, 145, 054103.
     DOI: 10.1063/1.4959605
   
   in the mass-spec context:
   * V. Asgeirsson, C. Bauer and S. Grimme, Chem. Sci., 2017, 8, 4879.
     DOI: 10.1039/c7sc00601b
   * J. Koopman and S. Grimme, ACS Omega 2019, 4, 12, 15120-15133.
     DOI: 10.1021/acsomega.9b02011
   
   for metadynamics refer to:
   * S. Grimme, J. Chem. Theory Comput., 2019, 155, 2847-2862
     DOI: 10.1021/acs.jctc.9b00143
   
   with help from (in alphabetical order)
   C. Bannwarth, F. Bohle, G. Brandenburg, E. Caldeweyher, M. Checinski,
   S. Dohm, S. Ehlert, S. Ehrlich, F. März, H. Neugebauer, J. Pisarek,
   P. Pracht, P. Shushkov, and S. Spicher.
   
 * started run on 2021/04/08 at 02:30:05.424     

           -------------------------------------------------
          |                Calculation Setup                |
           -------------------------------------------------

          program call               : /opt/orca/otool_xtb /tmp/slurm-scratch/freq.813/freq_XTB.xyz --grad -c 0 -u 0 -P 6 --namespace /tmp/slurm-scratch/freq.813/freq --gbsa CH2Cl2
          hostname                   : apollo14
          calculation namespace      : /tmp/slurm-scratch/freq.813/freq
          coordinate file            : /tmp/slurm-scratch/freq.813/freq_XTB.xyz
          omp threads                :                     6
          number of atoms            :                    36
          number of electrons        :                    88
          charge                     :                     0
          spin                       :                   0.0
          first test random number   :      0.70540735411558

   ID    Z sym.   atoms
    1    6 C      1-7, 22, 25, 28, 31
    2    1 H      8-11, 13-20, 23, 24, 26, 27, 29, 30, 32-34
    3    8 O      12, 35, 36
    4    7 N      21

molecular fragmentation (1/2 indicates fragments):
111111111121222212112222222222222222
# atoms in fragment 1/2:    14    22
 fragment masses (1/2) :      106.12      109.17
CMA distance (Bohr)    :   9.707
constraining FC (au)   :  0.0500
########################################################################
[WARNING] Please study the warnings concerning your input carefully
-1- prog_main_parseArguments: Process number higher than OMP_NUM_THREADS, I hope you know what you are doing.
########################################################################

           -------------------------------------------------
          |                 G F N 2 - x T B                 |
           -------------------------------------------------

        Reference                      10.1021/acs.jctc.8b01176
      * Hamiltonian:
        H0-scaling (s, p, d)           1.850000    2.230000    2.230000
        zeta-weighting                 0.500000
      * Dispersion:
        s8                             2.700000
        a1                             0.520000
        a2                             5.000000
        s9                             5.000000
      * Repulsion:
        kExp                           1.500000    1.000000
        rExp                           1.000000
      * Coulomb:
        alpha                          2.000000
        third order                    shell-resolved
        anisotropic                    true
        a3                             3.000000
        a5                             4.000000
        cn-shift                       1.200000
        cn-exp                         4.000000
        max-rad                        5.000000

      * Solvation model:               GBSA
        Solvent                        CH2Cl2
        Parameter file                 internal GFN2-xTB/GBSA
        Dielectric constant                8.9300E+00
        Reference state                gsolv [1 M gas/solution]
        Free energy shift                  4.4408E-03 Eh       2.7867E+00 kcal/mol
        Temperature                        2.9815E+02 K
        Density                            1.3300E+00 kg/L
        Solvent mass                       8.4930E+01 g/mol
        Interaction kernel             Still
        Born radius scaling (c1)           1.4917E+00
        Born radii integrator          GBOBC
        Born offset                        0.0000E+00 a0       0.0000E+00 AA
        H-bond correction              false
        Ion screening                  false
        Surface tension                    1.0000E-05 Eh       1.5569E+01 dyn/cm
        Grid points                               230 per atom

          ...................................................
          :                      SETUP                      :
          :.................................................:
          :  # basis functions                  81          :
          :  # atomic orbitals                  81          :
          :  # shells                           51          :
          :  # electrons                        88          :
          :  max. iterations                   250          :
          :  Hamiltonian                  GFN2-xTB          :
          :  restarted?                      false          :
          :  GBSA solvation                   true          :
          :  PC potential                    false          :
          :  electronic temp.          300.0000000     K    :
          :  accuracy                    1.0000000          :
          :  -> integral cutoff          0.2500000E+02      :
          :  -> integral neglect         0.1000000E-07      :
          :  -> SCF convergence          0.1000000E-05 Eh   :
          :  -> wf. convergence          0.1000000E-03 e    :
          :  Broyden damping             0.4000000          :
          ...................................................

 iter      E             dE          RMSdq      gap      omega  full diag
   1    -49.8896576 -0.498897E+02  0.431E+00    2.35       0.0  T
   2    -49.9507851 -0.611276E-01  0.236E+00    2.25       1.0  T
   3    -49.9492983  0.148689E-02  0.105E+00    2.42       1.0  T
   4    -49.9568327 -0.753442E-02  0.211E-01    2.19       1.0  T
   5    -49.9574906 -0.657905E-03  0.764E-02    2.21       1.0  T
   6    -49.9575542 -0.636580E-04  0.387E-02    2.23       1.0  T
   7    -49.9575706 -0.163980E-04  0.145E-02    2.23       1.1  T
   8    -49.9575715 -0.839039E-06  0.420E-03    2.23       4.0  T
   9    -49.9575716 -0.143834E-06  0.173E-03    2.23       9.6  T
  10    -49.9575716 -0.194540E-07  0.884E-04    2.23      18.9  T
  11    -49.9575716 -0.566544E-08  0.374E-04    2.23      44.6  T

   *** convergence criteria satisfied after 11 iterations ***

         #    Occupation            Energy/Eh            Energy/eV
      -------------------------------------------------------------
         1        2.0000           -0.7188973             -19.5622
       ...           ...                  ...                  ...
        38        2.0000           -0.4340420             -11.8109
        39        2.0000           -0.4298543             -11.6969
        40        2.0000           -0.4218683             -11.4796
        41        2.0000           -0.4201220             -11.4321
        42        2.0000           -0.4174545             -11.3595
        43        2.0000           -0.4107445             -11.1769
        44        2.0000           -0.3841402             -10.4530 (HOMO)
        45                         -0.3022478              -8.2246 (LUMO)
        46                         -0.2397402              -6.5237
        47                         -0.2096853              -5.7058
        48                         -0.1046143              -2.8467
        49                         -0.0047463              -0.1292
       ...                                ...                  ...
        81                          0.6142154              16.7137
      -------------------------------------------------------------
                  HL-Gap            0.0818924 Eh            2.2284 eV
             Fermi-level           -0.3431940 Eh           -9.3388 eV

 SCC (total)                   0 d,  0 h,  0 min,  0.110 sec
 SCC setup                      ...        0 min,  0.005 sec (  4.300%)
 Dispersion                     ...        0 min,  0.001 sec (  1.285%)
 classical contributions        ...        0 min,  0.005 sec (  4.595%)
 integral evaluation            ...        0 min,  0.023 sec ( 21.111%)
 iterations                     ...        0 min,  0.034 sec ( 30.721%)
 molecular gradient             ...        0 min,  0.041 sec ( 37.755%)
 printout                       ...        0 min,  0.000 sec (  0.212%)

         :::::::::::::::::::::::::::::::::::::::::::::::::::::
         ::                     SUMMARY                     ::
         :::::::::::::::::::::::::::::::::::::::::::::::::::::
         :: total energy             -49.348569990862 Eh    ::
         :: total w/o Gsasa/hb       -49.328836514845 Eh    ::
         :: gradient norm              0.057161206266 Eh/a0 ::
         :: HOMO-LUMO gap              2.228405552480 eV    ::
         ::.................................................::
         :: SCC energy               -49.957571643364 Eh    ::
         :: -> isotropic ES            0.115666078699 Eh    ::
         :: -> anisotropic ES         -0.005178966851 Eh    ::
         :: -> anisotropic XC          0.025634362407 Eh    ::
         :: -> dispersion             -0.026092018285 Eh    ::
         :: -> Gsolv                  -0.029992990622 Eh    ::
         ::    -> Gborn               -0.010259514605 Eh    ::
         ::    -> Gsasa               -0.024174305190 Eh    ::
         ::    -> Ghb                  0.000000000000 Eh    ::
         ::    -> Gshift               0.004440829173 Eh    ::
         :: repulsion energy           0.608725872729 Eh    ::
         :: add. restraining           0.000000000000 Eh    ::
         :: total charge              -0.000000000000 e     ::
         :::::::::::::::::::::::::::::::::::::::::::::::::::::

           -------------------------------------------------
          |                Property Printout                |
           -------------------------------------------------

    * Orbital Energies and Occupations

         #    Occupation            Energy/Eh            Energy/eV
      -------------------------------------------------------------
         1        2.0000           -0.7188973             -19.5622
       ...           ...                  ...                  ...
        32        2.0000           -0.4662334             -12.6869
        33        2.0000           -0.4485228             -12.2049
        34        2.0000           -0.4475063             -12.1773
        35        2.0000           -0.4450495             -12.1104
        36        2.0000           -0.4353331             -11.8460
        37        2.0000           -0.4350852             -11.8393
        38        2.0000           -0.4340420             -11.8109
        39        2.0000           -0.4298543             -11.6969
        40        2.0000           -0.4218683             -11.4796
        41        2.0000           -0.4201220             -11.4321
        42        2.0000           -0.4174545             -11.3595
        43        2.0000           -0.4107445             -11.1769
        44        2.0000           -0.3841402             -10.4530 (HOMO)
        45                         -0.3022478              -8.2246 (LUMO)
        46                         -0.2397402              -6.5237
        47                         -0.2096853              -5.7058
        48                         -0.1046143              -2.8467
        49                         -0.0047463              -0.1292
        50                          0.0500404               1.3617
        51                          0.0727855               1.9806
        52                          0.0792882               2.1575
        53                          0.0963149               2.6209
        54                          0.1031968               2.8081
        55                          0.1084708               2.9516
       ...                                ...                  ...
        81                          0.6142154              16.7137
      -------------------------------------------------------------
                  HL-Gap            0.0818924 Eh            2.2284 eV
             Fermi-level           -0.3431940 Eh           -9.3388 eV

     #   Z          covCN         q      C6AA      α(0)
     1   6 C        2.962    -0.004    28.110     8.696
     2   6 C        2.914    -0.017    28.441     8.745
     3   6 C        2.907    -0.022    28.559     8.763
     4   6 C        2.910    -0.014    28.366     8.733
     5   6 C        2.907    -0.024    28.608     8.770
     6   6 C        2.911    -0.012    28.309     8.724
     7   6 C        2.765     0.208    23.595     7.955
     8   1 H        0.925     0.056     2.250     2.345
     9   1 H        0.925     0.057     2.235     2.338
    10   1 H        0.925     0.056     2.243     2.342
    11   1 H        0.797     0.306     0.705     1.320
    12   8 O        0.856    -0.411    21.898     6.274
    13   1 H        0.801     0.316     0.677     1.293
    14   1 H        0.804     0.284     0.771     1.379
    15   1 H        0.859     0.175     1.241     1.745
    16   1 H        0.859     0.144     1.442     1.881
    17   1 H        0.922     0.046     2.369     2.407
    18   1 H        0.804     0.269     0.822     1.424
    19   1 H        0.925     0.055     2.256     2.349
    20   1 H        0.925     0.053     2.280     2.361
    21   7 N        2.626    -0.371    29.583     8.078
    22   6 C        3.727     0.018    20.375     6.445
    23   1 H        0.923     0.035     2.512     2.479
    24   1 H        0.922     0.014     2.833     2.632
    25   6 C        3.797    -0.066    21.776     6.645
    26   1 H        0.923     0.038     2.471     2.458
    27   1 H        0.923     0.045     2.380     2.413
    28   6 C        3.795    -0.053    21.528     6.607
    29   1 H        0.923     0.032     2.560     2.502
    30   1 H        0.923     0.030     2.591     2.517
    31   6 C        3.745    -0.101    22.493     6.765
    32   1 H        0.923     0.036     2.506     2.476
    33   1 H        0.923     0.036     2.501     2.473
    34   1 H        0.923     0.034     2.525     2.485
    35   8 O        1.599    -0.628    25.872     6.865
    36   8 O        1.604    -0.621    25.704     6.842

 Mol. C6AA /au·bohr⁶  :      10931.989656
 Mol. C8AA /au·bohr⁸  :     240360.351048
 Mol. α(0) /au        :        160.526074


Wiberg/Mayer (AO) data.
largest (>0.10) Wiberg bond orders for each atom

 ---------------------------------------------------------------------------
     #   Z sym  total        # sym  WBO       # sym  WBO       # sym  WBO
 ---------------------------------------------------------------------------
     1   6 C    3.988 --     2 C    1.358     6 C    1.355     7 C    1.095
     2   6 C    3.987 --     3 C    1.461     1 C    1.358     8 H    0.966
                             5 C    0.103
     3   6 C    3.990 --     2 C    1.461     4 C    1.428    19 H    0.969
                             6 C    0.103
     4   6 C    3.988 --     3 C    1.428     5 C    1.421    10 H    0.970
     5   6 C    3.990 --     6 C    1.467     4 C    1.421    20 H    0.969
                             2 C    0.103
     6   6 C    3.988 --     5 C    1.467     1 C    1.355     9 H    0.967
                             3 C    0.103
     7   6 C    3.902 --    12 O    1.772     1 C    1.095    17 H    0.936
     8   1 H    0.997 --     2 C    0.966
     9   1 H    0.997 --     6 C    0.967
    10   1 H    0.996 --     4 C    0.970
    11   1 H    0.906 --    35 O    0.823
    12   8 O    2.053 --     7 C    1.772
    13   1 H    0.900 --    36 O    0.849
    14   1 H    0.919 --    36 O    0.918
    15   1 H    0.969 --    21 N    0.937
    16   1 H    0.979 --    21 N    0.967
    17   1 H    0.997 --     7 C    0.936
    18   1 H    0.927 --    35 O    0.926
    19   1 H    0.997 --     3 C    0.969
    20   1 H    0.997 --     5 C    0.969
    21   7 N    3.080 --    22 C    1.008    16 H    0.967    15 H    0.937
    22   6 C    3.981 --    21 N    1.008    25 C    1.007    23 H    0.977
                            24 H    0.973
    23   1 H    0.999 --    22 C    0.977
    24   1 H    1.000 --    22 C    0.973
    25   6 C    3.995 --    22 C    1.007    28 C    1.006    26 H    0.976
                            27 H    0.974
    26   1 H    0.999 --    25 C    0.976
    27   1 H    0.998 --    25 C    0.974
    28   6 C    3.996 --    31 C    1.019    25 C    1.006    29 H    0.978
                            30 H    0.978
    29   1 H    0.999 --    28 C    0.978
    30   1 H    0.999 --    28 C    0.978
    31   6 C    3.996 --    28 C    1.019    34 H    0.988    32 H    0.988
                            33 H    0.987
    32   1 H    0.999 --    31 C    0.988
    33   1 H    0.998 --    31 C    0.987
    34   1 H    0.999 --    31 C    0.988
    35   8 O    1.811 --    18 H    0.926    11 H    0.823
    36   8 O    1.827 --    14 H    0.918    13 H    0.849
 ---------------------------------------------------------------------------

Topologies differ in total number of bonds
Writing topology from bond orders to xtbtopo.mol

molecular dipole:
                 x           y           z       tot (Debye)
 q only:       -0.708       0.894      -0.403
   full:       -0.648       0.368      -0.284       2.027
molecular quadrupole (traceless):
                xx          xy          yy          xz          yz          zz
 q only:        2.284       4.790      -0.977       3.850      -8.400      -1.306
  q+dip:        1.764       1.144       5.063       7.103     -12.001      -6.827
   full:        0.244       1.633       3.451       5.802     -12.150      -3.696


           -------------------------------------------------
          | TOTAL ENERGY              -49.348569990862 Eh   |
          | GRADIENT NORM               0.057161206266 Eh/α |
          | HOMO-LUMO GAP               2.228405552480 eV   |
           -------------------------------------------------

------------------------------------------------------------------------
 * finished run on 2021/04/08 at 02:30:05.578     
------------------------------------------------------------------------
 total:
 * wall-time:     0 d,  0 h,  0 min,  0.155 sec
 *  cpu-time:     0 d,  0 h,  0 min,  1.588 sec
 * ratio c/w:    10.276 speedup
 SCF:
 * wall-time:     0 d,  0 h,  0 min,  0.113 sec
 *  cpu-time:     0 d,  0 h,  0 min,  1.239 sec
 * ratio c/w:    11.015 speedup


-------------------------   --------------------
FINAL SINGLE POINT ENERGY       -49.348569990860
-------------------------   --------------------


----------------------------------------------------------------------------
                           ORCA NUMERICAL FREQUENCIES
                              (6-process run)
----------------------------------------------------------------------------

Number of atoms                ... 36
Central differences            ... used
Number of displacements        ... 216
Numerical increment            ... 5.000e-03 bohr
IR-spectrum generation         ... on
Raman-spectrum generation      ... off
Surface Crossing Hessian       ... off
List of participating nodes    ...  /tmp/slurm-scratch/freq.813/freq.hostnames

The output will be reduced. Please look at the following files:
SCF program output             ... >/tmp/slurm-scratch/freq.813/freq.lastscf
Integral program output        ... >/tmp/slurm-scratch/freq.813/freq.lastint
Gradient program output        ... >/tmp/slurm-scratch/freq.813/freq.lastgrad
Dipole moment program output   ... >/tmp/slurm-scratch/freq.813/freq.lastmom
AutoCI program output          ... >/tmp/slurm-scratch/freq.813/freq.lastautoci


         <<< Energy and Gradient at the input geometry >>>

        <<< Energy and Gradient at displaced geometries >>>
             <<<Displacing   2/coordinate 2 (+)>>>
             <<<Displacing   2/coordinate 3 (+)>>>
             <<<Displacing   2/coordinate 1 (+)>>>
             <<<Displacing   1/coordinate 3 (+)>>>
             <<<Displacing   1/coordinate 2 (+)>>>
             <<<Displacing   1/coordinate 1 (+)>>>
             <<<Displacing   2/coordinate 1 (-)>>>
             <<<Displacing   1/coordinate 1 (-)>>>
             <<<Displacing   2/coordinate 3 (-)>>>
             <<<Displacing   1/coordinate 3 (-)>>>
             <<<Displacing   1/coordinate 2 (-)>>>
             <<<Displacing   2/coordinate 2 (-)>>>
             <<<Displacing   3/coordinate 1 (+)>>>
             <<<Displacing   4/coordinate 1 (+)>>>
             <<<Displacing   4/coordinate 2 (+)>>>
             <<<Displacing   3/coordinate 1 (-)>>>
             <<<Displacing   4/coordinate 3 (+)>>>
             <<<Displacing   3/coordinate 3 (+)>>>
             <<<Displacing   3/coordinate 2 (+)>>>
             <<<Displacing   4/coordinate 1 (-)>>>
             <<<Displacing   4/coordinate 2 (-)>>>
             <<<Displacing   4/coordinate 3 (-)>>>
             <<<Displacing   3/coordinate 2 (-)>>>
             <<<Displacing   3/coordinate 3 (-)>>>
             <<<Displacing   5/coordinate 2 (+)>>>
             <<<Displacing   5/coordinate 1 (+)>>>
             <<<Displacing   6/coordinate 1 (+)>>>
             <<<Displacing   6/coordinate 3 (+)>>>
             <<<Displacing   5/coordinate 2 (-)>>>
             <<<Displacing   5/coordinate 3 (+)>>>
             <<<Displacing   6/coordinate 2 (+)>>>
             <<<Displacing   6/coordinate 3 (-)>>>
             <<<Displacing   5/coordinate 1 (-)>>>
             <<<Displacing   5/coordinate 3 (-)>>>
             <<<Displacing   6/coordinate 1 (-)>>>
             <<<Displacing   6/coordinate 2 (-)>>>
             <<<Displacing   7/coordinate 1 (+)>>>
             <<<Displacing   7/coordinate 3 (+)>>>
             <<<Displacing   7/coordinate 3 (-)>>>
             <<<Displacing   7/coordinate 2 (+)>>>
             <<<Displacing   8/coordinate 1 (+)>>>
             <<<Displacing   7/coordinate 1 (-)>>>
             <<<Displacing   7/coordinate 2 (-)>>>
             <<<Displacing   8/coordinate 1 (-)>>>
             <<<Displacing   8/coordinate 2 (+)>>>
             <<<Displacing   8/coordinate 3 (+)>>>
             <<<Displacing   8/coordinate 2 (-)>>>
             <<<Displacing   8/coordinate 3 (-)>>>
             <<<Displacing   9/coordinate 1 (+)>>>
             <<<Displacing   9/coordinate 1 (-)>>>
             <<<Displacing   9/coordinate 2 (+)>>>
             <<<Displacing  10/coordinate 1 (+)>>>
             <<<Displacing   9/coordinate 2 (-)>>>
             <<<Displacing   9/coordinate 3 (+)>>>
             <<<Displacing  10/coordinate 1 (-)>>>
             <<<Displacing   9/coordinate 3 (-)>>>
             <<<Displacing  10/coordinate 2 (+)>>>
             <<<Displacing  10/coordinate 2 (-)>>>
             <<<Displacing  10/coordinate 3 (+)>>>
             <<<Displacing  10/coordinate 3 (-)>>>
             <<<Displacing  11/coordinate 2 (+)>>>
             <<<Displacing  11/coordinate 3 (+)>>>
             <<<Displacing  11/coordinate 2 (-)>>>
             <<<Displacing  11/coordinate 3 (-)>>>
             <<<Displacing  11/coordinate 1 (+)>>>
             <<<Displacing  11/coordinate 1 (-)>>>
             <<<Displacing  12/coordinate 1 (+)>>>
             <<<Displacing  12/coordinate 2 (+)>>>
             <<<Displacing  12/coordinate 2 (-)>>>
             <<<Displacing  12/coordinate 1 (-)>>>
             <<<Displacing  12/coordinate 3 (+)>>>
             <<<Displacing  12/coordinate 3 (-)>>>
             <<<Displacing  13/coordinate 1 (+)>>>
             <<<Displacing  13/coordinate 1 (-)>>>
             <<<Displacing  13/coordinate 2 (+)>>>
             <<<Displacing  13/coordinate 3 (+)>>>
             <<<Displacing  13/coordinate 2 (-)>>>
             <<<Displacing  13/coordinate 3 (-)>>>
             <<<Displacing  14/coordinate 2 (+)>>>
             <<<Displacing  14/coordinate 1 (+)>>>
             <<<Displacing  14/coordinate 2 (-)>>>
             <<<Displacing  14/coordinate 1 (-)>>>
             <<<Displacing  14/coordinate 3 (+)>>>
             <<<Displacing  14/coordinate 3 (-)>>>
             <<<Displacing  15/coordinate 2 (+)>>>
             <<<Displacing  15/coordinate 1 (+)>>>
             <<<Displacing  15/coordinate 2 (-)>>>
             <<<Displacing  15/coordinate 1 (-)>>>
             <<<Displacing  16/coordinate 2 (+)>>>
             <<<Displacing  16/coordinate 1 (+)>>>
             <<<Displacing  16/coordinate 2 (-)>>>
             <<<Displacing  15/coordinate 3 (+)>>>
             <<<Displacing  16/coordinate 1 (-)>>>
             <<<Displacing  15/coordinate 3 (-)>>>
             <<<Displacing  16/coordinate 3 (+)>>>
             <<<Displacing  16/coordinate 3 (-)>>>
             <<<Displacing  17/coordinate 1 (+)>>>
             <<<Displacing  17/coordinate 1 (-)>>>
             <<<Displacing  17/coordinate 3 (+)>>>
             <<<Displacing  17/coordinate 2 (+)>>>
             <<<Displacing  18/coordinate 3 (+)>>>
             <<<Displacing  17/coordinate 3 (-)>>>
             <<<Displacing  17/coordinate 2 (-)>>>
             <<<Displacing  18/coordinate 3 (-)>>>
             <<<Displacing  18/coordinate 1 (+)>>>
             <<<Displacing  18/coordinate 1 (-)>>>
             <<<Displacing  18/coordinate 2 (+)>>>
             <<<Displacing  18/coordinate 2 (-)>>>
             <<<Displacing  19/coordinate 1 (+)>>>
             <<<Displacing  20/coordinate 2 (+)>>>
             <<<Displacing  19/coordinate 1 (-)>>>
             <<<Displacing  20/coordinate 3 (+)>>>
             <<<Displacing  20/coordinate 2 (-)>>>
             <<<Displacing  20/coordinate 3 (-)>>>
             <<<Displacing  19/coordinate 2 (+)>>>
             <<<Displacing  19/coordinate 2 (-)>>>
             <<<Displacing  19/coordinate 3 (+)>>>
             <<<Displacing  20/coordinate 1 (+)>>>
             <<<Displacing  19/coordinate 3 (-)>>>
             <<<Displacing  20/coordinate 1 (-)>>>
             <<<Displacing  21/coordinate 1 (+)>>>
             <<<Displacing  21/coordinate 2 (+)>>>
             <<<Displacing  21/coordinate 1 (-)>>>
             <<<Displacing  21/coordinate 2 (-)>>>
             <<<Displacing  21/coordinate 3 (+)>>>
             <<<Displacing  21/coordinate 3 (-)>>>
             <<<Displacing  22/coordinate 3 (+)>>>
             <<<Displacing  22/coordinate 3 (-)>>>
             <<<Displacing  22/coordinate 1 (+)>>>
             <<<Displacing  22/coordinate 2 (+)>>>
             <<<Displacing  22/coordinate 1 (-)>>>
             <<<Displacing  22/coordinate 2 (-)>>>
             <<<Displacing  23/coordinate 1 (+)>>>
             <<<Displacing  23/coordinate 1 (-)>>>
             <<<Displacing  23/coordinate 2 (+)>>>
             <<<Displacing  23/coordinate 2 (-)>>>
             <<<Displacing  23/coordinate 3 (+)>>>
             <<<Displacing  23/coordinate 3 (-)>>>
             <<<Displacing  24/coordinate 1 (+)>>>
             <<<Displacing  24/coordinate 1 (-)>>>
             <<<Displacing  24/coordinate 2 (+)>>>
             <<<Displacing  24/coordinate 2 (-)>>>
             <<<Displacing  24/coordinate 3 (+)>>>
             <<<Displacing  24/coordinate 3 (-)>>>
             <<<Displacing  25/coordinate 1 (+)>>>
             <<<Displacing  25/coordinate 1 (-)>>>
             <<<Displacing  25/coordinate 2 (+)>>>
             <<<Displacing  25/coordinate 2 (-)>>>
             <<<Displacing  25/coordinate 3 (+)>>>
             <<<Displacing  25/coordinate 3 (-)>>>
             <<<Displacing  26/coordinate 1 (+)>>>
             <<<Displacing  26/coordinate 1 (-)>>>
             <<<Displacing  26/coordinate 2 (+)>>>
             <<<Displacing  26/coordinate 3 (+)>>>
             <<<Displacing  26/coordinate 2 (-)>>>
             <<<Displacing  26/coordinate 3 (-)>>>
             <<<Displacing  27/coordinate 1 (+)>>>
             <<<Displacing  27/coordinate 1 (-)>>>
             <<<Displacing  27/coordinate 2 (+)>>>
             <<<Displacing  27/coordinate 2 (-)>>>
             <<<Displacing  28/coordinate 1 (+)>>>
             <<<Displacing  27/coordinate 3 (+)>>>
             <<<Displacing  28/coordinate 1 (-)>>>
             <<<Displacing  27/coordinate 3 (-)>>>
             <<<Displacing  28/coordinate 2 (+)>>>
             <<<Displacing  28/coordinate 3 (+)>>>
             <<<Displacing  28/coordinate 2 (-)>>>
             <<<Displacing  28/coordinate 3 (-)>>>
             <<<Displacing  29/coordinate 1 (+)>>>
             <<<Displacing  29/coordinate 1 (-)>>>
             <<<Displacing  29/coordinate 2 (+)>>>
             <<<Displacing  29/coordinate 2 (-)>>>
             <<<Displacing  29/coordinate 3 (+)>>>
             <<<Displacing  29/coordinate 3 (-)>>>
             <<<Displacing  30/coordinate 1 (+)>>>
             <<<Displacing  30/coordinate 1 (-)>>>
             <<<Displacing  30/coordinate 2 (+)>>>
             <<<Displacing  30/coordinate 2 (-)>>>
             <<<Displacing  30/coordinate 3 (+)>>>
             <<<Displacing  30/coordinate 3 (-)>>>
             <<<Displacing  31/coordinate 1 (+)>>>
             <<<Displacing  31/coordinate 1 (-)>>>
             <<<Displacing  31/coordinate 2 (+)>>>
             <<<Displacing  31/coordinate 2 (-)>>>
             <<<Displacing  31/coordinate 3 (+)>>>
             <<<Displacing  31/coordinate 3 (-)>>>
             <<<Displacing  32/coordinate 1 (+)>>>
             <<<Displacing  32/coordinate 1 (-)>>>
             <<<Displacing  32/coordinate 2 (+)>>>
             <<<Displacing  32/coordinate 3 (+)>>>
             <<<Displacing  32/coordinate 2 (-)>>>
             <<<Displacing  32/coordinate 3 (-)>>>
             <<<Displacing  33/coordinate 1 (+)>>>
             <<<Displacing  33/coordinate 1 (-)>>>
             <<<Displacing  33/coordinate 2 (+)>>>
             <<<Displacing  33/coordinate 2 (-)>>>
             <<<Displacing  33/coordinate 3 (+)>>>
             <<<Displacing  33/coordinate 3 (-)>>>
             <<<Displacing  34/coordinate 1 (+)>>>
             <<<Displacing  34/coordinate 1 (-)>>>
             <<<Displacing  34/coordinate 2 (+)>>>
             <<<Displacing  34/coordinate 3 (+)>>>
             <<<Displacing  34/coordinate 2 (-)>>>
             <<<Displacing  34/coordinate 3 (-)>>>
             <<<Displacing  35/coordinate 1 (+)>>>
             <<<Displacing  35/coordinate 1 (-)>>>
             <<<Displacing  35/coordinate 2 (+)>>>
             <<<Displacing  35/coordinate 2 (-)>>>
             <<<Displacing  35/coordinate 3 (+)>>>
             <<<Displacing  35/coordinate 3 (-)>>>
             <<<Displacing  36/coordinate 1 (+)>>>
             <<<Displacing  36/coordinate 1 (-)>>>
             <<<Displacing  36/coordinate 2 (+)>>>
             <<<Displacing  36/coordinate 2 (-)>>>
             <<<Displacing  36/coordinate 3 (+)>>>
             <<<Displacing  36/coordinate 3 (-)>>>

-----------------------
VIBRATIONAL FREQUENCIES
-----------------------

Scaling factor for frequencies =  1.000000000 (already applied!)

   0:         0.00 cm**-1
   1:         0.00 cm**-1
   2:         0.00 cm**-1
   3:         0.00 cm**-1
   4:         0.00 cm**-1
   5:         0.00 cm**-1
   6:        23.33 cm**-1
   7:        44.33 cm**-1
   8:        56.78 cm**-1
   9:        62.73 cm**-1
  10:        73.03 cm**-1
  11:        81.39 cm**-1
  12:        92.79 cm**-1
  13:       110.72 cm**-1
  14:       123.79 cm**-1
  15:       150.40 cm**-1
  16:       155.67 cm**-1
  17:       183.73 cm**-1
  18:       184.33 cm**-1
  19:       193.52 cm**-1
  20:       228.59 cm**-1
  21:       259.48 cm**-1
  22:       272.71 cm**-1
  23:       304.45 cm**-1
  24:       356.09 cm**-1
  25:       390.52 cm**-1
  26:       400.46 cm**-1
  27:       427.11 cm**-1
  28:       439.47 cm**-1
  29:       444.94 cm**-1
  30:       459.28 cm**-1
  31:       466.88 cm**-1
  32:       493.54 cm**-1
  33:       581.32 cm**-1
  34:       587.69 cm**-1
  35:       614.57 cm**-1
  36:       635.32 cm**-1
  37:       670.44 cm**-1
  38:       751.44 cm**-1
  39:       779.43 cm**-1
  40:       807.54 cm**-1
  41:       820.62 cm**-1
  42:       832.53 cm**-1
  43:       855.84 cm**-1
  44:       900.38 cm**-1
  45:       926.04 cm**-1
  46:       936.00 cm**-1
  47:       945.53 cm**-1
  48:       955.50 cm**-1
  49:       959.86 cm**-1
  50:       960.59 cm**-1
  51:       973.34 cm**-1
  52:       986.10 cm**-1
  53:      1027.11 cm**-1
  54:      1050.91 cm**-1
  55:      1063.19 cm**-1
  56:      1069.33 cm**-1
  57:      1106.78 cm**-1
  58:      1109.20 cm**-1
  59:      1155.05 cm**-1
  60:      1173.79 cm**-1
  61:      1186.18 cm**-1
  62:      1201.90 cm**-1
  63:      1210.06 cm**-1
  64:      1247.58 cm**-1
  65:      1256.34 cm**-1
  66:      1272.97 cm**-1
  67:      1282.97 cm**-1
  68:      1285.91 cm**-1
  69:      1300.89 cm**-1
  70:      1356.63 cm**-1
  71:      1358.43 cm**-1
  72:      1380.47 cm**-1
  73:      1411.62 cm**-1
  74:      1431.77 cm**-1
  75:      1433.54 cm**-1
  76:      1494.54 cm**-1
  77:      1510.30 cm**-1
  78:      1513.08 cm**-1
  79:      1514.62 cm**-1
  80:      1517.85 cm**-1
  81:      1521.30 cm**-1
  82:      1531.28 cm**-1
  83:      1552.72 cm**-1
  84:      1572.94 cm**-1
  85:      1575.50 cm**-1
  86:      1583.34 cm**-1
  87:      2660.50 cm**-1
  88:      2796.19 cm**-1
  89:      2816.84 cm**-1
  90:      2870.41 cm**-1
  91:      2882.99 cm**-1
  92:      2895.38 cm**-1
  93:      2901.92 cm**-1
  94:      2906.65 cm**-1
  95:      2911.46 cm**-1
  96:      2917.30 cm**-1
  97:      2929.53 cm**-1
  98:      2990.02 cm**-1
  99:      2992.79 cm**-1
 100:      2998.17 cm**-1
 101:      3004.30 cm**-1
 102:      3009.03 cm**-1
 103:      3053.40 cm**-1
 104:      3205.21 cm**-1
 105:      3302.32 cm**-1
 106:      3431.19 cm**-1
 107:      3440.07 cm**-1


------------
NORMAL MODES
------------

These modes are the cartesian displacements weighted by the diagonal matrix
M(i,i)=1/sqrt(m[i]) where m[i] is the mass of the displaced atom
Thus, these vectors are normalized but *not* orthogonal

                  0          1          2          3          4          5    
      0       0.000000   0.000000   0.000000   0.000000   0.000000   0.000000
      1       0.000000   0.000000   0.000000   0.000000   0.000000   0.000000
      2       0.000000   0.000000   0.000000   0.000000   0.000000   0.000000
      3       0.000000   0.000000   0.000000   0.000000   0.000000   0.000000
      4       0.000000   0.000000   0.000000   0.000000   0.000000   0.000000
      5       0.000000   0.000000   0.000000   0.000000   0.000000   0.000000
      6       0.000000   0.000000   0.000000   0.000000   0.000000   0.000000
      7       0.000000   0.000000   0.000000   0.000000   0.000000   0.000000
      8       0.000000   0.000000   0.000000   0.000000   0.000000   0.000000
      9       0.000000   0.000000   0.000000   0.000000   0.000000   0.000000
     10       0.000000   0.000000   0.000000   0.000000   0.000000   0.000000
     11       0.000000   0.000000   0.000000   0.000000   0.000000   0.000000
     12       0.000000   0.000000   0.000000   0.000000   0.000000   0.000000
     13       0.000000   0.000000   0.000000   0.000000   0.000000   0.000000
     14       0.000000   0.000000   0.000000   0.000000   0.000000   0.000000
     15       0.000000   0.000000   0.000000   0.000000   0.000000   0.000000
     16       0.000000   0.000000   0.000000   0.000000   0.000000   0.000000
     17       0.000000   0.000000   0.000000   0.000000   0.000000   0.000000
     18       0.000000   0.000000   0.000000   0.000000   0.000000   0.000000
     19       0.000000   0.000000   0.000000   0.000000   0.000000   0.000000
     20       0.000000   0.000000   0.000000   0.000000   0.000000   0.000000
     21       0.000000   0.000000   0.000000   0.000000   0.000000   0.000000
     22       0.000000   0.000000   0.000000   0.000000   0.000000   0.000000
     23       0.000000   0.000000   0.000000   0.000000   0.000000   0.000000
     24       0.000000   0.000000   0.000000   0.000000   0.000000   0.000000
     25       0.000000   0.000000   0.000000   0.000000   0.000000   0.000000
     26       0.000000   0.000000   0.000000   0.000000   0.000000   0.000000
     27       0.000000   0.000000   0.000000   0.000000   0.000000   0.000000
     28       0.000000   0.000000   0.000000   0.000000   0.000000   0.000000
     29       0.000000   0.000000   0.000000   0.000000   0.000000   0.000000
     30       0.000000   0.000000   0.000000   0.000000   0.000000   0.000000
     31       0.000000   0.000000   0.000000   0.000000   0.000000   0.000000
     32       0.000000   0.000000   0.000000   0.000000   0.000000   0.000000
     33       0.000000   0.000000   0.000000   0.000000   0.000000   0.000000
     34       0.000000   0.000000   0.000000   0.000000   0.000000   0.000000
     35       0.000000   0.000000   0.000000   0.000000   0.000000   0.000000
     36       0.000000   0.000000   0.000000   0.000000   0.000000   0.000000
     37       0.000000   0.000000   0.000000   0.000000   0.000000   0.000000
     38       0.000000   0.000000   0.000000   0.000000   0.000000   0.000000
     39       0.000000   0.000000   0.000000   0.000000   0.000000   0.000000
     40       0.000000   0.000000   0.000000   0.000000   0.000000   0.000000
     41       0.000000   0.000000   0.000000   0.000000   0.000000   0.000000
     42       0.000000   0.000000   0.000000   0.000000   0.000000   0.000000
     43       0.000000   0.000000   0.000000   0.000000   0.000000   0.000000
     44       0.000000   0.000000   0.000000   0.000000   0.000000   0.000000
     45       0.000000   0.000000   0.000000   0.000000   0.000000   0.000000
     46       0.000000   0.000000   0.000000   0.000000   0.000000   0.000000
     47       0.000000   0.000000   0.000000   0.000000   0.000000   0.000000
     48       0.000000   0.000000   0.000000   0.000000   0.000000   0.000000
     49       0.000000   0.000000   0.000000   0.000000   0.000000   0.000000
     50       0.000000   0.000000   0.000000   0.000000   0.000000   0.000000
     51       0.000000   0.000000   0.000000   0.000000   0.000000   0.000000
     52       0.000000   0.000000   0.000000   0.000000   0.000000   0.000000
     53       0.000000   0.000000   0.000000   0.000000   0.000000   0.000000
     54       0.000000   0.000000   0.000000   0.000000   0.000000   0.000000
     55       0.000000   0.000000   0.000000   0.000000   0.000000   0.000000
     56       0.000000   0.000000   0.000000   0.000000   0.000000   0.000000
     57       0.000000   0.000000   0.000000   0.000000   0.000000   0.000000
     58       0.000000   0.000000   0.000000   0.000000   0.000000   0.000000
     59       0.000000   0.000000   0.000000   0.000000   0.000000   0.000000
     60       0.000000   0.000000   0.000000   0.000000   0.000000   0.000000
     61       0.000000   0.000000   0.000000   0.000000   0.000000   0.000000
     62       0.000000   0.000000   0.000000   0.000000   0.000000   0.000000
     63       0.000000   0.000000   0.000000   0.000000   0.000000   0.000000
     64       0.000000   0.000000   0.000000   0.000000   0.000000   0.000000
     65       0.000000   0.000000   0.000000   0.000000   0.000000   0.000000
     66       0.000000   0.000000   0.000000   0.000000   0.000000   0.000000
     67       0.000000   0.000000   0.000000   0.000000   0.000000   0.000000
     68       0.000000   0.000000   0.000000   0.000000   0.000000   0.000000
     69       0.000000   0.000000   0.000000   0.000000   0.000000   0.000000
     70       0.000000   0.000000   0.000000   0.000000   0.000000   0.000000
     71       0.000000   0.000000   0.000000   0.000000   0.000000   0.000000
     72       0.000000   0.000000   0.000000   0.000000   0.000000   0.000000
     73       0.000000   0.000000   0.000000   0.000000   0.000000   0.000000
     74       0.000000   0.000000   0.000000   0.000000   0.000000   0.000000
     75       0.000000   0.000000   0.000000   0.000000   0.000000   0.000000
     76       0.000000   0.000000   0.000000   0.000000   0.000000   0.000000
     77       0.000000   0.000000   0.000000   0.000000   0.000000   0.000000
     78       0.000000   0.000000   0.000000   0.000000   0.000000   0.000000
     79       0.000000   0.000000   0.000000   0.000000   0.000000   0.000000
     80       0.000000   0.000000   0.000000   0.000000   0.000000   0.000000
     81       0.000000   0.000000   0.000000   0.000000   0.000000   0.000000
     82       0.000000   0.000000   0.000000   0.000000   0.000000   0.000000
     83       0.000000   0.000000   0.000000   0.000000   0.000000   0.000000
     84       0.000000   0.000000   0.000000   0.000000   0.000000   0.000000
     85       0.000000   0.000000   0.000000   0.000000   0.000000   0.000000
     86       0.000000   0.000000   0.000000   0.000000   0.000000   0.000000
     87       0.000000   0.000000   0.000000   0.000000   0.000000   0.000000
     88       0.000000   0.000000   0.000000   0.000000   0.000000   0.000000
     89       0.000000   0.000000   0.000000   0.000000   0.000000   0.000000
     90       0.000000   0.000000   0.000000   0.000000   0.000000   0.000000
     91       0.000000   0.000000   0.000000   0.000000   0.000000   0.000000
     92       0.000000   0.000000   0.000000   0.000000   0.000000   0.000000
     93       0.000000   0.000000   0.000000   0.000000   0.000000   0.000000
     94       0.000000   0.000000   0.000000   0.000000   0.000000   0.000000
     95       0.000000   0.000000   0.000000   0.000000   0.000000   0.000000
     96       0.000000   0.000000   0.000000   0.000000   0.000000   0.000000
     97       0.000000   0.000000   0.000000   0.000000   0.000000   0.000000
     98       0.000000   0.000000   0.000000   0.000000   0.000000   0.000000
     99       0.000000   0.000000   0.000000   0.000000   0.000000   0.000000
    100       0.000000   0.000000   0.000000   0.000000   0.000000   0.000000
    101       0.000000   0.000000   0.000000   0.000000   0.000000   0.000000
    102       0.000000   0.000000   0.000000   0.000000   0.000000   0.000000
    103       0.000000   0.000000   0.000000   0.000000   0.000000   0.000000
    104       0.000000   0.000000   0.000000   0.000000   0.000000   0.000000
    105       0.000000   0.000000   0.000000   0.000000   0.000000   0.000000
    106       0.000000   0.000000   0.000000   0.000000   0.000000   0.000000
    107       0.000000   0.000000   0.000000   0.000000   0.000000   0.000000
                  6          7          8          9         10         11    
      0       0.097895   0.087611   0.016292  -0.017211  -0.025670   0.026197
      1       0.001985  -0.042749  -0.030555  -0.064662  -0.021436   0.002622
      2       0.098707  -0.002295  -0.017352   0.005449   0.048388  -0.105713
      3       0.102698   0.101331   0.058564  -0.010648   0.009110  -0.000292
      4      -0.000988  -0.046567  -0.044631  -0.066822  -0.033048   0.012244
      5       0.074140   0.028697   0.003965   0.034553   0.032016  -0.001663
      6       0.104547   0.110156   0.091608  -0.013917   0.047828  -0.031961
      7      -0.002122  -0.031539  -0.013706  -0.055571  -0.018762   0.021762
      8       0.065041   0.056739   0.013654   0.084578  -0.031980   0.124965
      9       0.102553   0.105184   0.084342  -0.021863   0.052932  -0.040186
     10      -0.001877  -0.012071   0.031794  -0.042130   0.007038   0.023244
     11       0.074565   0.060189   0.003157   0.107264  -0.079884   0.160550
     12       0.099289   0.090392   0.043433  -0.029262   0.021256  -0.018981
     13      -0.000253  -0.007125   0.046288  -0.039561   0.018235   0.015654
     14       0.094289   0.036855  -0.018070   0.086092  -0.072741   0.077789
     15       0.097191   0.081849   0.009686  -0.026940  -0.017139   0.014140
     16       0.001675  -0.022566   0.015991  -0.050947   0.003870   0.005748
     17       0.109131   0.004378  -0.028684   0.037574  -0.011709  -0.056164
     18       0.094690   0.074685  -0.028928  -0.017358  -0.069046   0.056293
     19      -0.000781  -0.058455  -0.070326  -0.078766  -0.036913  -0.005073
     20       0.107539  -0.034168  -0.021011  -0.051576   0.121213  -0.234519
     21       0.104133   0.104470   0.063251  -0.004519   0.005176   0.006198
     22      -0.001735  -0.061245  -0.078567  -0.077945  -0.052589   0.011392
     23       0.066648   0.025711   0.011700   0.017432   0.067404  -0.028827
     24       0.093790   0.072357  -0.020430  -0.031099  -0.041015   0.031147
     25       0.002748  -0.019365   0.026014  -0.049642   0.011909  -0.000000
     26       0.124903  -0.013965  -0.043464   0.020956  -0.003645  -0.121848
     27       0.103796   0.111830   0.109379  -0.022706   0.080148  -0.062052
     28      -0.002923  -0.000795   0.055008  -0.033501   0.018218   0.029967
     29       0.066921   0.080374   0.010909   0.140036  -0.120925   0.248861
     30      -0.175108  -0.071773   0.064793  -0.033652  -0.241035  -0.153484
     31      -0.096784   0.154604  -0.034525   0.240228  -0.090286  -0.075732
     32      -0.269929   0.208525   0.026722  -0.124204   0.127119   0.064810
     33       0.077646   0.072117  -0.078305  -0.028531  -0.090770   0.086211
     34       0.001313  -0.056716  -0.058419  -0.076618  -0.031923  -0.009907
     35       0.131969  -0.075536  -0.031405  -0.070218   0.116612  -0.334626
     36       0.022188   0.095385  -0.220278  -0.034176  -0.013545  -0.018348
     37      -0.047973  -0.038807  -0.203146  -0.075446   0.021632  -0.021350
     38       0.068062  -0.105837   0.063043  -0.088229  -0.061783   0.088756
     39       0.000744   0.123823  -0.291204  -0.021844   0.047377  -0.081371
     40      -0.060122  -0.027600  -0.220016  -0.066497   0.033114  -0.008349
     41       0.064246  -0.107077   0.110940  -0.071633  -0.115085   0.244721
     42      -0.060509  -0.138646   0.061316  -0.093710   0.009078   0.021947
     43       0.015719   0.021527  -0.015833   0.109166   0.103794   0.071285
     44      -0.039414  -0.017192  -0.095426  -0.100350  -0.113248   0.122678
     45      -0.125290  -0.100458   0.093787  -0.187916   0.001662   0.042754
     46       0.089576   0.007052  -0.044360   0.125790   0.062654   0.129281
     47      -0.048233  -0.016669  -0.095193  -0.109411  -0.114161   0.118107
     48       0.108325   0.068838  -0.019247  -0.008920  -0.075292   0.048758
     49      -0.011581  -0.068646  -0.113060  -0.092379  -0.055085   0.001267
     50       0.045362   0.014562  -0.000773  -0.070642   0.184037  -0.198344
     51      -0.185107  -0.063694   0.061924  -0.026474  -0.262538  -0.163690
     52      -0.152213   0.225968  -0.036717   0.305153  -0.220514  -0.193076
     53      -0.320603   0.252893   0.062989  -0.124330   0.207549   0.034570
     54       0.107385   0.120003   0.121861  -0.010207   0.072011  -0.049015
     55      -0.002996  -0.035043  -0.024175  -0.056892  -0.027124   0.027647
     56       0.050638   0.075185   0.028738   0.103149  -0.041636   0.190671
     57       0.098155   0.086151   0.038369  -0.035620   0.025715  -0.026681
     58      -0.000888   0.008801   0.080200  -0.028800   0.037869   0.017284
     59       0.099484   0.041954  -0.025612   0.105122  -0.110392   0.111153
     60      -0.103772  -0.124403   0.073737  -0.109501   0.000467   0.025221
     61       0.053058   0.016002  -0.026769   0.117130   0.088112   0.100945
     62      -0.068824  -0.014038  -0.086259  -0.106721  -0.099419   0.098032
     63      -0.113790  -0.122769   0.059613  -0.068623   0.009564   0.023555
     64       0.073071   0.013203  -0.000669   0.045522   0.076338   0.104943
     65      -0.052720  -0.044384  -0.082332  -0.024213  -0.063787   0.058296
     66      -0.140833  -0.103358   0.069366  -0.089009  -0.014471   0.018179
     67       0.089881   0.016811  -0.054654   0.040669   0.080199   0.159705
     68      -0.064240  -0.047732  -0.043258  -0.020087  -0.065706   0.018690
     69      -0.107093  -0.122355   0.076411  -0.111891  -0.003366   0.023601
     70       0.084853   0.012225   0.012883  -0.001422   0.064033   0.109512
     71      -0.021244  -0.060396  -0.146752   0.026643  -0.027010   0.107458
     72      -0.095203  -0.150790   0.013383   0.063441   0.085689   0.036717
     73       0.051343   0.006178   0.089757   0.044740   0.068414   0.023230
     74      -0.065291  -0.052699  -0.027953  -0.007272  -0.059708   0.004265
     75      -0.091737  -0.166533   0.051817   0.088024   0.086479   0.007854
     76       0.036847  -0.000426   0.143512   0.055409   0.072209  -0.027215
     77      -0.054831  -0.046752  -0.071061  -0.017087  -0.062686   0.043973
     78      -0.088911  -0.151452  -0.023702   0.103373   0.117558   0.056300
     79       0.057415   0.006776   0.048990   0.088122   0.104267   0.043808
     80      -0.082938  -0.036874   0.014630  -0.058873  -0.087062  -0.030400
     81      -0.088938  -0.152717  -0.026578   0.106846   0.123725   0.062495
     82       0.040684   0.006871   0.162899  -0.023693   0.009130  -0.022418
     83      -0.069463  -0.085654   0.028225   0.089550  -0.013600  -0.055617
     84      -0.085241  -0.137610  -0.071841   0.088049   0.122883   0.098014
     85       0.048084   0.014260   0.125465  -0.042627   0.005720   0.013353
     86      -0.075165  -0.092220   0.058945   0.104778  -0.011006  -0.084469
     87      -0.094551  -0.151341   0.007722   0.069469   0.090425   0.040119
     88       0.034859   0.007709   0.201285  -0.064489  -0.027464  -0.047132
     89      -0.061817  -0.094377   0.008004   0.123238   0.014151  -0.037579
     90      -0.079873  -0.174751  -0.048637   0.216497   0.206548   0.073631
     91       0.028243  -0.003509   0.228822  -0.008155   0.003343  -0.081065
     92      -0.076980  -0.095376   0.069682   0.113628  -0.007765  -0.094079
     93      -0.072773  -0.173413  -0.064704   0.243155   0.230256   0.084908
     94       0.035034  -0.001571   0.214490   0.017836   0.026052  -0.071555
     95      -0.084167  -0.086974   0.103239   0.078698  -0.042274  -0.122584
     96      -0.075382  -0.173766  -0.060134   0.233606   0.221871   0.081569
     97       0.020350  -0.005130   0.248934  -0.038699  -0.023906  -0.094910
     98      -0.079915  -0.114393   0.093169   0.174796   0.030833  -0.116662
     99      -0.083866  -0.189901  -0.034886   0.245734   0.224580   0.063034
    100       0.021396  -0.009708   0.268622   0.006118   0.003431  -0.116471
    101      -0.072031  -0.090561   0.041385   0.102690  -0.008398  -0.069002
    102      -0.196269  -0.045303   0.058544  -0.004078  -0.306516  -0.200491
    103      -0.135644   0.199246  -0.031800   0.271271  -0.153313  -0.136593
    104      -0.359080   0.299489   0.069227  -0.127765   0.221601   0.065033
    105       0.015565   0.105004  -0.250434  -0.030039   0.019861  -0.063549
    106      -0.065547  -0.020713  -0.236224  -0.064608   0.041549  -0.015017
    107       0.061245  -0.101174   0.088182  -0.079053  -0.124103   0.238434
                 12         13         14         15         16         17    
      0      -0.048679  -0.017115   0.008256  -0.021698  -0.117118  -0.026427
      1      -0.098133  -0.017827  -0.019197  -0.001104  -0.008535   0.010359
      2      -0.023348   0.030814  -0.013502  -0.009916  -0.021248   0.126317
      3       0.077326  -0.052415   0.019254  -0.009538  -0.055528  -0.019113
      4      -0.140451  -0.005504  -0.022818  -0.004563  -0.025823   0.007376
      5      -0.019154   0.251009  -0.040571  -0.000564  -0.005992   0.093787
      6       0.166740  -0.035376   0.018748   0.005143   0.014965   0.010954
      7      -0.055336   0.003640  -0.020749   0.009058   0.037443  -0.004516
      8       0.018488   0.233360  -0.029556   0.003602   0.005105  -0.036199
      9       0.132375   0.019999   0.008816   0.003216  -0.000256   0.029314
     10       0.072243  -0.001239  -0.015780   0.028203   0.128587  -0.012653
     11       0.053389  -0.012833   0.009936  -0.004423  -0.005937  -0.111670
     12       0.008696   0.056283  -0.000969  -0.009931  -0.069846   0.005526
     13       0.115924  -0.014002  -0.012556   0.032971   0.153577  -0.004247
     14       0.051521  -0.234941   0.035116  -0.016313  -0.023337  -0.008335
     15      -0.082072   0.037931  -0.000892  -0.023741  -0.135406  -0.022845
     16       0.030779  -0.022617  -0.015227   0.019233   0.089046   0.007050
     17       0.014736  -0.212064   0.023099  -0.018946  -0.032426   0.114521
     18      -0.136664  -0.034641   0.003733  -0.022100  -0.095183  -0.007106
     19      -0.180413  -0.025381  -0.017096  -0.004898  -0.013185   0.002817
     20      -0.062353   0.055969  -0.011513  -0.002753  -0.016073   0.035229
     21       0.101403  -0.092464   0.026248  -0.008835  -0.045643  -0.028389
     22      -0.237365  -0.005371  -0.027863  -0.015440  -0.080360   0.010737
     23      -0.043600   0.424034  -0.066737   0.005215   0.001007   0.131201
     24      -0.174896   0.064447  -0.006545  -0.038805  -0.211608  -0.033776
     25       0.061708  -0.031815  -0.013199   0.024106   0.113946   0.010835
     26       0.012864  -0.369058   0.042371  -0.027779  -0.050986   0.167314
     27       0.198313   0.033438   0.008082   0.012778   0.045968   0.056899
     28       0.135168   0.005170  -0.013594   0.037076   0.169126  -0.023323
     29       0.080068  -0.030244   0.019867  -0.001348   0.000840  -0.230781
     30       0.055911   0.049344  -0.009495  -0.173848   0.057870   0.111385
     31      -0.042247   0.038230   0.004648   0.131005  -0.046740  -0.070707
     32      -0.043261  -0.023062  -0.010592  -0.006941  -0.023982   0.007370
     33      -0.220704  -0.040159  -0.001924  -0.007123   0.007215   0.026216
     34      -0.163019  -0.024993  -0.017389  -0.007510  -0.033706  -0.003971
     35      -0.071025   0.029637   0.000032   0.013385   0.018190  -0.137333
     36      -0.003964  -0.022447   0.016057   0.073681   0.336394  -0.009824
     37       0.150161   0.034851   0.200198  -0.079848  -0.257677   0.006288
     38      -0.056723   0.059235   0.180718  -0.007245   0.108077  -0.050154
     39       0.154019   0.000123   0.074973   0.075891   0.365004  -0.037513
     40       0.213361   0.047224   0.246400  -0.083169  -0.232814   0.004581
     41      -0.067632   0.076687   0.302382  -0.033808   0.164106  -0.016980
     42       0.065419  -0.007629  -0.125948  -0.037065   0.047120   0.034301
     43       0.023130   0.014631  -0.014930   0.018862  -0.065758  -0.004505
     44       0.106703   0.005916  -0.185576   0.155597  -0.048249   0.028556
     45       0.076852   0.006421  -0.077403   0.013669  -0.033725  -0.055879
     46       0.019192   0.030173  -0.074714   0.120769  -0.011267   0.071516
     47       0.112765   0.006556  -0.176226   0.142310  -0.056151   0.026839
     48      -0.107523  -0.043445   0.004801  -0.022693  -0.110795  -0.016739
     49      -0.257494  -0.031895  -0.020477   0.005269   0.058311   0.002014
     50      -0.079439   0.106906  -0.013623  -0.008562  -0.031686   0.080178
     51       0.056481   0.049854  -0.014938  -0.165610   0.055712   0.101801
     52      -0.066304   0.056031   0.022304   0.099237  -0.029391  -0.065546
     53      -0.091225  -0.022486   0.037810  -0.051258   0.005803   0.035846
     54       0.258419  -0.061995   0.024581   0.018380   0.082922   0.021780
     55      -0.087115   0.012876  -0.022839   0.004487   0.014028  -0.008234
     56       0.021175   0.393016  -0.048650   0.012742   0.022422  -0.086892
     57      -0.016112   0.095683  -0.008007  -0.011105  -0.080461   0.012310
     58       0.212659  -0.016319  -0.007325   0.045398   0.213097  -0.007240
     59       0.076460  -0.410362   0.062417  -0.022564  -0.030488  -0.036193
     60       0.057452   0.003677  -0.073666   0.034683  -0.025136  -0.040932
     61       0.018472   0.020967  -0.045609   0.067608  -0.036947   0.029277
     62       0.110865   0.000659  -0.157632   0.109729  -0.071233   0.002690
     63       0.033020   0.008489  -0.021458   0.120884  -0.065668  -0.101997
     64       0.060877   0.011006  -0.145263  -0.083535   0.034352   0.137521
     65       0.090002  -0.020326  -0.171249   0.020711  -0.036305   0.043117
     66       0.019239   0.021717   0.062163   0.222405  -0.128956  -0.291112
     67       0.078901   0.023803  -0.188948  -0.030373   0.045331   0.319831
     68       0.077046  -0.029949  -0.140671  -0.021088  -0.042285  -0.083528
     69       0.057048   0.003991  -0.072319   0.050115  -0.034374  -0.058287
     70       0.090621   0.005858  -0.214373  -0.168364   0.076785   0.220485
     71       0.095695  -0.018178  -0.234442   0.030199   0.003361   0.318114
     72      -0.014975   0.002045   0.013660   0.135922  -0.043324   0.038120
     73       0.035289  -0.009337  -0.082961  -0.175650   0.032114  -0.107564
     74       0.066663  -0.034926  -0.124758  -0.038839  -0.035648  -0.103906
     75      -0.031093  -0.009588   0.071542   0.206709  -0.019705   0.167999
     76       0.012790  -0.021134  -0.036002  -0.235366   0.032399  -0.259876
     77       0.084462  -0.025147  -0.162829   0.000839  -0.037146   0.000373
     78      -0.027221   0.006285  -0.000316   0.087412  -0.037537   0.029148
     79       0.020965  -0.004578  -0.098978  -0.237265   0.036388  -0.136227
     80       0.070966  -0.037357  -0.122390  -0.112664  -0.058942  -0.332046
     81      -0.026206   0.005299  -0.005141   0.063600  -0.031128   0.017101
     82       0.050261  -0.016781  -0.042969  -0.054254   0.015519  -0.066784
     83       0.007920  -0.057147   0.002647  -0.048435   0.015032  -0.042016
     84      -0.009422   0.017870  -0.055465   0.071201  -0.067762  -0.007206
     85       0.074611  -0.010349  -0.134507  -0.156699   0.033429  -0.143373
     86      -0.011198  -0.062737   0.074025   0.026854   0.004654   0.016818
     87      -0.016833   0.002633   0.011787   0.136859  -0.046313   0.039096
     88       0.060848  -0.020184  -0.026883   0.018912   0.002863  -0.045377
     89       0.004775  -0.060538  -0.040872  -0.204327   0.076478  -0.101203
     90      -0.068763  -0.004598   0.019647  -0.140690   0.061916  -0.007299
     91       0.016981  -0.026753   0.101911   0.132022  -0.016421   0.068024
     92      -0.019491  -0.064980   0.103565   0.051007   0.005565   0.046081
     93      -0.075657  -0.005544   0.015321  -0.200174   0.081121  -0.014295
     94       0.009389  -0.027817   0.103421   0.085611  -0.001457   0.069357
     95      -0.017072  -0.065233   0.163183   0.233403  -0.055506   0.131690
     96      -0.072857  -0.004964   0.016326  -0.177182   0.072804  -0.010970
     97       0.024501  -0.026052   0.107405   0.196467  -0.035761   0.074206
     98      -0.056982  -0.074964   0.181754   0.018980   0.047783   0.088594
     99      -0.086418  -0.010206   0.044278  -0.191560   0.098552  -0.014428
    100      -0.005778  -0.032984   0.196435   0.246606  -0.034612   0.159397
    101      -0.002988  -0.060397   0.036750  -0.027307   0.017073  -0.017403
    102       0.051716   0.055885  -0.012864  -0.167862   0.056728   0.099089
    103      -0.059927   0.046159   0.019112   0.103938  -0.031564  -0.062847
    104      -0.109407  -0.038130   0.036770  -0.049138   0.009811   0.020514
    105       0.061528  -0.014253   0.031135   0.072385   0.334013  -0.026347
    106       0.244847   0.051622   0.258821  -0.080374  -0.222693   0.001476
    107      -0.067732   0.071209   0.270336  -0.017993   0.146902  -0.008242
                 18         19         20         21         22         23    
      0       0.050907   0.000003   0.004477  -0.016219   0.157110  -0.002554
      1      -0.005549  -0.005440   0.003155  -0.015455   0.138660  -0.002375
      2      -0.167479  -0.013675   0.002040  -0.008925   0.030203  -0.003024
      3       0.034406   0.000573   0.000624  -0.006367   0.062211  -0.021124
      4       0.000183  -0.005584   0.004295  -0.018943   0.172363   0.004861
      5      -0.128906  -0.014988   0.003985  -0.009149   0.009575   0.081957
      6      -0.015828  -0.000542  -0.003984   0.006927  -0.074109  -0.013890
      7       0.009077  -0.004255   0.000432  -0.006171   0.062684   0.005897
      8       0.048838  -0.007129   0.003221   0.000190  -0.019037   0.066763
      9      -0.040121  -0.002538  -0.002108   0.001687  -0.049085   0.028967
     10       0.009664  -0.002628  -0.005299   0.011277  -0.083051  -0.007039
     11       0.157711   0.000518  -0.000414   0.010320  -0.016703  -0.115168
     12      -0.000156  -0.001428   0.002236  -0.008656   0.068866   0.001982
     13      -0.004392  -0.003021  -0.006759   0.014671  -0.121064   0.002081
     14       0.022805  -0.006348  -0.000496  -0.001996   0.024000  -0.013327
     15       0.046797  -0.000102   0.005946  -0.019162   0.189919  -0.031662
     16      -0.011628  -0.004508  -0.002464   0.000045   0.006491   0.009267
     17      -0.144357  -0.014598   0.001988  -0.015694   0.054415   0.112695
     18       0.019477   0.000035   0.003272   0.002745  -0.046508   0.063291
     19       0.000163  -0.001865   0.000802   0.004823  -0.046903  -0.013916
     20      -0.051956   0.001334  -0.005323   0.010299  -0.023120  -0.264452
     21       0.046621   0.001822   0.000008  -0.003989   0.043720  -0.030699
     22       0.002609  -0.006876   0.007489  -0.030072   0.276482   0.005032
     23      -0.183693  -0.018867   0.005038  -0.010377  -0.000556   0.123113
     24       0.071078  -0.000575   0.011066  -0.033639   0.327257  -0.049230
     25      -0.019820  -0.004374  -0.004181   0.004855  -0.039555   0.015303
     26      -0.211401  -0.017418   0.002100  -0.024085   0.094199   0.170420
     27      -0.083328  -0.004325  -0.004349   0.006776  -0.120751   0.066960
     28       0.019447  -0.001502  -0.007832   0.019535  -0.150137  -0.019060
     29       0.319830   0.009749  -0.002804   0.024557  -0.042777  -0.269534
     30       0.079320   0.033220   0.032963   0.205963   0.037258  -0.000207
     31      -0.067635  -0.017721  -0.010405  -0.061456  -0.017970  -0.005373
     32       0.012065   0.006306   0.070621   0.022687  -0.001513   0.000669
     33      -0.048433   0.003755  -0.004666   0.044124  -0.394499  -0.012913
     34       0.014786  -0.002900   0.002586  -0.004816   0.029305   0.003240
     35       0.192667   0.009463  -0.001258   0.004205  -0.089870   0.124417
     36      -0.035518   0.005097   0.005694   0.002736   0.072781  -0.011829
     37       0.014699  -0.012397  -0.003728  -0.012583  -0.209466   0.008668
     38       0.052537   0.004358  -0.027695  -0.048975   0.015827   0.030157
     39      -0.018286   0.010287   0.002323   0.001989   0.278429  -0.004269
     40       0.002246  -0.011484  -0.017714  -0.016548  -0.119069   0.006452
     41      -0.029829   0.000979  -0.090664  -0.055566   0.066334   0.008390
     42       0.043176  -0.024650  -0.183368  -0.307462  -0.040367  -0.009042
     43      -0.013579   0.019049  -0.039793   0.215939   0.018724   0.014000
     44       0.021391   0.014018   0.309852   0.011888   0.000518  -0.012080
     45      -0.046568  -0.004417   0.120215  -0.341928  -0.087746  -0.016094
     46       0.049009   0.015077   0.162800   0.313011   0.072873   0.005061
     47       0.019553   0.015553   0.309240   0.007816  -0.005381  -0.011229
     48       0.042169  -0.003789   0.007466  -0.011270   0.039639   0.187431
     49      -0.015736   0.004088  -0.004997   0.036764  -0.325042  -0.039758
     50      -0.139383   0.010695  -0.020278   0.029297  -0.012575  -0.824454
     51       0.075474   0.030540   0.035215   0.168641   0.032260   0.005670
     52      -0.071989  -0.028821  -0.044504  -0.207926  -0.041716  -0.035273
     53       0.017505   0.000404  -0.009286   0.045839  -0.032751  -0.073725
     54      -0.038186  -0.000188  -0.008684   0.020271  -0.193072  -0.023246
     55       0.016795  -0.004367   0.002077  -0.010829   0.104481   0.009047
     56       0.113452  -0.005414   0.004070   0.004011  -0.048627   0.116247
     57      -0.008847  -0.002104   0.003445  -0.011585   0.089857   0.009088
     58      -0.007553  -0.002315  -0.010707   0.026746  -0.235710   0.002418
     59       0.064997  -0.004007  -0.002364   0.000018   0.034424  -0.045391
     60      -0.032988  -0.015440  -0.014653  -0.174001  -0.036571  -0.004983
     61       0.014276   0.016565   0.050430   0.244600   0.040655   0.008272
     62      -0.000061   0.015631   0.224648  -0.016668  -0.020046  -0.007882
     63      -0.094145  -0.018042   0.027307   0.010445  -0.001910   0.001248
     64       0.121909   0.021043  -0.029489  -0.084949  -0.021411  -0.005379
     65       0.044301  -0.000038  -0.118053  -0.025592  -0.008315   0.000696
     66      -0.273761   0.028669   0.279403   0.239511   0.038496   0.009818
     67       0.284304  -0.041567  -0.026192  -0.178975  -0.047116  -0.016649
     68      -0.068121   0.043467  -0.128194   0.033580   0.008375   0.008474
     69      -0.048822  -0.016585  -0.008005  -0.170588  -0.036890  -0.005170
     70       0.203747   0.012867  -0.091955  -0.314549  -0.066015  -0.014737
     71       0.294322  -0.092339  -0.303993  -0.165645  -0.037908  -0.010856
     72       0.030539  -0.068986  -0.120812   0.078458   0.014531   0.000123
     73      -0.094814   0.107452  -0.011108  -0.004615   0.005373   0.006168
     74      -0.085562   0.050783  -0.132317   0.042334   0.012935   0.009344
     75       0.165292  -0.313656  -0.110663   0.084109   0.010292  -0.005826
     76      -0.233343   0.188872   0.019397   0.047397   0.023271   0.010056
     77       0.007945   0.008579  -0.152652   0.002898  -0.000267   0.006882
     78       0.011657   0.049724  -0.136993   0.070562   0.017182  -0.002613
     79      -0.134062   0.261639  -0.028365  -0.009137   0.009889   0.003017
     80      -0.298868   0.230054  -0.078406   0.074781   0.025616   0.014846
     81       0.001913   0.076163  -0.113334   0.049123   0.014345   0.003830
     82      -0.040619  -0.147494  -0.005444   0.039900   0.003784  -0.000710
     83      -0.016642  -0.085821  -0.016989   0.039191   0.008682   0.005049
     84      -0.049165   0.371136  -0.210406   0.027220   0.020962   0.013696
     85      -0.085842  -0.317462  -0.034934   0.086916   0.011057  -0.003922
     86       0.020969   0.017497   0.013315   0.004899   0.002446   0.006529
     87       0.028404  -0.043563  -0.138307   0.087939   0.017997   0.000498
     88      -0.010131  -0.314138  -0.028199   0.088412   0.007893  -0.005443
     89      -0.030764  -0.376157   0.079259   0.051516   0.002914  -0.003512
     90       0.003520  -0.015733   0.151390  -0.072257  -0.017776  -0.003223
     91       0.046775   0.065816   0.047606  -0.028686  -0.009696   0.001586
     92       0.042801   0.046103   0.052495  -0.022091  -0.004183   0.005877
     93      -0.002468   0.031851   0.207506  -0.127105  -0.027945  -0.001006
     94       0.044786   0.141075   0.098389  -0.088880  -0.020271   0.004968
     95       0.086042   0.269512  -0.052110  -0.022656   0.002718   0.014922
     96      -0.000911   0.027619   0.183019  -0.109713  -0.024204  -0.000997
     97       0.054323  -0.010479  -0.008600   0.037269   0.001703  -0.002313
     98       0.085385   0.022410   0.251295  -0.114034  -0.030810  -0.001875
     99       0.015228  -0.172095   0.273942  -0.082374  -0.028898  -0.013379
    100       0.105795   0.221768   0.096748  -0.088858  -0.021162   0.003390
    101       0.001261  -0.057545   0.014115   0.020317   0.004230   0.004901
    102       0.067730   0.025690   0.026934   0.109654   0.021512  -0.008620
    103      -0.060548  -0.021872  -0.032424  -0.122120  -0.025327  -0.011307
    104       0.038253   0.000969  -0.012156   0.026719   0.007311   0.024754
    105      -0.016697   0.006790   0.001558  -0.003615   0.137200  -0.001896
    106       0.001466  -0.010112  -0.012666  -0.012060  -0.071757   0.003966
    107      -0.031605   0.003655  -0.037711  -0.023753   0.045919  -0.009923
                 24         25         26         27         28         29    
      0      -0.000665  -0.000409  -0.006038   0.001716   0.107113  -0.035213
      1      -0.000174  -0.000443   0.001381  -0.001387  -0.024984   0.010528
      2      -0.000108  -0.001023   0.026897  -0.006626  -0.002787  -0.019873
      3      -0.000137  -0.000087   0.051411  -0.001408  -0.056653   0.021248
      4      -0.000273  -0.000542  -0.018433  -0.000560   0.059259  -0.020985
      5       0.000128  -0.001033  -0.217070   0.001598  -0.009008   0.010088
      6      -0.001415  -0.001230  -0.044310  -0.000666  -0.112378   0.041078
      7      -0.001110  -0.000507   0.015139   0.000582   0.050598  -0.018089
      8       0.000567   0.001782   0.182497   0.003525  -0.016427   0.015452
      9      -0.001320  -0.000695  -0.008269   0.001307  -0.114270   0.048123
     10      -0.001882  -0.000427   0.003328   0.000885   0.110594  -0.045403
     11       0.000338  -0.001006   0.030874  -0.005020  -0.059323   0.008255
     12      -0.000833  -0.000930   0.051706  -0.000037   0.011584  -0.005730
     13      -0.002077  -0.000335  -0.017340   0.001370   0.075818  -0.029663
     14      -0.001816  -0.000747  -0.216348   0.002125   0.010871   0.005821
     15      -0.000180  -0.001357  -0.043733  -0.000363   0.074826  -0.026100
     16      -0.001407  -0.000009   0.015665   0.000420   0.105995  -0.040423
     17      -0.001649   0.002163   0.184841   0.001033   0.013890  -0.005135
     18      -0.000178   0.000370  -0.008718   0.002370   0.054158  -0.018929
     19       0.000732  -0.000491   0.001379  -0.001125  -0.169427   0.064829
     20       0.000383  -0.001774   0.038858  -0.003555   0.021995  -0.021567
     21       0.000557   0.000516   0.117962  -0.002700  -0.079699   0.026507
     22      -0.000451  -0.001515  -0.038984  -0.000359   0.190193  -0.071194
     23      -0.000444  -0.001578  -0.488856   0.005893  -0.005810   0.024244
     24       0.000893  -0.002037  -0.101573  -0.002376   0.013330  -0.000013
     25      -0.001776   0.000196   0.035413   0.001099   0.123165  -0.047537
     26      -0.002351   0.004640   0.418113   0.004524   0.017069   0.004005
[...]
     75      -0.000097   0.000878  -0.000220   0.000503   0.000283  -0.000350
     76       0.000091   0.002310   0.001435  -0.002413  -0.000826   0.000032
     77       0.000103   0.001006   0.003388  -0.005147  -0.001519  -0.000182
     78       0.000042  -0.001678  -0.000389  -0.002636  -0.000784  -0.001107
     79      -0.000072   0.001181  -0.000062   0.003244   0.000710   0.001469
     80      -0.000139  -0.000696  -0.000561  -0.000435  -0.000140  -0.000762
     81      -0.000003   0.000087  -0.000116   0.000065   0.000020   0.000017
     82       0.000002  -0.000080  -0.000022  -0.000009   0.000017  -0.000011
     83       0.000001   0.000052  -0.000164   0.000106  -0.000002  -0.000039
     84      -0.000039  -0.000173   0.000459  -0.000196  -0.000263   0.000095
     85      -0.000026  -0.000547   0.001621  -0.000551  -0.000309   0.000310
     86      -0.000047  -0.000772   0.001725  -0.000513  -0.000255   0.000422
     87       0.000078  -0.001092   0.001164  -0.000228  -0.000086  -0.000499
     88      -0.000121   0.000955  -0.000940   0.000137  -0.000073   0.000090
     89       0.000009  -0.000128   0.000143   0.000019  -0.000005  -0.000006
     90       0.000088   0.000128  -0.000026   0.000002   0.000025   0.000036
     91      -0.000114  -0.000112  -0.000047   0.000005   0.000026  -0.000020
     92       0.000002   0.000033   0.000009   0.000009   0.000023  -0.000014
     93      -0.001727  -0.001433  -0.000443  -0.000134  -0.000142  -0.000263
     94       0.001159   0.001229   0.000320   0.000256   0.000143   0.000289
     95      -0.000166  -0.000295  -0.000019  -0.000064  -0.000015  -0.000103
     96       0.000489  -0.000133   0.001131  -0.000440  -0.000228  -0.000161
     97       0.000107  -0.000044   0.000733  -0.000333  -0.000175  -0.000081
     98       0.000021  -0.000057  -0.000072   0.000102   0.000014   0.000057
     99       0.000001  -0.000011  -0.000041   0.000079   0.000034  -0.000041
    100       0.000014   0.000153   0.000034  -0.000175  -0.000184   0.000009
    101       0.000116  -0.000114   0.000179  -0.000465  -0.000327   0.000053
    102       0.000063   0.000203  -0.001296  -0.000021  -0.001061  -0.051165
    103      -0.000041  -0.000000   0.001123   0.000238  -0.000709  -0.032961
    104       0.000040   0.000179  -0.000191  -0.000149  -0.000007   0.000527
    105      -0.001357   0.048017   0.002805   0.000075  -0.019280   0.000492
    106       0.001009  -0.036274  -0.003460   0.000731  -0.056780   0.001160
    107      -0.000461   0.016466   0.001282  -0.000166   0.005061  -0.000086


-----------
IR SPECTRUM  
-----------

 Mode    freq (cm**-1)   T**2         TX         TY         TZ
-------------------------------------------------------------------
   6:        23.33    0.000000  (  0.000000   0.000000   0.000000)
   7:        44.33    0.000000  (  0.000000   0.000000   0.000000)
   8:        56.78    0.000000  (  0.000000   0.000000   0.000000)
   9:        62.73    0.000000  (  0.000000   0.000000   0.000000)
  10:        73.03    0.000000  (  0.000000   0.000000   0.000000)
  11:        81.39    0.000000  (  0.000000   0.000000   0.000000)
  12:        92.79    0.000000  (  0.000000   0.000000   0.000000)
  13:       110.72    0.000000  (  0.000000   0.000000   0.000000)
  14:       123.79    0.000000  (  0.000000   0.000000   0.000000)
  15:       150.40    0.000000  (  0.000000   0.000000   0.000000)
  16:       155.67    0.000000  (  0.000000   0.000000   0.000000)
  17:       183.73    0.000000  (  0.000000   0.000000   0.000000)
  18:       184.33    0.000000  (  0.000000   0.000000   0.000000)
  19:       193.52    0.000000  (  0.000000   0.000000   0.000000)
  20:       228.59    0.000000  (  0.000000   0.000000   0.000000)
  21:       259.48    0.000000  (  0.000000   0.000000   0.000000)
  22:       272.71    0.000000  (  0.000000   0.000000   0.000000)
  23:       304.45    0.000000  (  0.000000   0.000000   0.000000)
  24:       356.09    0.000000  (  0.000000   0.000000   0.000000)
  25:       390.52    0.000000  (  0.000000   0.000000   0.000000)
  26:       400.46    0.000000  (  0.000000   0.000000   0.000000)
  27:       427.11    0.000000  (  0.000000   0.000000   0.000000)
  28:       439.47    0.000000  (  0.000000   0.000000   0.000000)
  29:       444.94    0.000000  (  0.000000   0.000000   0.000000)
  30:       459.28    0.000000  (  0.000000   0.000000   0.000000)
  31:       466.88    0.000000  (  0.000000   0.000000   0.000000)
  32:       493.54    0.000000  (  0.000000   0.000000   0.000000)
  33:       581.32    0.000000  (  0.000000   0.000000   0.000000)
  34:       587.69    0.000000  (  0.000000   0.000000   0.000000)
  35:       614.57    0.000000  (  0.000000   0.000000   0.000000)
  36:       635.32    0.000000  (  0.000000   0.000000   0.000000)
  37:       670.44    0.000000  (  0.000000   0.000000   0.000000)
  38:       751.44    0.000000  (  0.000000   0.000000   0.000000)
  39:       779.43    0.000000  (  0.000000   0.000000   0.000000)
  40:       807.54    0.000000  (  0.000000   0.000000   0.000000)
  41:       820.62    0.000000  (  0.000000   0.000000   0.000000)
  42:       832.53    0.000000  (  0.000000   0.000000   0.000000)
  43:       855.84    0.000000  (  0.000000   0.000000   0.000000)
  44:       900.38    0.000000  (  0.000000   0.000000   0.000000)
  45:       926.04    0.000000  (  0.000000   0.000000   0.000000)
  46:       936.00    0.000000  (  0.000000   0.000000   0.000000)
  47:       945.53    0.000000  (  0.000000   0.000000   0.000000)
  48:       955.50    0.000000  (  0.000000   0.000000   0.000000)
  49:       959.86    0.000000  (  0.000000   0.000000   0.000000)
  50:       960.59    0.000000  (  0.000000   0.000000   0.000000)
  51:       973.34    0.000000  (  0.000000   0.000000   0.000000)
  52:       986.10    0.000000  (  0.000000   0.000000   0.000000)
  53:      1027.11    0.000000  (  0.000000   0.000000   0.000000)
  54:      1050.91    0.000000  (  0.000000   0.000000   0.000000)
  55:      1063.19    0.000000  (  0.000000   0.000000   0.000000)
  56:      1069.33    0.000000  (  0.000000   0.000000   0.000000)
  57:      1106.78    0.000000  (  0.000000   0.000000   0.000000)
  58:      1109.20    0.000000  (  0.000000   0.000000   0.000000)
  59:      1155.05    0.000000  (  0.000000   0.000000   0.000000)
  60:      1173.79    0.000000  (  0.000000   0.000000   0.000000)
  61:      1186.18    0.000000  (  0.000000   0.000000   0.000000)
  62:      1201.90    0.000000  (  0.000000   0.000000   0.000000)
  63:      1210.06    0.000000  (  0.000000   0.000000   0.000000)
  64:      1247.58    0.000000  (  0.000000   0.000000   0.000000)
  65:      1256.34    0.000000  (  0.000000   0.000000   0.000000)
  66:      1272.97    0.000000  (  0.000000   0.000000   0.000000)
  67:      1282.97    0.000000  (  0.000000   0.000000   0.000000)
  68:      1285.91    0.000000  (  0.000000   0.000000   0.000000)
  69:      1300.89    0.000000  (  0.000000   0.000000   0.000000)
  70:      1356.63    0.000000  (  0.000000   0.000000   0.000000)
  71:      1358.43    0.000000  (  0.000000   0.000000   0.000000)
  72:      1380.47    0.000000  (  0.000000   0.000000   0.000000)
  73:      1411.62    0.000000  (  0.000000   0.000000   0.000000)
  74:      1431.77    0.000000  (  0.000000   0.000000   0.000000)
  75:      1433.54    0.000000  (  0.000000   0.000000   0.000000)
  76:      1494.54    0.000000  (  0.000000   0.000000   0.000000)
  77:      1510.30    0.000000  (  0.000000   0.000000   0.000000)
  78:      1513.08    0.000000  (  0.000000   0.000000   0.000000)
  79:      1514.62    0.000000  (  0.000000   0.000000   0.000000)
  80:      1517.85    0.000000  (  0.000000   0.000000   0.000000)
  81:      1521.30    0.000000  (  0.000000   0.000000   0.000000)
  82:      1531.28    0.000000  (  0.000000   0.000000   0.000000)
  83:      1552.72    0.000000  (  0.000000   0.000000   0.000000)
  84:      1572.94    0.000000  (  0.000000   0.000000   0.000000)
  85:      1575.50    0.000000  (  0.000000   0.000000   0.000000)
  86:      1583.34    0.000000  (  0.000000   0.000000   0.000000)
  87:      2660.50    0.000000  (  0.000000   0.000000   0.000000)
  88:      2796.19    0.000000  (  0.000000   0.000000   0.000000)
  89:      2816.84    0.000000  (  0.000000   0.000000   0.000000)
  90:      2870.41    0.000000  (  0.000000   0.000000   0.000000)
  91:      2882.99    0.000000  (  0.000000   0.000000   0.000000)
  92:      2895.38    0.000000  (  0.000000   0.000000   0.000000)
  93:      2901.92    0.000000  (  0.000000   0.000000   0.000000)
  94:      2906.65    0.000000  (  0.000000   0.000000   0.000000)
  95:      2911.46    0.000000  (  0.000000   0.000000   0.000000)
  96:      2917.30    0.000000  (  0.000000   0.000000   0.000000)
  97:      2929.53    0.000000  (  0.000000   0.000000   0.000000)
  98:      2990.02    0.000000  (  0.000000   0.000000   0.000000)
  99:      2992.79    0.000000  (  0.000000   0.000000   0.000000)
 100:      2998.17    0.000000  (  0.000000   0.000000   0.000000)
 101:      3004.30    0.000000  (  0.000000   0.000000   0.000000)
 102:      3009.03    0.000000  (  0.000000   0.000000   0.000000)
 103:      3053.40    0.000000  (  0.000000   0.000000   0.000000)
 104:      3205.21    0.000000  (  0.000000   0.000000   0.000000)
 105:      3302.32    0.000000  (  0.000000   0.000000   0.000000)
 106:      3431.19    0.000000  (  0.000000   0.000000   0.000000)
 107:      3440.07    0.000000  (  0.000000   0.000000   0.000000)

The first frequency considered to be a vibration is 6
The total number of vibrations considered is 102


--------------------------
THERMOCHEMISTRY AT 298.15K
--------------------------

Temperature         ... 298.15 K
Pressure            ... 1.00 atm
Total Mass          ... 215.29 AMU

Throughout the following assumptions are being made:
  (1) The electronic state is orbitally nondegenerate
  (2) There are no thermally accessible electronically excited states
  (3) Hindered rotations indicated by low frequency modes are not
      treated as such but are treated as vibrations and this may
      cause some error
  (4) All equations used are the standard statistical mechanics
      equations for an ideal gas
  (5) All vibrations are strictly harmonic

freq.      23.33  E(vib)   ...       0.56 
freq.      44.33  E(vib)   ...       0.53 
freq.      56.78  E(vib)   ...       0.52 
freq.      62.73  E(vib)   ...       0.51 
freq.      73.03  E(vib)   ...       0.49 
freq.      81.39  E(vib)   ...       0.48 
freq.      92.79  E(vib)   ...       0.47 
freq.     110.72  E(vib)   ...       0.45 
freq.     123.79  E(vib)   ...       0.43 
freq.     150.40  E(vib)   ...       0.40 
freq.     155.67  E(vib)   ...       0.40 
freq.     183.73  E(vib)   ...       0.37 
freq.     184.33  E(vib)   ...       0.37 
freq.     193.52  E(vib)   ...       0.36 
freq.     228.59  E(vib)   ...       0.32 
freq.     259.48  E(vib)   ...       0.30 
freq.     272.71  E(vib)   ...       0.29 
freq.     304.45  E(vib)   ...       0.26 
freq.     356.09  E(vib)   ...       0.22 
freq.     390.52  E(vib)   ...       0.20 
freq.     400.46  E(vib)   ...       0.19 
freq.     427.11  E(vib)   ...       0.18 
freq.     439.47  E(vib)   ...       0.17 
freq.     444.94  E(vib)   ...       0.17 
freq.     459.28  E(vib)   ...       0.16 
freq.     466.88  E(vib)   ...       0.16 
freq.     493.54  E(vib)   ...       0.14 
freq.     581.32  E(vib)   ...       0.11 
freq.     587.69  E(vib)   ...       0.10 
freq.     614.57  E(vib)   ...       0.10 
freq.     635.32  E(vib)   ...       0.09 
freq.     670.44  E(vib)   ...       0.08 
freq.     751.44  E(vib)   ...       0.06 
freq.     779.43  E(vib)   ...       0.05 
freq.     807.54  E(vib)   ...       0.05 
freq.     820.62  E(vib)   ...       0.05 
freq.     832.53  E(vib)   ...       0.04 
freq.     855.84  E(vib)   ...       0.04 
freq.     900.38  E(vib)   ...       0.03 
freq.     926.04  E(vib)   ...       0.03 
freq.     936.00  E(vib)   ...       0.03 
freq.     945.53  E(vib)   ...       0.03 
freq.     955.50  E(vib)   ...       0.03 
freq.     959.86  E(vib)   ...       0.03 
freq.     960.59  E(vib)   ...       0.03 
freq.     973.34  E(vib)   ...       0.03 
freq.     986.10  E(vib)   ...       0.02 
freq.    1027.11  E(vib)   ...       0.02 
freq.    1050.91  E(vib)   ...       0.02 
freq.    1063.19  E(vib)   ...       0.02 
freq.    1069.33  E(vib)   ...       0.02 
freq.    1106.78  E(vib)   ...       0.02 
freq.    1109.20  E(vib)   ...       0.02 
freq.    1155.05  E(vib)   ...       0.01 
freq.    1173.79  E(vib)   ...       0.01 
freq.    1186.18  E(vib)   ...       0.01 
freq.    1201.90  E(vib)   ...       0.01 
freq.    1210.06  E(vib)   ...       0.01 
freq.    1247.58  E(vib)   ...       0.01 
freq.    1256.34  E(vib)   ...       0.01 
freq.    1272.97  E(vib)   ...       0.01 
freq.    1282.97  E(vib)   ...       0.01 
freq.    1285.91  E(vib)   ...       0.01 
freq.    1300.89  E(vib)   ...       0.01 
freq.    1356.63  E(vib)   ...       0.01 
freq.    1358.43  E(vib)   ...       0.01 
freq.    1380.47  E(vib)   ...       0.01 
freq.    1411.62  E(vib)   ...       0.00 
freq.    1431.77  E(vib)   ...       0.00 
freq.    1433.54  E(vib)   ...       0.00 
freq.    1494.54  E(vib)   ...       0.00 
freq.    1510.30  E(vib)   ...       0.00 
freq.    1513.08  E(vib)   ...       0.00 
freq.    1514.62  E(vib)   ...       0.00 
freq.    1517.85  E(vib)   ...       0.00 
freq.    1521.30  E(vib)   ...       0.00 
freq.    1531.28  E(vib)   ...       0.00 
freq.    1552.72  E(vib)   ...       0.00 
freq.    1572.94  E(vib)   ...       0.00 
freq.    1575.50  E(vib)   ...       0.00 
freq.    1583.34  E(vib)   ...       0.00 
freq.    2660.50  E(vib)   ...       0.00 
freq.    2796.19  E(vib)   ...       0.00 
freq.    2816.84  E(vib)   ...       0.00 
freq.    2870.41  E(vib)   ...       0.00 
freq.    2882.99  E(vib)   ...       0.00 
freq.    2895.38  E(vib)   ...       0.00 
freq.    2901.92  E(vib)   ...       0.00 
freq.    2906.65  E(vib)   ...       0.00 
freq.    2911.46  E(vib)   ...       0.00 
freq.    2917.30  E(vib)   ...       0.00 
freq.    2929.53  E(vib)   ...       0.00 
freq.    2990.02  E(vib)   ...       0.00 
freq.    2992.79  E(vib)   ...       0.00 
freq.    2998.17  E(vib)   ...       0.00 
freq.    3004.30  E(vib)   ...       0.00 
freq.    3009.03  E(vib)   ...       0.00 
freq.    3053.40  E(vib)   ...       0.00 
freq.    3205.21  E(vib)   ...       0.00 
freq.    3302.32  E(vib)   ...       0.00 
freq.    3431.19  E(vib)   ...       0.00 
freq.    3440.07  E(vib)   ...       0.00 

------------
INNER ENERGY
------------

The inner energy is: U= E(el) + E(ZPE) + E(vib) + E(rot) + E(trans)
    E(el)   - is the total energy from the electronic structure calculation
              = E(kin-el) + E(nuc-el) + E(el-el) + E(nuc-nuc)
    E(ZPE)  - the the zero temperature vibrational energy from the frequency calculation
    E(vib)  - the the finite temperature correction to E(ZPE) due to population
              of excited vibrational states
    E(rot)  - is the rotational thermal energy
    E(trans)- is the translational thermal energy

Summary of contributions to the inner energy U:
Electronic energy                ...    -49.34856999 Eh
Zero point energy                ...      0.29874965 Eh     187.47 kcal/mol
Thermal vibrational correction   ...      0.01654873 Eh      10.38 kcal/mol
Thermal rotational correction    ...      0.00141627 Eh       0.89 kcal/mol
Thermal translational correction ...      0.00141627 Eh       0.89 kcal/mol
-----------------------------------------------------------------------
Total thermal energy                    -49.03043907 Eh


Summary of corrections to the electronic energy:
(perhaps to be used in another calculation)
Total thermal correction                  0.01938127 Eh      12.16 kcal/mol
Non-thermal (ZPE) correction              0.29874965 Eh     187.47 kcal/mol
-----------------------------------------------------------------------
Total correction                          0.31813092 Eh     199.63 kcal/mol


--------
ENTHALPY
--------

The enthalpy is H = U + kB*T
                kB is Boltzmann's constant
Total free energy                 ...    -49.03043907 Eh 
Thermal Enthalpy correction       ...      0.00094421 Eh       0.59 kcal/mol
-----------------------------------------------------------------------
Total Enthalpy                    ...    -49.02949486 Eh


Note: Only C1 symmetry has been detected, increase convergence thresholds 
      if your molecule has a higher symmetry. Symmetry factor of 1.0 is   
      used for the rotational entropy correction. 
 

Note: Rotational entropy computed according to Herzberg 
Infrared and Raman Spectra, Chapter V,1, Van Nostrand Reinhold, 1945 
Point Group:  C1, Symmetry Number:   1  
Rotational constants in cm-1:     0.021854     0.008401     0.007111 

Vibrational entropy computed according to the QRRHO of S. Grimme
Chem.Eur.J. 2012 18 9955


-------
ENTROPY
-------

The entropy contributions are T*S = T*(S(el)+S(vib)+S(rot)+S(trans))
     S(el)   - electronic entropy
     S(vib)  - vibrational entropy
     S(rot)  - rotational entropy
     S(trans)- translational entropy
The entropies will be listed as mutliplied by the temperature to get
units of energy

Electronic entropy                ...      0.00000000 Eh      0.00 kcal/mol
Vibrational entropy               ...      0.02975246 Eh     18.67 kcal/mol
Rotational entropy                ...      0.01590711 Eh      9.98 kcal/mol
Translational entropy             ...      0.01995728 Eh     12.52 kcal/mol
-----------------------------------------------------------------------
Final entropy term                ...      0.06561685 Eh     41.18 kcal/mol

In case the symmetry of your molecule has not been determined correctly
or in case you have a reason to use a different symmetry number we print 
out the resulting rotational entropy values for sn=1,12 :
 --------------------------------------------------------
|  sn= 1 | S(rot)=       0.01590711 Eh      9.98 kcal/mol|
|  sn= 2 | S(rot)=       0.01525265 Eh      9.57 kcal/mol|
|  sn= 3 | S(rot)=       0.01486982 Eh      9.33 kcal/mol|
|  sn= 4 | S(rot)=       0.01459820 Eh      9.16 kcal/mol|
|  sn= 5 | S(rot)=       0.01438751 Eh      9.03 kcal/mol|
|  sn= 6 | S(rot)=       0.01421536 Eh      8.92 kcal/mol|
|  sn= 7 | S(rot)=       0.01406982 Eh      8.83 kcal/mol|
|  sn= 8 | S(rot)=       0.01394374 Eh      8.75 kcal/mol|
|  sn= 9 | S(rot)=       0.01383253 Eh      8.68 kcal/mol|
|  sn=10 | S(rot)=       0.01373305 Eh      8.62 kcal/mol|
|  sn=11 | S(rot)=       0.01364306 Eh      8.56 kcal/mol|
|  sn=12 | S(rot)=       0.01356091 Eh      8.51 kcal/mol|
 --------------------------------------------------------


-------------------
GIBBS FREE ENERGY
-------------------

The Gibbs free energy is G = H - T*S

Total enthalpy                    ...    -49.02949486 Eh 
Total entropy correction          ...     -0.06561685 Eh    -41.18 kcal/mol
-----------------------------------------------------------------------
Final Gibbs free energy         ...    -49.09511171 Eh

For completeness - the Gibbs free energy minus the electronic energy
G-E(el)                           ...      0.25345828 Eh    159.05 kcal/mol


Total Time for Numerical Frequencies  :       113.452 sec
Time for Reference State(s)           :         0.160 sec
Time for Displacements                :       105.789 sec

Timings for individual modules:

Sum of individual times         ...        0.324 sec (=   0.005 min)
XTB module                      ...        0.324 sec (=   0.005 min) 100.0 %
                             ****ORCA TERMINATED NORMALLY****
TOTAL RUN TIME: 0 days 0 hours 1 minutes 55 seconds 710 msec
(SLURM) EXECUTION TIME: 116.520613324 seconds.
