(SLURM) JOB ID:         92

                                 *****************
                                 * O   R   C   A *
                                 *****************

           --- An Ab Initio, DFT and Semiempirical electronic structure package ---

                  #######################################################
                  #                        -***-                        #
                  #          Department of theory and spectroscopy      #
                  #               Directorship: Frank Neese             #
                  #        Max Planck Institute fuer Kohlenforschung    #
                  #                Kaiser Wilhelm Platz 1               #
                  #                 D-45470 Muelheim/Ruhr               #
                  #                      Germany                        #
                  #                                                     #
                  #                  All rights reserved                #
                  #                        -***-                        #
                  #######################################################


                         Program Version 4.2.1 -  RELEASE  -


 With contributions from (in alphabetic order):
   Daniel Aravena         : Magnetic Suceptibility
   Michael Atanasov       : Ab Initio Ligand Field Theory (pilot matlab implementation)
   Alexander A. Auer      : GIAO ZORA, VPT2
   Ute Becker             : Parallelization
   Giovanni Bistoni       : ED, misc. LED, open-shell LED, HFLD
   Martin Brehm           : Molecular dynamics
   Dmytro Bykov           : SCF Hessian
   Vijay G. Chilkuri      : MRCI spin determinant printing, contributions to CSF-ICE
   Dipayan Datta          : RHF DLPNO-CCSD density
   Achintya Kumar Dutta   : EOM-CC, STEOM-CC
   Dmitry Ganyushin       : Spin-Orbit,Spin-Spin,Magnetic field MRCI
   Miquel Garcia          : C-PCM Hessian, Gaussian charge scheme
   Yang Guo               : DLPNO-NEVPT2, CIM, IAO-localization
   Andreas Hansen         : Spin unrestricted coupled pair/coupled cluster methods
   Benjamin Helmich-Paris : CASSCF linear response (MC-RPA)
   Lee Huntington         : MR-EOM, pCC
   Robert Izsak           : Overlap fitted RIJCOSX, COSX-SCS-MP3, EOM
   Christian Kollmar      : KDIIS, OOCD, Brueckner-CCSD(T), CCSD density
   Simone Kossmann        : Meta GGA functionals, TD-DFT gradient, OOMP2, MP2 Hessian
   Martin Krupicka        : AUTO-CI
   Lucas Lang             : DCDCAS
   Dagmar Lenk            : GEPOL surface, SMD
   Dimitrios Liakos       : Extrapolation schemes; Compound Job, initial MDCI parallelization
   Dimitrios Manganas     : Further ROCIS development; embedding schemes
   Dimitrios Pantazis     : SARC Basis sets
   Taras Petrenko         : DFT Hessian,TD-DFT gradient, ASA, ECA, R-Raman, ABS, FL, XAS/XES, NRVS
   Peter Pinski           : DLPNO-MP2, DLPNO-MP2 Gradient
   Christoph Reimann      : Effective Core Potentials
   Marius Retegan         : Local ZFS, SOC
   Christoph Riplinger    : Optimizer, TS searches, QM/MM, DLPNO-CCSD(T), (RO)-DLPNO pert. Triples
   Tobias Risthaus        : Range-separated hybrids, TD-DFT gradient, RPA, STAB
   Michael Roemelt        : Original ROCIS implementation
   Masaaki Saitow         : Open-shell DLPNO-CCSD energy and density
   Barbara Sandhoefer     : DKH picture change effects
   Avijit Sen             : IP-ROCIS
   Kantharuban Sivalingam : CASSCF convergence, NEVPT2, FIC-MRCI
   Bernardo de Souza      : ESD, SOC TD-DFT
   Georgi Stoychev        : AutoAux, RI-MP2 NMR
   Willem Van den Heuvel  : Paramagnetic NMR
   Boris Wezisla          : Elementary symmetry handling
   Frank Wennmohs         : Technical directorship


 We gratefully acknowledge several colleagues who have allowed us to
 interface, adapt or use parts of their codes:
   Stefan Grimme, W. Hujo, H. Kruse,             : VdW corrections, initial TS optimization,
                  C. Bannwarth                     DFT functionals, gCP, sTDA/sTD-DF
   Ed Valeev, F. Pavosevic, A. Kumar             : LibInt (2-el integral package), F12 methods
   Garnet Chan, S. Sharma, J. Yang, R. Olivares  : DMRG
   Ulf Ekstrom                                   : XCFun DFT Library
   Mihaly Kallay                                 : mrcc  (arbitrary order and MRCC methods)
   Andreas Klamt, Michael Diedenhofen            : otool_cosmo (COSMO solvation model)
   Jiri Pittner, Ondrej Demel                    : Mk-CCSD
   Frank Weinhold                                : gennbo (NPA and NBO analysis)
   Christopher J. Cramer and Donald G. Truhlar   : smd solvation model
   Lars Goerigk                                  : TD-DFT with DH, B97 family of functionals
   V. Asgeirsson, H. Jonsson                     : NEB implementation
   FAccTs GmbH                                   : IRC, NEB, NEB-TS, Multilevel, MM, QM/MM, CI optimization
   S Lehtola, MJT Oliveira, MAL Marques          : LibXC Library


 Your calculation uses the libint2 library for the computation of 2-el integrals
 For citations please refer to: http://libint.valeyev.net

 Your ORCA version has been built with support for libXC version: 4.2.3
 For citations please refer to: https://tddft.org/programs/libxc/

 This ORCA versions uses:
   CBLAS   interface :  Fast vector & matrix operations
   LAPACKE interface :  Fast linear algebra routines
   SCALAPACK package :  Parallel linear algebra routines




***************************************
The coordinates will be read from file: init.xyz
***************************************


Your calculation utilizes the SMD solvation module
Please cite in your paper:
A.V. Marenich, C.J. Cramer, D.G. Truhlar J. Phys. Chem. B, 113, (2009), 6378 

Your calculation utilizes the semiempirical GFN2-xTB method
Please cite in your paper:
C. Bannwarth, Ehlert S., S. Grimme,  J. Chem. Theory Comput., 15, (2019), 1652.
   

----- Orbital basis set information -----
Your calculation utilizes the basis: def2-SVP
   F. Weigend and R. Ahlrichs, Phys. Chem. Chem. Phys. 7, 3297 (2005).

================================================================================
                                        WARNINGS
                       Please study these warnings very carefully!
================================================================================

WARNING: Gradients needed for Numerical Frequencies
  ===> : Setting RunTyp to EnGrad

WARNING: The environment variable RSH_COMMAND is not set!
  ===> : All Displacements for the Numerical Hessian calculation
         will be started on localhost

WARNING: Found dipole moment calculation with XTB calculation
  ===> : Switching off dipole moment calculation


INFO   : the flag for use of LIBINT has been found!

================================================================================
                                       INPUT FILE
================================================================================
NAME = /tmp/slurm-scratch/freq.92/freq.inp
|  1> ! XTB2 NumFreq
|  2> %maxcore 1450
|  3> 
|  4> * xyzfile 0 1 init.xyz
|  5> 
|  6> %cpcm
|  7>  smd true
|  8>  smdsolvent "ch2cl2"
|  9> end
| 10> %pal nprocs 8 end
| 11> 
| 12>                          ****END OF INPUT****
================================================================================

                     *******************************
                     * Energy+Gradient Calculation *
                     *******************************

      -----------------------------------------------------------      
     |                   =====================                   |     
     |                           x T B                           |     
     |                   =====================                   |     
     |                         S. Grimme                         |     
     |          Mulliken Center for Theoretical Chemistry        |     
     |                    University of Bonn                     |     
      -----------------------------------------------------------      

   * xtb version 6.3.0 (preview) compiled by 'ehlert@majestix' on 2020-01-15

   This program is distributed in the hope that it will be useful,
   but WITHOUT ANY WARRANTY; without even the implied warranty of
   MERCHANTABILITY or FITNESS FOR A PARTICULAR PURPOSE.
   
   FOR NON-COMMERCIAL, ACADEMIA USE ONLY.
   
   Cite this work as:
   * S. Grimme, C. Bannwarth, P. Shushkov, J. Chem. Theory Comput., 2017,
     13, 1989-2009. DOI: 10.1021/acs.jctc.7b00118
   * C. Bannwarth, S. Ehlert and S. Grimme., J. Chem. Theory Comput., 2019,
     15, 1652-1671. DOI: 10.1021/acs.jctc.8b01176
   * P. Pracht, E. Caldeweyher, S. Ehlert, S. Grimme, ChemRxiv, 2019, preprint.
     DOI: 10.26434/chemrxiv.8326202.v1
   * S. Grimme, S. Spicher unpublished
   
   for DFT-D4:
   * E. Caldeweyher, C. Bannwarth and S. Grimme, J. Chem. Phys., 2017,
     147, 034112. DOI: 10.1063/1.4993215
   * E. Caldeweyher, S. Ehlert, A. Hansen, H. Neugebauer, S. Spicher,
     C. Bannwarth and S. Grimme, J. Chem. Phys., 2019, 150, 154122.
     DOI: 10.1063/1.5090222
   
   for sTDA-xTB:
   * S. Grimme and C. Bannwarth, J. Chem. Phys., 2016, 145, 054103.
     DOI: 10.1063/1.4959605
   
   in the mass-spec context:
   * V. Asgeirsson, C. Bauer and S. Grimme, Chem. Sci., 2017, 8, 4879.
     DOI: 10.1039/c7sc00601b
   
   for metadynamics refer to:
   * S. Grimme, J. Chem. Theory Comput., 2019, 155, 2847-2862
     DOI: 10.1021/acs.jctc.9b00143
   
   with help from (in alphabetical order)
   C. Bannwarth, F. Bohle, G. Brandenburg, E. Caldeweyher, M. Checinski,
   S. Dohm, S. Ehlert, S. Ehrlich, F. März, H. Neugebauer, J. Pisarek,
   P. Pracht, P. Shushkov, and S. Spicher.
   
 * started run on 2020/08/17 at 22:35:47.397     

           -------------------------------------------------
          |                Calculation Setup                |
           -------------------------------------------------

          program call               : /opt/orca/otool_xtb /tmp/slurm-scratch/freq.92/freq_XTB.xyz --grad -c 0 -u 0 -P 8 --namespace /tmp/slurm-scratch/freq.92/freq --gbsa CH2Cl2
          hostname                   : headnode-pbs
          calculation namespace      : /tmp/slurm-scratch/freq.92/freq
          coordinate file            : /tmp/slurm-scratch/freq.92/freq_XTB.xyz
          omp threads                :                     8
          number of atoms            :                    33
          number of electrons        :                    80
          charge                     :                     0
          spin                       :                   0.0
          first test random number   :      0.73207183658430


molecular fragmentation (1/2 indicates fragments):
111111111121111221122111111111111
# atoms in fragment 1/2:    28     5
 fragment masses (1/2) :      162.25       35.02
CMA distance (Bohr)    :   5.027
constraining FC (au)   :  0.0500

########################################################################
# WARNING! Please study the warnings concerning your input carefully
#  - Process number higher than OMP_NUM_THREADS, I hope you know what you are doing.
########################################################################

           ------------------------------------------------- 
          |                 G F N 2 - x T B                 |
          | Geometry, Frequencies, Noncovalent interactions |
          |            JCTC 2019 parametrisation            |
           ------------------------------------------------- 
             k(s)              :                1.8500
             k(p)              :                2.2300
             k(d)              :                2.2300
             k(f)              :                2.0000
             kEN (H0ij)        :               -2.0000
             D4 a1             :                0.5200
             D4 a2             :                5.0000
             D4 s6             :                1.0000
             D4 s8             :                2.7000
             D4 s9             :                5.0000
             alphaj            :                2.0000

  Z AO/shell   Hii/eV     exponent
  1     Wed Apr 25 08:07:45 CEST 2018   EN: 2.200 GM2: 0.406  GM3: 0.0800  RAES: 1.40
     1s    -10.707211    1.230000
  6     Wed Apr 25 08:07:45 CEST 2018   EN: 2.550 GM2: 0.538  GM3: 0.1500  RAES: 3.00
     2s    -13.970922    2.096432
     2p    -10.063292    1.800000
  7     Wed Apr 25 08:07:45 CEST 2018   EN: 3.040 GM2: 0.461  GM3:-0.0640  RAES: 1.90
     2s    -16.686243    2.339881
     2p    -12.523956    2.014332
  8     Wed Apr 25 08:07:45 CEST 2018   EN: 3.440 GM2: 0.452  GM3:-0.0517  RAES: 1.80
     2s    -20.229985    2.439742
     2p    -15.503117    2.137023

 Solvent             : CH2Cl2
 Using internal parameter file: .param_gbsa2_CH2Cl2
 Gsolv ref. state (COSMO-RS): gsolv [1 M gas/solution]
 temperature (mdtemp)       :    298.150000000000     
 dielectric constant        :    8.93000000000000     
 rho                        :    1.33000000000000     
 mass                       :    84.9300000000000     
 surface tension            :    15.5689454083859     
 probe radius               :   0.719875900000000     
 Gshift (Eh)                :   4.440829173451759E-003
 c1                         :    1.49173776000000     
 soset                      :   0.000000000000000E+000
 HB correction              :  F
           ------------------------------------------------- 
          |        Self-Consistent Charge Iterations        |
           ------------------------------------------------- 

          ...................................................
          :                      SETUP                      :
          :.................................................:
          :  # basis functions                  75          :
          :  # atomic orbitals                  75          :
          :  # shells                           47          :
          :  # electrons                        80          :
          :  max. iterations                   250          :
          :  Hamiltonian                  GFN2-xTB          :
          :  GBSA solvation                   true          :
          :  PC potential                    false          :
          :  electronic temp.          300.0000000     K    :
          :  accuracy                    1.0000000          :
          :  -> integral cutoff          0.2500000E+02      :
          :  -> integral neglect         0.1000000E-07      :
          :  -> SCF convergence          0.1000000E-05 Eh   :
          :  -> wf. convergence          0.1000000E-03 e    :
          :  Broyden damping             0.4000000          :
          ...................................................
  Checking positiv definite overlap ...  done.
 

 iter      E             dE          RMSdq      gap      omega  full diag
   1    -44.6991966 -0.446992E+02  0.418E+00    3.22       0.0  T
   2    -44.7895448 -0.903482E-01  0.243E+00    2.55       1.0  T
   3    -44.7889663  0.578518E-03  0.952E-01    1.54       1.0  T
   4    -44.7935353 -0.456906E-02  0.495E-01    1.95       1.0  T
   5    -44.7978896 -0.435424E-02  0.890E-02    1.85       1.0  T
   6    -44.7979383 -0.487494E-04  0.397E-02    1.86       1.0  T
   7    -44.7979409 -0.262645E-05  0.182E-02    1.87       1.0  T
   8    -44.7979437 -0.273537E-05  0.711E-03    1.87       2.4  T
   9    -44.7979443 -0.630962E-06  0.249E-03    1.87       7.0  T
  10    -44.7979444 -0.349682E-07  0.135E-03    1.87      12.9  T
  11    -44.7979444 -0.103323E-07  0.555E-04    1.87      31.4  T
  12    -44.7979444 -0.414600E-08  0.129E-04    1.87     135.2  T

   *** convergence criteria satisfied after 12 iterations ***

         #    Occupation            Energy/Eh            Energy/eV
      -------------------------------------------------------------
         1        2.0000           -0.6844362             -18.6245
       ...           ...                  ...                  ...
        34        2.0000           -0.4385399             -11.9333
        35        2.0000           -0.4260376             -11.5931
        36        2.0000           -0.4226670             -11.5014
        37        2.0000           -0.4199022             -11.4261
        38        2.0000           -0.3950463             -10.7498
        39        2.0000           -0.3903031             -10.6207
        40        2.0000           -0.3760709             -10.2334 (HOMO)
        41                         -0.3074374              -8.3658 (LUMO)
        42                         -0.2446681              -6.6578
        43                         -0.2172259              -5.9110
        44                         -0.1111859              -3.0255
        45                         -0.0286957              -0.7808
       ...                                ...                  ...
        75                          0.6109690              16.6253
      -------------------------------------------------------------
                  HL-Gap            0.0686334 Eh            1.8676 eV
             Fermi-level           -0.3417542 Eh           -9.2996 eV

 SCC (total)                   0 d,  0 h,  0 min,  0.059 sec
 SCC setup                      ...        0 min,  0.001 sec (  1.812%)
 Dispersion                     ...        0 min,  0.000 sec (  0.609%)
 integral evaluation            ...        0 min,  0.005 sec (  8.635%)
 zeroth order Hamiltonian       ...        0 min,  0.000 sec (  0.017%)
 iterations                     ...        0 min,  0.043 sec ( 72.627%)
 molecular gradient             ...        0 min,  0.009 sec ( 15.500%)
 printout                       ...        0 min,  0.000 sec (  0.708%)

         :::::::::::::::::::::::::::::::::::::::::::::::::::::
         ::                     SUMMARY                     ::
         :::::::::::::::::::::::::::::::::::::::::::::::::::::
         :: total energy             -44.239362925449 Eh    ::
         :: total w/o Gsasa/hb       -44.222117045568 Eh    ::
         :: gradient norm              0.045575465453 Eh/a0 ::
         :: HOMO-LUMO gap              1.867611073620 eV    ::
         ::.................................................::
         :: SCC energy               -44.815190244934 Eh    ::
         :: -> isotropic ES            0.148925424859 Eh    ::
         :: -> anisotropic ES         -0.016704658814 Eh    ::
         :: -> anisotropic XC          0.025192515696 Eh    ::
         :: -> dispersion             -0.026032036845 Eh    ::
         :: -> Gsolv                  -0.041181156909 Eh    ::
         ::    -> Gborn               -0.023935277028 Eh    ::
         ::    -> Gsasa               -0.021686709054 Eh    ::
         ::    -> Ghb                  0.000000000000 Eh    ::
         ::    -> Gshift               0.004440829173 Eh    ::
         :: repulsion energy           0.575797340166 Eh    ::
         :: add. restraining           0.000000000000 Eh    ::
         :::::::::::::::::::::::::::::::::::::::::::::::::::::

           -------------------------------------------------
          |                Property Printout                |
           -------------------------------------------------

    * Orbital Energies and Occupations

         #    Occupation            Energy/Eh            Energy/eV
      -------------------------------------------------------------
         1        2.0000           -0.6844362             -18.6245
       ...           ...                  ...                  ...
        28        2.0000           -0.4706636             -12.8074
        29        2.0000           -0.4663645             -12.6904
        30        2.0000           -0.4519022             -12.2969
        31        2.0000           -0.4500896             -12.2476
        32        2.0000           -0.4445358             -12.0964
        33        2.0000           -0.4394964             -11.9593
        34        2.0000           -0.4385399             -11.9333
        35        2.0000           -0.4260376             -11.5931
        36        2.0000           -0.4226670             -11.5014
        37        2.0000           -0.4199022             -11.4261
        38        2.0000           -0.3950463             -10.7498
        39        2.0000           -0.3903031             -10.6207
        40        2.0000           -0.3760709             -10.2334 (HOMO)
        41                         -0.3074374              -8.3658 (LUMO)
        42                         -0.2446681              -6.6578
        43                         -0.2172259              -5.9110
        44                         -0.1111859              -3.0255
        45                         -0.0286957              -0.7808
        46                          0.0350459               0.9536
        47                          0.0728834               1.9833
        48                          0.0808749               2.2007
        49                          0.0921713               2.5081
        50                          0.1012090               2.7540
        51                          0.1128793               3.0716
       ...                                ...                  ...
        75                          0.6109690              16.6253
      -------------------------------------------------------------
                  HL-Gap            0.0686334 Eh            1.8676 eV
             Fermi-level           -0.3417542 Eh           -9.2996 eV

     #   Z        covCN         q      C6AA      α(0)
     1   6 C      2.907    -0.023    28.589     8.767
     2   6 C      2.915    -0.021    28.538     8.760
     3   6 C      2.964     0.018    27.600     8.617
     4   6 C      2.911    -0.023    28.584     8.767
     5   6 C      2.908    -0.023    28.587     8.767
     6   6 C      2.909    -0.017    28.436     8.744
     7   1 H      0.925     0.056     2.248     2.345
     8   1 H      0.925     0.056     2.250     2.346
     9   1 H      0.925     0.057     2.236     2.339
    10   7 N      2.677    -0.071    22.627     7.065
    11   1 H      0.982     0.316     0.662     1.271
    12   6 C      3.740    -0.012    20.866     6.518
    13   1 H      0.923     0.076     2.023     2.224
    14   1 H      0.924     0.068     2.104     2.268
    15   1 H      0.856     0.260     0.848     1.442
    16   8 O      1.359    -0.763    29.875     7.356
    17   1 H      0.804     0.217     1.033     1.596
    18   6 C      2.835     0.093    25.935     8.346
    19   1 H      0.925     0.092     1.859     2.132
    20   8 O      1.231    -0.758    29.979     7.356
    21   1 H      0.804     0.220     1.019     1.586
    22   6 C      3.798    -0.066    21.770     6.644
    23   1 H      0.923     0.050     2.315     2.380
    24   1 H      0.923     0.056     2.252     2.347
    25   1 H      0.925     0.056     2.250     2.346
    26   1 H      0.925     0.055     2.260     2.351
    27   6 C      3.796    -0.054    21.548     6.610
    28   1 H      0.923     0.036     2.504     2.475
    29   1 H      0.923     0.040     2.454     2.450
    30   6 C      3.745    -0.103    22.543     6.773
    31   1 H      0.923     0.039     2.467     2.456
    32   1 H      0.923     0.040     2.455     2.451
    33   1 H      0.923     0.037     2.490     2.468

 Mol. C6AA /au·bohr⁶  :       9513.233780
 Mol. C8AA /au·bohr⁸  :     213118.368899
 Mol. α(0) /au        :        150.359497


Wiberg/Mayer (AO) data.
largest (>0.10) Wiberg bond orders for each atom
          total WBO             WBO to atom ...
     1  C   3.989        C    2 1.465    C    6 1.424    H   25 0.969    C    4 0.103
     2  C   3.985        C    1 1.465    C    3 1.351    H    7 0.967    C    5 0.102
     3  C   3.985        C    2 1.351    C    4 1.351    C   18 1.123
     4  C   3.989        C    5 1.466    C    3 1.351    H    8 0.964    C    1 0.103
     5  C   3.990        C    4 1.466    C    6 1.423    H   26 0.969    C    2 0.102
     6  C   3.983        C    1 1.424    C    5 1.423    H    9 0.970
     7  H   0.997        C    2 0.967
     8  H   0.997        C    4 0.964
     9  H   0.996        C    6 0.970
    10  N   3.594        C   18 1.566    C   12 0.982    H   15 0.806
    11  H   0.900        O   16 0.487    O   20 0.410
    12  C   3.953        C   22 0.997    N   10 0.982    H   14 0.969    H   13 0.952
    13  H   0.991        C   12 0.952
    14  H   0.995        C   12 0.969
    15  H   0.933        N   10 0.806
    16  O   1.718        H   21 0.946    H   11 0.487    O   20 0.119
    17  H   0.953        O   20 0.948
    18  C   3.932        N   10 1.566    C    3 1.123    H   19 0.949    O   20 0.149
    19  H   0.991        C   18 0.949
    20  O   1.754        H   17 0.948    H   11 0.410    C   18 0.149    O   16 0.119
    21  H   0.951        O   16 0.946
    22  C   3.988        C   27 1.005    C   12 0.997    H   24 0.975    H   23 0.975
    23  H   0.997        C   22 0.975
    24  H   0.997        C   22 0.975
    25  H   0.996        C    1 0.969
    26  H   0.997        C    5 0.969
    27  C   3.994        C   30 1.019    C   22 1.005    H   28 0.978    H   29 0.978
    28  H   0.999        C   27 0.978
    29  H   0.998        C   27 0.978
    30  C   3.995        C   27 1.019    H   33 0.988    H   32 0.987    H   31 0.987
    31  H   0.998        C   30 0.987
    32  H   0.998        C   30 0.987
    33  H   0.999        C   30 0.988

molecular dipole:
                 x           y           z       tot (Debye)
 q only:        0.821       2.843      -1.029
   full:        1.193       2.499      -0.890       7.392
molecular quadrupole (traceless):
                xx          xy          yy          xz          yz          zz
 q only:       16.627     -12.843     -10.473       3.340       4.174      -6.154
  q+dip:       14.013     -12.929     -11.006       2.735       7.907      -3.006
   full:       13.274     -13.225      -9.121       2.909       5.969      -4.153

           -------------------------------------------------
          |                Property Printout                |
           -------------------------------------------------

    * Orbital Energies and Occupations

         #    Occupation            Energy/Eh            Energy/eV
      -------------------------------------------------------------
         1        2.0000           -0.6844362             -18.6245
       ...           ...                  ...                  ...
        28        2.0000           -0.4706636             -12.8074
        29        2.0000           -0.4663645             -12.6904
        30        2.0000           -0.4519022             -12.2969
        31        2.0000           -0.4500896             -12.2476
        32        2.0000           -0.4445358             -12.0964
        33        2.0000           -0.4394964             -11.9593
        34        2.0000           -0.4385399             -11.9333
        35        2.0000           -0.4260376             -11.5931
        36        2.0000           -0.4226670             -11.5014
        37        2.0000           -0.4199022             -11.4261
        38        2.0000           -0.3950463             -10.7498
        39        2.0000           -0.3903031             -10.6207
        40        2.0000           -0.3760709             -10.2334 (HOMO)
        41                         -0.3074374              -8.3658 (LUMO)
        42                         -0.2446681              -6.6578
        43                         -0.2172259              -5.9110
        44                         -0.1111859              -3.0255
        45                         -0.0286957              -0.7808
        46                          0.0350459               0.9536
        47                          0.0728834               1.9833
        48                          0.0808749               2.2007
        49                          0.0921713               2.5081
        50                          0.1012090               2.7540
        51                          0.1128793               3.0716
       ...                                ...                  ...
        75                          0.6109690              16.6253
      -------------------------------------------------------------
                  HL-Gap            0.0686334 Eh            1.8676 eV
             Fermi-level           -0.3417542 Eh           -9.2996 eV

     #   Z        covCN         q      C6AA      α(0)
     1   6 C      2.907    -0.023    28.589     8.767
     2   6 C      2.915    -0.021    28.538     8.760
     3   6 C      2.964     0.018    27.600     8.617
     4   6 C      2.911    -0.023    28.584     8.767
     5   6 C      2.908    -0.023    28.587     8.767
     6   6 C      2.909    -0.017    28.436     8.744
     7   1 H      0.925     0.056     2.248     2.345
     8   1 H      0.925     0.056     2.250     2.346
     9   1 H      0.925     0.057     2.236     2.339
    10   7 N      2.677    -0.071    22.627     7.065
    11   1 H      0.982     0.316     0.662     1.271
    12   6 C      3.740    -0.012    20.866     6.518
    13   1 H      0.923     0.076     2.023     2.224
    14   1 H      0.924     0.068     2.104     2.268
    15   1 H      0.856     0.260     0.848     1.442
    16   8 O      1.359    -0.763    29.875     7.356
    17   1 H      0.804     0.217     1.033     1.596
    18   6 C      2.835     0.093    25.935     8.346
    19   1 H      0.925     0.092     1.859     2.132
    20   8 O      1.231    -0.758    29.979     7.356
    21   1 H      0.804     0.220     1.019     1.586
    22   6 C      3.798    -0.066    21.770     6.644
    23   1 H      0.923     0.050     2.315     2.380
    24   1 H      0.923     0.056     2.252     2.347
    25   1 H      0.925     0.056     2.250     2.346
    26   1 H      0.925     0.055     2.260     2.351
    27   6 C      3.796    -0.054    21.548     6.610
    28   1 H      0.923     0.036     2.504     2.475
    29   1 H      0.923     0.040     2.454     2.450
    30   6 C      3.745    -0.103    22.543     6.773
    31   1 H      0.923     0.039     2.467     2.456
    32   1 H      0.923     0.040     2.455     2.451
    33   1 H      0.923     0.037     2.490     2.468

 Mol. C6AA /au·bohr⁶  :       9513.233780
 Mol. C8AA /au·bohr⁸  :     213118.368899
 Mol. α(0) /au        :        150.359497


Wiberg/Mayer (AO) data.
largest (>0.10) Wiberg bond orders for each atom
          total WBO             WBO to atom ...
     1  C   3.989        C    2 1.465    C    6 1.424    H   25 0.969    C    4 0.103
     2  C   3.985        C    1 1.465    C    3 1.351    H    7 0.967    C    5 0.102
     3  C   3.985        C    2 1.351    C    4 1.351    C   18 1.123
     4  C   3.989        C    5 1.466    C    3 1.351    H    8 0.964    C    1 0.103
     5  C   3.990        C    4 1.466    C    6 1.423    H   26 0.969    C    2 0.102
     6  C   3.983        C    1 1.424    C    5 1.423    H    9 0.970
     7  H   0.997        C    2 0.967
     8  H   0.997        C    4 0.964
     9  H   0.996        C    6 0.970
    10  N   3.594        C   18 1.566    C   12 0.982    H   15 0.806
    11  H   0.900        O   16 0.487    O   20 0.410
    12  C   3.953        C   22 0.997    N   10 0.982    H   14 0.969    H   13 0.952
    13  H   0.991        C   12 0.952
    14  H   0.995        C   12 0.969
    15  H   0.933        N   10 0.806
    16  O   1.718        H   21 0.946    H   11 0.487    O   20 0.119
    17  H   0.953        O   20 0.948
    18  C   3.932        N   10 1.566    C    3 1.123    H   19 0.949    O   20 0.149
    19  H   0.991        C   18 0.949
    20  O   1.754        H   17 0.948    H   11 0.410    C   18 0.149    O   16 0.119
    21  H   0.951        O   16 0.946
    22  C   3.988        C   27 1.005    C   12 0.997    H   24 0.975    H   23 0.975
    23  H   0.997        C   22 0.975
    24  H   0.997        C   22 0.975
    25  H   0.996        C    1 0.969
    26  H   0.997        C    5 0.969
    27  C   3.994        C   30 1.019    C   22 1.005    H   28 0.978    H   29 0.978
    28  H   0.999        C   27 0.978
    29  H   0.998        C   27 0.978
    30  C   3.995        C   27 1.019    H   33 0.988    H   32 0.987    H   31 0.987
    31  H   0.998        C   30 0.987
    32  H   0.998        C   30 0.987
    33  H   0.999        C   30 0.988

molecular dipole:
                 x           y           z       tot (Debye)
 q only:        0.821       2.843      -1.029
   full:        1.193       2.499      -0.890       7.392
molecular quadrupole (traceless):
                xx          xy          yy          xz          yz          zz
 q only:       16.627     -12.843     -10.473       3.340       4.174      -6.154
  q+dip:       14.013     -12.929     -11.006       2.735       7.907      -3.006
   full:       13.274     -13.225      -9.121       2.909       5.969      -4.153


           -------------------------------------------------
          | TOTAL ENERGY              -44.239362925449 Eh   |
          | GRADIENT NORM               0.045575465453 Eh/α |
          | HOMO-LUMO GAP               1.867611073620 eV   |
           -------------------------------------------------

------------------------------------------------------------------------
 * finished run on 2020/08/17 at 22:35:47.504     
------------------------------------------------------------------------
 total:
 * wall-time:     0 d,  0 h,  0 min,  0.106 sec
 *  cpu-time:     0 d,  0 h,  0 min,  0.553 sec
 * ratio c/w:     5.201 speedup
 SCF:
 * wall-time:     0 d,  0 h,  0 min,  0.059 sec
 *  cpu-time:     0 d,  0 h,  0 min,  0.250 sec
 * ratio c/w:     4.229 speedup


-------------------------   --------------------
FINAL SINGLE POINT ENERGY       -44.239362925450
-------------------------   --------------------


----------------------------------------------------------------------------
                           ORCA NUMERICAL FREQUENCIES
                              (8-process run)
----------------------------------------------------------------------------

Number of atoms                ... 33
Central differences            ... used
Number of displacements        ... 198
Numerical increment            ... 5.000e-03 bohr
IR-spectrum generation         ... on
Raman-spectrum generation      ... off
Surface Crossing Hessian       ... off
List of participating nodes    ...  /tmp/slurm-scratch/freq.92/freq.hostnames

The output will be reduced. Please look at the following files:
SCF program output             ... >/tmp/slurm-scratch/freq.92/freq.lastscf
Integral program output        ... >/tmp/slurm-scratch/freq.92/freq.lastint
Gradient program output        ... >/tmp/slurm-scratch/freq.92/freq.lastgrad
Dipole moment program output   ... >/tmp/slurm-scratch/freq.92/freq.lastmom
AutoCI program output          ... >/tmp/slurm-scratch/freq.92/freq.lastautoci


         <<< Energy and Gradient at the input geometry >>>

        <<< Energy and Gradient at displaced geometries >>>
             <<<Displacing   1/coordinate 1 (+)>>>
             <<<Displacing   1/coordinate 3 (+)>>>
             <<<Displacing   2/coordinate 1 (+)>>>
             <<<Displacing   1/coordinate 2 (+)>>>
             <<<Displacing   2/coordinate 2 (+)>>>
             <<<Displacing   3/coordinate 2 (+)>>>
             <<<Displacing   3/coordinate 1 (+)>>>
             <<<Displacing   1/coordinate 3 (-)>>>
             <<<Displacing   1/coordinate 2 (-)>>>
             <<<Displacing   2/coordinate 1 (-)>>>
             <<<Displacing   2/coordinate 2 (-)>>>
             <<<Displacing   1/coordinate 1 (-)>>>
             <<<Displacing   2/coordinate 3 (+)>>>
             <<<Displacing   3/coordinate 2 (-)>>>
             <<<Displacing   3/coordinate 1 (-)>>>
             <<<Displacing   2/coordinate 3 (-)>>>
             <<<Displacing   3/coordinate 3 (+)>>>
             <<<Displacing   4/coordinate 1 (+)>>>
             <<<Displacing   4/coordinate 3 (+)>>>
             <<<Displacing   5/coordinate 1 (+)>>>
             <<<Displacing   3/coordinate 3 (-)>>>
             <<<Displacing   4/coordinate 1 (-)>>>
             <<<Displacing   5/coordinate 2 (+)>>>
             <<<Displacing   4/coordinate 2 (+)>>>
             <<<Displacing   5/coordinate 1 (-)>>>
             <<<Displacing   4/coordinate 3 (-)>>>
             <<<Displacing   6/coordinate 1 (+)>>>
             <<<Displacing   5/coordinate 2 (-)>>>
             <<<Displacing   4/coordinate 2 (-)>>>
             <<<Displacing   6/coordinate 1 (-)>>>
             <<<Displacing   5/coordinate 3 (+)>>>
             <<<Displacing   5/coordinate 3 (-)>>>
             <<<Displacing   6/coordinate 2 (+)>>>
             <<<Displacing   7/coordinate 1 (+)>>>
             <<<Displacing   6/coordinate 3 (+)>>>
             <<<Displacing   7/coordinate 2 (+)>>>
             <<<Displacing   6/coordinate 2 (-)>>>
             <<<Displacing   8/coordinate 1 (+)>>>
             <<<Displacing   7/coordinate 1 (-)>>>
             <<<Displacing   6/coordinate 3 (-)>>>
             <<<Displacing   8/coordinate 2 (+)>>>
             <<<Displacing   7/coordinate 2 (-)>>>
             <<<Displacing   8/coordinate 1 (-)>>>
             <<<Displacing   8/coordinate 2 (-)>>>
             <<<Displacing   8/coordinate 3 (+)>>>
             <<<Displacing   7/coordinate 3 (+)>>>
             <<<Displacing   8/coordinate 3 (-)>>>
             <<<Displacing   7/coordinate 3 (-)>>>
             <<<Displacing   9/coordinate 1 (+)>>>
             <<<Displacing   9/coordinate 2 (+)>>>
             <<<Displacing   9/coordinate 1 (-)>>>
             <<<Displacing   9/coordinate 3 (+)>>>
             <<<Displacing   9/coordinate 2 (-)>>>
             <<<Displacing   9/coordinate 3 (-)>>>
             <<<Displacing  10/coordinate 1 (+)>>>
             <<<Displacing  10/coordinate 2 (+)>>>
             <<<Displacing  10/coordinate 3 (+)>>>
             <<<Displacing  11/coordinate 1 (+)>>>
             <<<Displacing  10/coordinate 1 (-)>>>
             <<<Displacing  10/coordinate 2 (-)>>>
             <<<Displacing  11/coordinate 1 (-)>>>
             <<<Displacing  10/coordinate 3 (-)>>>
             <<<Displacing  11/coordinate 2 (+)>>>
             <<<Displacing  11/coordinate 2 (-)>>>
             <<<Displacing  11/coordinate 3 (+)>>>
             <<<Displacing  12/coordinate 1 (+)>>>
             <<<Displacing  11/coordinate 3 (-)>>>
             <<<Displacing  12/coordinate 3 (+)>>>
             <<<Displacing  12/coordinate 1 (-)>>>
             <<<Displacing  13/coordinate 3 (+)>>>
             <<<Displacing  12/coordinate 3 (-)>>>
             <<<Displacing  13/coordinate 2 (+)>>>
             <<<Displacing  13/coordinate 3 (-)>>>
             <<<Displacing  14/coordinate 1 (+)>>>
             <<<Displacing  13/coordinate 2 (-)>>>
             <<<Displacing  14/coordinate 1 (-)>>>
             <<<Displacing  12/coordinate 2 (+)>>>
             <<<Displacing  12/coordinate 2 (-)>>>
             <<<Displacing  13/coordinate 1 (+)>>>
             <<<Displacing  13/coordinate 1 (-)>>>
             <<<Displacing  14/coordinate 2 (+)>>>
             <<<Displacing  14/coordinate 2 (-)>>>
             <<<Displacing  14/coordinate 3 (+)>>>
             <<<Displacing  15/coordinate 2 (+)>>>
             <<<Displacing  15/coordinate 1 (+)>>>
             <<<Displacing  16/coordinate 1 (+)>>>
             <<<Displacing  15/coordinate 3 (+)>>>
             <<<Displacing  14/coordinate 3 (-)>>>
             <<<Displacing  15/coordinate 2 (-)>>>
             <<<Displacing  15/coordinate 1 (-)>>>
             <<<Displacing  15/coordinate 3 (-)>>>
             <<<Displacing  16/coordinate 1 (-)>>>
             <<<Displacing  16/coordinate 2 (+)>>>
             <<<Displacing  16/coordinate 3 (+)>>>
             <<<Displacing  16/coordinate 2 (-)>>>
             <<<Displacing  16/coordinate 3 (-)>>>
             <<<Displacing  17/coordinate 2 (+)>>>
             <<<Displacing  17/coordinate 2 (-)>>>
             <<<Displacing  18/coordinate 2 (+)>>>
             <<<Displacing  17/coordinate 1 (+)>>>
             <<<Displacing  18/coordinate 1 (+)>>>
             <<<Displacing  17/coordinate 1 (-)>>>
             <<<Displacing  18/coordinate 2 (-)>>>
             <<<Displacing  18/coordinate 1 (-)>>>
             <<<Displacing  18/coordinate 3 (+)>>>
             <<<Displacing  17/coordinate 3 (+)>>>
             <<<Displacing  18/coordinate 3 (-)>>>
             <<<Displacing  17/coordinate 3 (-)>>>
             <<<Displacing  19/coordinate 2 (+)>>>
             <<<Displacing  19/coordinate 1 (+)>>>
             <<<Displacing  19/coordinate 2 (-)>>>
             <<<Displacing  19/coordinate 1 (-)>>>
             <<<Displacing  20/coordinate 1 (+)>>>
             <<<Displacing  19/coordinate 3 (+)>>>
             <<<Displacing  20/coordinate 1 (-)>>>
             <<<Displacing  20/coordinate 3 (+)>>>
             <<<Displacing  20/coordinate 2 (+)>>>
             <<<Displacing  19/coordinate 3 (-)>>>
             <<<Displacing  20/coordinate 3 (-)>>>
             <<<Displacing  20/coordinate 2 (-)>>>
             <<<Displacing  21/coordinate 1 (+)>>>
             <<<Displacing  21/coordinate 2 (+)>>>
             <<<Displacing  21/coordinate 1 (-)>>>
             <<<Displacing  21/coordinate 2 (-)>>>
             <<<Displacing  22/coordinate 1 (+)>>>
             <<<Displacing  22/coordinate 1 (-)>>>
             <<<Displacing  21/coordinate 3 (+)>>>
             <<<Displacing  21/coordinate 3 (-)>>>
             <<<Displacing  22/coordinate 2 (+)>>>
             <<<Displacing  22/coordinate 3 (+)>>>
             <<<Displacing  22/coordinate 2 (-)>>>
             <<<Displacing  23/coordinate 2 (+)>>>
             <<<Displacing  23/coordinate 1 (+)>>>
             <<<Displacing  22/coordinate 3 (-)>>>
             <<<Displacing  23/coordinate 1 (-)>>>
             <<<Displacing  23/coordinate 2 (-)>>>
             <<<Displacing  23/coordinate 3 (+)>>>
             <<<Displacing  23/coordinate 3 (-)>>>
             <<<Displacing  24/coordinate 1 (+)>>>
             <<<Displacing  24/coordinate 1 (-)>>>
             <<<Displacing  24/coordinate 2 (+)>>>
             <<<Displacing  24/coordinate 3 (+)>>>
             <<<Displacing  24/coordinate 2 (-)>>>
             <<<Displacing  24/coordinate 3 (-)>>>
             <<<Displacing  25/coordinate 1 (+)>>>
             <<<Displacing  26/coordinate 1 (+)>>>
             <<<Displacing  25/coordinate 3 (+)>>>
             <<<Displacing  25/coordinate 1 (-)>>>
             <<<Displacing  26/coordinate 1 (-)>>>
             <<<Displacing  25/coordinate 2 (+)>>>
             <<<Displacing  26/coordinate 2 (+)>>>
             <<<Displacing  25/coordinate 3 (-)>>>
             <<<Displacing  25/coordinate 2 (-)>>>
             <<<Displacing  26/coordinate 3 (+)>>>
             <<<Displacing  26/coordinate 2 (-)>>>
             <<<Displacing  26/coordinate 3 (-)>>>
             <<<Displacing  27/coordinate 2 (+)>>>
             <<<Displacing  27/coordinate 1 (+)>>>
             <<<Displacing  27/coordinate 2 (-)>>>
             <<<Displacing  27/coordinate 1 (-)>>>
             <<<Displacing  28/coordinate 1 (+)>>>
             <<<Displacing  28/coordinate 2 (+)>>>
             <<<Displacing  28/coordinate 3 (+)>>>
             <<<Displacing  28/coordinate 1 (-)>>>
             <<<Displacing  27/coordinate 3 (+)>>>
             <<<Displacing  28/coordinate 2 (-)>>>
             <<<Displacing  29/coordinate 1 (+)>>>
             <<<Displacing  28/coordinate 3 (-)>>>
             <<<Displacing  29/coordinate 2 (+)>>>
             <<<Displacing  27/coordinate 3 (-)>>>
             <<<Displacing  29/coordinate 1 (-)>>>
             <<<Displacing  29/coordinate 2 (-)>>>
             <<<Displacing  30/coordinate 1 (+)>>>
             <<<Displacing  29/coordinate 3 (+)>>>
             <<<Displacing  30/coordinate 1 (-)>>>
             <<<Displacing  29/coordinate 3 (-)>>>
             <<<Displacing  30/coordinate 2 (+)>>>
             <<<Displacing  30/coordinate 3 (+)>>>
             <<<Displacing  30/coordinate 2 (-)>>>
             <<<Displacing  31/coordinate 1 (+)>>>
             <<<Displacing  31/coordinate 2 (+)>>>
             <<<Displacing  31/coordinate 3 (+)>>>
             <<<Displacing  30/coordinate 3 (-)>>>
             <<<Displacing  32/coordinate 1 (+)>>>
             <<<Displacing  31/coordinate 1 (-)>>>
             <<<Displacing  31/coordinate 2 (-)>>>
             <<<Displacing  31/coordinate 3 (-)>>>
             <<<Displacing  32/coordinate 1 (-)>>>
             <<<Displacing  32/coordinate 2 (+)>>>
             <<<Displacing  32/coordinate 3 (+)>>>
             <<<Displacing  32/coordinate 2 (-)>>>
             <<<Displacing  32/coordinate 3 (-)>>>
             <<<Displacing  33/coordinate 1 (+)>>>
             <<<Displacing  33/coordinate 1 (-)>>>
             <<<Displacing  33/coordinate 2 (+)>>>
             <<<Displacing  33/coordinate 3 (+)>>>
             <<<Displacing  33/coordinate 2 (-)>>>
             <<<Displacing  33/coordinate 3 (-)>>>

-----------------------
VIBRATIONAL FREQUENCIES
-----------------------

Scaling factor for frequencies =  1.000000000 (already applied!)

   0:         0.00 cm**-1
   1:         0.00 cm**-1
   2:         0.00 cm**-1
   3:         0.00 cm**-1
   4:         0.00 cm**-1
   5:         0.00 cm**-1
   6:      -801.19 cm**-1 ***imaginary mode***
   7:        66.33 cm**-1
   8:        86.09 cm**-1
   9:        93.53 cm**-1
  10:        96.87 cm**-1
  11:       111.80 cm**-1
  12:       129.61 cm**-1
  13:       155.37 cm**-1
  14:       176.11 cm**-1
  15:       189.75 cm**-1
  16:       199.49 cm**-1
  17:       231.38 cm**-1
  18:       262.41 cm**-1
  19:       287.04 cm**-1
  20:       338.04 cm**-1
  21:       355.20 cm**-1
  22:       396.87 cm**-1
  23:       426.40 cm**-1
  24:       456.24 cm**-1
  25:       506.81 cm**-1
  26:       509.52 cm**-1
  27:       539.86 cm**-1
  28:       576.70 cm**-1
  29:       587.82 cm**-1
  30:       590.46 cm**-1
  31:       610.25 cm**-1
  32:       673.77 cm**-1
  33:       689.20 cm**-1
  34:       776.94 cm**-1
  35:       804.51 cm**-1
  36:       808.87 cm**-1
  37:       840.11 cm**-1
  38:       863.51 cm**-1
  39:       886.23 cm**-1
  40:       892.40 cm**-1
  41:       926.02 cm**-1
  42:       938.30 cm**-1
  43:       944.66 cm**-1
  44:       946.83 cm**-1
  45:       954.23 cm**-1
  46:       962.40 cm**-1
  47:       973.92 cm**-1
  48:      1021.14 cm**-1
  49:      1049.52 cm**-1
  50:      1058.76 cm**-1
  51:      1081.51 cm**-1
  52:      1111.60 cm**-1
  53:      1124.04 cm**-1
  54:      1132.31 cm**-1
  55:      1182.65 cm**-1
  56:      1185.19 cm**-1
  57:      1207.75 cm**-1
  58:      1214.87 cm**-1
  59:      1239.59 cm**-1
  60:      1253.25 cm**-1
  61:      1260.62 cm**-1
  62:      1264.03 cm**-1
  63:      1281.47 cm**-1
  64:      1283.62 cm**-1
  65:      1304.97 cm**-1
  66:      1340.04 cm**-1
  67:      1348.99 cm**-1
  68:      1372.39 cm**-1
  69:      1403.83 cm**-1
  70:      1433.55 cm**-1
  71:      1435.68 cm**-1
  72:      1456.37 cm**-1
  73:      1502.98 cm**-1
  74:      1509.51 cm**-1
  75:      1511.63 cm**-1
  76:      1514.32 cm**-1
  77:      1518.10 cm**-1
  78:      1526.96 cm**-1
  79:      1544.56 cm**-1
  80:      1559.01 cm**-1
  81:      2623.20 cm**-1
  82:      2877.42 cm**-1
  83:      2890.50 cm**-1
  84:      2899.59 cm**-1
  85:      2900.72 cm**-1
  86:      2910.26 cm**-1
  87:      2914.85 cm**-1
  88:      2921.26 cm**-1
  89:      2933.10 cm**-1
  90:      2938.88 cm**-1
  91:      2990.38 cm**-1
  92:      2992.48 cm**-1
  93:      2994.39 cm**-1
  94:      3000.25 cm**-1
  95:      3007.30 cm**-1
  96:      3017.41 cm**-1
  97:      3454.22 cm**-1
  98:      3460.91 cm**-1


------------
NORMAL MODES
------------

These modes are the cartesian displacements weighted by the diagonal matrix
M(i,i)=1/sqrt(m[i]) where m[i] is the mass of the displaced atom
Thus, these vectors are normalized but *not* orthogonal

                  0          1          2          3          4          5    
      0       0.000000   0.000000   0.000000   0.000000   0.000000   0.000000
      1       0.000000   0.000000   0.000000   0.000000   0.000000   0.000000
      2       0.000000   0.000000   0.000000   0.000000   0.000000   0.000000
      3       0.000000   0.000000   0.000000   0.000000   0.000000   0.000000
      4       0.000000   0.000000   0.000000   0.000000   0.000000   0.000000
      5       0.000000   0.000000   0.000000   0.000000   0.000000   0.000000
      6       0.000000   0.000000   0.000000   0.000000   0.000000   0.000000
      7       0.000000   0.000000   0.000000   0.000000   0.000000   0.000000
      8       0.000000   0.000000   0.000000   0.000000   0.000000   0.000000
      9       0.000000   0.000000   0.000000   0.000000   0.000000   0.000000
     10       0.000000   0.000000   0.000000   0.000000   0.000000   0.000000
     11       0.000000   0.000000   0.000000   0.000000   0.000000   0.000000
     12       0.000000   0.000000   0.000000   0.000000   0.000000   0.000000
     13       0.000000   0.000000   0.000000   0.000000   0.000000   0.000000
     14       0.000000   0.000000   0.000000   0.000000   0.000000   0.000000
     15       0.000000   0.000000   0.000000   0.000000   0.000000   0.000000
     16       0.000000   0.000000   0.000000   0.000000   0.000000   0.000000
     17       0.000000   0.000000   0.000000   0.000000   0.000000   0.000000
     18       0.000000   0.000000   0.000000   0.000000   0.000000   0.000000
     19       0.000000   0.000000   0.000000   0.000000   0.000000   0.000000
     20       0.000000   0.000000   0.000000   0.000000   0.000000   0.000000
     21       0.000000   0.000000   0.000000   0.000000   0.000000   0.000000
     22       0.000000   0.000000   0.000000   0.000000   0.000000   0.000000
     23       0.000000   0.000000   0.000000   0.000000   0.000000   0.000000
     24       0.000000   0.000000   0.000000   0.000000   0.000000   0.000000
     25       0.000000   0.000000   0.000000   0.000000   0.000000   0.000000
     26       0.000000   0.000000   0.000000   0.000000   0.000000   0.000000
     27       0.000000   0.000000   0.000000   0.000000   0.000000   0.000000
     28       0.000000   0.000000   0.000000   0.000000   0.000000   0.000000
     29       0.000000   0.000000   0.000000   0.000000   0.000000   0.000000
     30       0.000000   0.000000   0.000000   0.000000   0.000000   0.000000
     31       0.000000   0.000000   0.000000   0.000000   0.000000   0.000000
     32       0.000000   0.000000   0.000000   0.000000   0.000000   0.000000
     33       0.000000   0.000000   0.000000   0.000000   0.000000   0.000000
     34       0.000000   0.000000   0.000000   0.000000   0.000000   0.000000
     35       0.000000   0.000000   0.000000   0.000000   0.000000   0.000000
     36       0.000000   0.000000   0.000000   0.000000   0.000000   0.000000
     37       0.000000   0.000000   0.000000   0.000000   0.000000   0.000000
     38       0.000000   0.000000   0.000000   0.000000   0.000000   0.000000
     39       0.000000   0.000000   0.000000   0.000000   0.000000   0.000000
     40       0.000000   0.000000   0.000000   0.000000   0.000000   0.000000
     41       0.000000   0.000000   0.000000   0.000000   0.000000   0.000000
     42       0.000000   0.000000   0.000000   0.000000   0.000000   0.000000
     43       0.000000   0.000000   0.000000   0.000000   0.000000   0.000000
     44       0.000000   0.000000   0.000000   0.000000   0.000000   0.000000
     45       0.000000   0.000000   0.000000   0.000000   0.000000   0.000000
     46       0.000000   0.000000   0.000000   0.000000   0.000000   0.000000
     47       0.000000   0.000000   0.000000   0.000000   0.000000   0.000000
     48       0.000000   0.000000   0.000000   0.000000   0.000000   0.000000
     49       0.000000   0.000000   0.000000   0.000000   0.000000   0.000000
     50       0.000000   0.000000   0.000000   0.000000   0.000000   0.000000
     51       0.000000   0.000000   0.000000   0.000000   0.000000   0.000000
     52       0.000000   0.000000   0.000000   0.000000   0.000000   0.000000
     53       0.000000   0.000000   0.000000   0.000000   0.000000   0.000000
     54       0.000000   0.000000   0.000000   0.000000   0.000000   0.000000
     55       0.000000   0.000000   0.000000   0.000000   0.000000   0.000000
     56       0.000000   0.000000   0.000000   0.000000   0.000000   0.000000
     57       0.000000   0.000000   0.000000   0.000000   0.000000   0.000000
     58       0.000000   0.000000   0.000000   0.000000   0.000000   0.000000
     59       0.000000   0.000000   0.000000   0.000000   0.000000   0.000000
     60       0.000000   0.000000   0.000000   0.000000   0.000000   0.000000
     61       0.000000   0.000000   0.000000   0.000000   0.000000   0.000000
     62       0.000000   0.000000   0.000000   0.000000   0.000000   0.000000
     63       0.000000   0.000000   0.000000   0.000000   0.000000   0.000000
     64       0.000000   0.000000   0.000000   0.000000   0.000000   0.000000
     65       0.000000   0.000000   0.000000   0.000000   0.000000   0.000000
     66       0.000000   0.000000   0.000000   0.000000   0.000000   0.000000
     67       0.000000   0.000000   0.000000   0.000000   0.000000   0.000000
     68       0.000000   0.000000   0.000000   0.000000   0.000000   0.000000
     69       0.000000   0.000000   0.000000   0.000000   0.000000   0.000000
     70       0.000000   0.000000   0.000000   0.000000   0.000000   0.000000
     71       0.000000   0.000000   0.000000   0.000000   0.000000   0.000000
     72       0.000000   0.000000   0.000000   0.000000   0.000000   0.000000
     73       0.000000   0.000000   0.000000   0.000000   0.000000   0.000000
     74       0.000000   0.000000   0.000000   0.000000   0.000000   0.000000
     75       0.000000   0.000000   0.000000   0.000000   0.000000   0.000000
     76       0.000000   0.000000   0.000000   0.000000   0.000000   0.000000
     77       0.000000   0.000000   0.000000   0.000000   0.000000   0.000000
     78       0.000000   0.000000   0.000000   0.000000   0.000000   0.000000
     79       0.000000   0.000000   0.000000   0.000000   0.000000   0.000000
     80       0.000000   0.000000   0.000000   0.000000   0.000000   0.000000
     81       0.000000   0.000000   0.000000   0.000000   0.000000   0.000000
     82       0.000000   0.000000   0.000000   0.000000   0.000000   0.000000
     83       0.000000   0.000000   0.000000   0.000000   0.000000   0.000000
     84       0.000000   0.000000   0.000000   0.000000   0.000000   0.000000
     85       0.000000   0.000000   0.000000   0.000000   0.000000   0.000000
     86       0.000000   0.000000   0.000000   0.000000   0.000000   0.000000
     87       0.000000   0.000000   0.000000   0.000000   0.000000   0.000000
     88       0.000000   0.000000   0.000000   0.000000   0.000000   0.000000
     89       0.000000   0.000000   0.000000   0.000000   0.000000   0.000000
     90       0.000000   0.000000   0.000000   0.000000   0.000000   0.000000
     91       0.000000   0.000000   0.000000   0.000000   0.000000   0.000000
     92       0.000000   0.000000   0.000000   0.000000   0.000000   0.000000
     93       0.000000   0.000000   0.000000   0.000000   0.000000   0.000000
     94       0.000000   0.000000   0.000000   0.000000   0.000000   0.000000
     95       0.000000   0.000000   0.000000   0.000000   0.000000   0.000000
     96       0.000000   0.000000   0.000000   0.000000   0.000000   0.000000
     97       0.000000   0.000000   0.000000   0.000000   0.000000   0.000000
     98       0.000000   0.000000   0.000000   0.000000   0.000000   0.000000
                  6          7          8          9         10         11    
      0       0.001470  -0.047703  -0.055516   0.000974  -0.039797  -0.023844
      1       0.000417   0.106668  -0.119340   0.146267  -0.003164   0.152690
      2      -0.001428  -0.055071   0.028732   0.032087   0.078376  -0.030645
      3       0.002098  -0.048177  -0.050012  -0.014637  -0.058448  -0.022066
      4      -0.000245   0.040275   0.008073   0.163362  -0.027220   0.153583
      5      -0.001342  -0.028296  -0.011200  -0.044991   0.012004  -0.023356
      6       0.003618  -0.049471  -0.052573   0.027562  -0.004497  -0.028474
      7      -0.007180  -0.013259   0.067761   0.047221  -0.042638  -0.008323
      8       0.003168  -0.008332  -0.030281  -0.056276  -0.036564   0.041295
      9       0.001493  -0.053521  -0.057637   0.096591   0.061147  -0.042283
     10      -0.000272   0.013142   0.008170  -0.093867  -0.027408  -0.163587
     11       0.001793  -0.019639  -0.012809   0.010161  -0.016001   0.093502
     12       0.001157  -0.052813  -0.062769   0.111576   0.080213  -0.044578
     13       0.001781   0.084771  -0.119375  -0.103054  -0.004341  -0.179791
     14      -0.000079  -0.047481   0.028837   0.086908   0.048422   0.091300
     15       0.001120  -0.050138  -0.062497   0.064929   0.028910  -0.035753
     16       0.000020   0.127701  -0.183326   0.018312   0.005082  -0.023381
     17      -0.000863  -0.063728   0.049504   0.097381   0.096276   0.030977
     18       0.000081  -0.047611  -0.047396  -0.060184  -0.110831  -0.012451
     19      -0.003847   0.024581   0.049295   0.260133  -0.035368   0.271839
     20      -0.000240  -0.022590  -0.025487  -0.093994  -0.000728  -0.062968
     21       0.007933  -0.056996  -0.052756   0.135703   0.093130  -0.050870
     22      -0.001229  -0.020417   0.058405  -0.192943  -0.031195  -0.276848
     23      -0.004646  -0.006418  -0.032007  -0.000093  -0.046672   0.135577
     24       0.001430  -0.049472  -0.065274   0.077048   0.042021  -0.037545
     25      -0.002577   0.175172  -0.275557   0.010713   0.019694  -0.037569
     26       0.001386  -0.082423   0.079384   0.152823   0.145223   0.029595
     27      -0.015902  -0.042070  -0.044203   0.016830  -0.000024  -0.039147
     28       0.039372  -0.151611   0.053046   0.041472  -0.131291  -0.024454
     29      -0.004934   0.038929  -0.009257  -0.095843  -0.135355   0.076239
     30      -0.205273   0.085149   0.268106  -0.102348   0.075592   0.107030
     31      -0.246622  -0.153929   0.016817  -0.157606   0.152070   0.025420
     32      -0.816175   0.088325  -0.072055  -0.124093   0.133512  -0.104527
     33      -0.010129  -0.049427  -0.052440   0.019585  -0.001850  -0.036428
     34      -0.000737  -0.132113   0.022425   0.012673  -0.151328   0.002017
     35       0.000877  -0.005588  -0.025244  -0.074421  -0.106359   0.078402
     36      -0.009257  -0.110410  -0.035539   0.051707  -0.000403  -0.066234
     37       0.002460  -0.143768   0.010592  -0.006725  -0.170686   0.014009
     38       0.012889  -0.099940  -0.038253  -0.091038  -0.157179   0.078499
     39      -0.004665  -0.054954  -0.066585   0.032732   0.009952  -0.030983
     40      -0.002222  -0.195116   0.009165  -0.015120  -0.201379   0.011460
     41      -0.001115   0.048992  -0.014201  -0.051206  -0.060400   0.070888
     42      -0.051005  -0.007578   0.032829   0.014045   0.017304  -0.055938
     43       0.361371  -0.132613   0.119868   0.160370  -0.302862  -0.060957
     44      -0.226602   0.038997  -0.054393  -0.194080   0.033879   0.092128
     45       0.015754   0.106614   0.439209  -0.040149   0.003330  -0.059249
     46      -0.037791  -0.192388   0.045488  -0.131245   0.008639   0.059484
     47       0.018910   0.122198  -0.059294  -0.029891   0.028400  -0.114399
     48       0.005824   0.081155   0.104288  -0.092131   0.048185   0.274271
     49       0.081596  -0.094158   0.055262  -0.195862   0.294304  -0.009403
     50       0.054803   0.108744   0.115301   0.004290  -0.053913  -0.274016
     51       0.008936  -0.046007  -0.041486   0.025952  -0.038334  -0.028047
     52      -0.072046  -0.067972   0.137824   0.094094  -0.111394  -0.050759
     53       0.045552   0.008941  -0.051824  -0.133771  -0.080614   0.073889
     54      -0.001568  -0.062411  -0.043292   0.005117  -0.078920  -0.012662
     55      -0.051673  -0.051825   0.158779   0.095154  -0.062063  -0.057084
     56       0.021910  -0.005262  -0.066395  -0.140326  -0.118665   0.083001
     57       0.011142   0.075302   0.100846  -0.094589   0.056071   0.257278
     58       0.058620  -0.121872  -0.023144  -0.197395   0.298009  -0.000193
     59       0.005080   0.109079   0.053246   0.014444  -0.088692  -0.179869
     60       0.009877   0.120174   0.502447  -0.050870   0.021693  -0.110380
     61      -0.112967  -0.189619   0.081018  -0.240948   0.111148   0.086091
     62       0.071869   0.142659   0.018380   0.046863  -0.029830  -0.223765
     63      -0.003003   0.032294  -0.070418  -0.039143  -0.039758   0.001899
     64       0.000796   0.010492   0.027999   0.036304  -0.063030   0.009172
     65       0.000474  -0.010225  -0.012732  -0.021841  -0.040630   0.052210
     66      -0.006734  -0.014780  -0.082558  -0.091993  -0.135952   0.023615
     67       0.002506   0.040984   0.035956   0.052069  -0.042191   0.001974
     68      -0.001498  -0.041345  -0.020652  -0.040588  -0.068011   0.060284
     69      -0.001382   0.135630  -0.079868  -0.060332   0.000763   0.029601
     70       0.000595  -0.010883   0.032821   0.043915  -0.077475  -0.000085
     71       0.002600   0.045668  -0.009787  -0.024126  -0.035296   0.057409
     72       0.001182  -0.045187  -0.052681  -0.034652  -0.079029  -0.016639
     73       0.000466   0.139391  -0.166028   0.228843   0.007474   0.272313
     74      -0.000413  -0.068841   0.041747   0.040400   0.115194  -0.078698
     75       0.001418  -0.053970  -0.064884   0.160728   0.130722  -0.052901
     76       0.002247   0.104139  -0.164756  -0.201511   0.003937  -0.306480
     77      -0.000257  -0.054558   0.044069   0.136154   0.060409   0.133055
     78      -0.001517   0.037082  -0.065980  -0.015555  -0.001485  -0.012046
     79       0.000552   0.141613   0.021740   0.030149   0.025593   0.034786
     80      -0.000209  -0.046126   0.014060   0.077246   0.072933  -0.014595
     81      -0.001383  -0.057202  -0.057811   0.009710  -0.040404  -0.038443
     82       0.000919   0.169709   0.019462   0.026446   0.037642   0.046620
     83       0.000751  -0.069552   0.016067   0.093045   0.065156  -0.010369
     84      -0.001295   0.079458  -0.053987   0.035016   0.106774  -0.040341
     85      -0.000267   0.136262   0.017908   0.023091   0.000207   0.053950
     86       0.000460  -0.037753   0.018246   0.087708   0.105215  -0.033516
     87      -0.000904   0.108315  -0.089639  -0.092558  -0.056357   0.046059
     88       0.000464   0.236172   0.024980   0.037362   0.130443   0.017001
     89       0.000068  -0.060566   0.032487   0.138160   0.158230  -0.066224
     90      -0.001086   0.104127  -0.084251  -0.075022  -0.034680   0.033522
     91       0.001042   0.286629   0.020120   0.026359   0.152572   0.032939
     92      -0.000618  -0.090214   0.051833   0.199989   0.224592  -0.113014
     93      -0.000723   0.175986  -0.099592  -0.120736  -0.039388   0.070065
     94       0.000654   0.227662   0.027840   0.043511   0.136839   0.006392
     95       0.000706  -0.020921   0.031098   0.128782   0.190887  -0.072577
     96      -0.001012   0.092375  -0.102829  -0.136515  -0.131862   0.075858
     97       0.000788   0.258778   0.029421   0.046901   0.174758  -0.001507
     98      -0.000107  -0.080368   0.028176   0.128088   0.117259  -0.049263
                 12         13         14         15         16         17    
      0      -0.027147  -0.016469  -0.017129  -0.011256  -0.012712  -0.009925
      1      -0.149225   0.022747  -0.023888  -0.014306   0.000365  -0.004504
      2       0.096205   0.006605   0.004762   0.024488   0.028540   0.012911
      3      -0.031094  -0.025845  -0.014584  -0.014906  -0.037006  -0.002453
      4      -0.044558  -0.072748   0.094317  -0.002014  -0.053941   0.019424
      5       0.023774   0.007770  -0.040451   0.000828  -0.058966   0.029290
      6      -0.005075  -0.005478  -0.008763  -0.002464   0.012593  -0.004600
      7       0.095124  -0.104229   0.112902   0.015099  -0.064495   0.024633
      8      -0.055232  -0.002391  -0.051568  -0.018535  -0.112922   0.032078
      9       0.027058   0.021576  -0.009445   0.013364   0.108221  -0.040020
     10       0.159379  -0.076092   0.084690   0.038232  -0.055309   0.029843
     11      -0.067500  -0.002302  -0.041910  -0.021447  -0.088515   0.024523
     12       0.033295   0.032720  -0.012256   0.018188   0.140802  -0.047932
     13       0.080787   0.017221  -0.026540   0.030965   0.015112   0.019011
     14      -0.003105  -0.003934   0.001744   0.000270  -0.011313   0.006451
     15       0.004443   0.013621  -0.018375   0.004993   0.081528  -0.037938
     16      -0.083590   0.077317  -0.103710  -0.001634   0.048961  -0.004822
     17       0.080453  -0.004355   0.033825   0.024664   0.039294   0.003924
     18      -0.059919  -0.047998  -0.017848  -0.028101  -0.098819   0.006528
     19      -0.092909  -0.104673   0.139577  -0.012445  -0.074634   0.020857
     20       0.031943   0.012646  -0.057907   0.000559  -0.069980   0.031233
     21       0.047041   0.033334  -0.006958   0.021419   0.156107  -0.063548
     22       0.261316  -0.112287   0.126069   0.056958  -0.089920   0.047916
     23      -0.117880  -0.003371  -0.056647  -0.035083  -0.127495   0.043388
     24       0.008844   0.020660  -0.020125   0.007779   0.098853  -0.042167
     25      -0.154480   0.156761  -0.209141  -0.013714   0.104235  -0.019878
     26       0.131197  -0.010370   0.073834   0.041909   0.088560  -0.008077
     27      -0.022478  -0.017051  -0.004364  -0.014603  -0.080445  -0.002980
     28       0.031053  -0.057172  -0.033606  -0.018395  -0.007057  -0.077008
     29      -0.021190  -0.026062   0.006526   0.009101   0.027783   0.056117
     30       0.041615   0.055622  -0.052676  -0.002157   0.015727   0.045504
     31      -0.089742   0.003879  -0.001400  -0.018238   0.014138  -0.070602
     32      -0.008953   0.072267  -0.033588  -0.038338   0.012937   0.051062
     33      -0.026015  -0.005499   0.001901  -0.002355  -0.044700   0.041027
     34       0.040560   0.066566  -0.164700  -0.000207   0.086065   0.209387
     35      -0.028435  -0.027600   0.064764   0.043450   0.165493   0.046510
     36      -0.030867  -0.115831   0.019577   0.012705  -0.037637  -0.086374
     37       0.038010   0.072058  -0.262311   0.031691   0.140371   0.357518
     38      -0.040352  -0.125266  -0.173468   0.139905   0.310497   0.300649
     39      -0.022333   0.067802  -0.021706   0.020528   0.066918   0.162613
     40       0.034037  -0.014680  -0.363612   0.074079   0.181049   0.423195
     41      -0.023856   0.045508   0.236681  -0.020558   0.084290  -0.136196
     42      -0.039687  -0.041048   0.026618  -0.024798  -0.150003  -0.055627
     43       0.078917  -0.120266  -0.008418  -0.022482  -0.021492  -0.229308
     44      -0.050565   0.029932  -0.010716   0.011016   0.026649   0.218339
     45      -0.185968   0.051770  -0.020859   0.012123   0.035150   0.048878
     46      -0.121562  -0.022778  -0.062916  -0.028479   0.005153  -0.283263
     47       0.139278   0.018844  -0.026386  -0.042442   0.004178  -0.047249
     48       0.384194   0.022739  -0.105862  -0.027680  -0.018878  -0.083751
     49      -0.070800   0.021972   0.047186  -0.010106   0.016385   0.054460
     50      -0.198377   0.020544   0.002763  -0.022810   0.032734  -0.061682
     51      -0.001262  -0.012361  -0.005256  -0.002477   0.013127  -0.001685
     52       0.116351  -0.101085   0.068089   0.001384  -0.020622   0.036290
     53      -0.083885  -0.012800  -0.037217  -0.015408  -0.088903   0.006501
     54      -0.005180   0.000274  -0.022856   0.003023   0.102051  -0.004621
     55       0.127863  -0.079995   0.073399   0.009505   0.024103   0.170570
     56      -0.091896  -0.021849  -0.045022  -0.018616  -0.094229  -0.074184
     57       0.347176   0.023402  -0.090608  -0.022913  -0.014402  -0.055323
     58      -0.068999   0.013371   0.072911  -0.004246   0.018006   0.103846
     59      -0.013753   0.008040  -0.046350  -0.040219   0.012426  -0.152179
     60      -0.274732   0.068845  -0.004935   0.023428   0.059219   0.113965
     61      -0.205525   0.028649  -0.063817  -0.008585   0.055873  -0.151008
     62       0.060619   0.003216   0.001233  -0.040552   0.001107  -0.052483
     63      -0.033332   0.024463   0.058508  -0.021668  -0.103403   0.051483
     64       0.050843   0.274882   0.105020  -0.103464  -0.024546   0.024034
     65      -0.024348   0.031460   0.143443   0.018496   0.159522  -0.031377
     66      -0.015924   0.080637   0.126690  -0.169632  -0.028241   0.113272
     67       0.070131   0.422670   0.287609  -0.261101  -0.057360  -0.054122
     68      -0.039260  -0.091656  -0.009163   0.139744   0.193780   0.043290
     69      -0.057255  -0.007245   0.070880   0.088479  -0.143767  -0.019742
     70       0.068652   0.354235   0.188648  -0.221238  -0.021291   0.017831
     71      -0.002065   0.213337   0.380365  -0.178224   0.120379  -0.123404
     72      -0.046945  -0.032989  -0.018166  -0.021288  -0.069537   0.006453
     73      -0.269513   0.056936  -0.060025  -0.033164   0.014527  -0.021048
     74       0.157547   0.011897   0.018111   0.041190   0.082017   0.001541
     75       0.061487   0.054013  -0.007829   0.031947   0.207112  -0.059600
     76       0.133870   0.046610  -0.062733   0.045946   0.038162   0.026722
     77      -0.013253  -0.007958   0.015771  -0.000907   0.000079   0.000372
     78      -0.041694  -0.000986   0.027503   0.024799  -0.150504   0.048047
     79       0.001259   0.104532  -0.013956   0.186394  -0.061070  -0.069357
     80      -0.026619   0.016482   0.043119   0.071181   0.003158  -0.017456
     81      -0.008882   0.143331   0.064388  -0.057466  -0.218536   0.091342
     82      -0.011061   0.080742  -0.047648   0.331520  -0.087288  -0.116534
     83      -0.025432   0.105401  -0.008221   0.370199  -0.139650  -0.096908
     84      -0.066605  -0.104252  -0.094471   0.145644  -0.259639   0.033112
     85      -0.000264   0.166654  -0.033169   0.434965  -0.130213  -0.147106
     86      -0.027948  -0.046596   0.046933  -0.129120   0.051001   0.048015
     87      -0.063194  -0.093388   0.120594   0.018639   0.057447   0.004553
     88      -0.032334  -0.156787  -0.065669  -0.080841   0.071717   0.010971
     89      -0.025826  -0.023658  -0.045796  -0.035025  -0.104931   0.053599
     90      -0.062389  -0.094571   0.090577   0.023332   0.012546   0.010545
     91      -0.052681  -0.233439  -0.079584   0.008701   0.096015  -0.044066
     92      -0.017087  -0.003769  -0.142478  -0.046973  -0.263659   0.090951
     93      -0.089136  -0.215381   0.131803   0.029725   0.159275  -0.030696
     94      -0.028231  -0.165345  -0.067964  -0.170114   0.083733   0.051784
     95      -0.038642  -0.159030  -0.041682  -0.264384   0.021306   0.130527
     96      -0.055295  -0.038110   0.210698   0.001117   0.156600  -0.000135
     97      -0.039867  -0.260177  -0.087347  -0.276591   0.132388   0.086574
     98      -0.019069   0.065992  -0.023307   0.128865  -0.151263  -0.010304
                 18         19         20         21         22         23    
      0      -0.181391   0.000827  -0.024735  -0.001069   0.001708   0.068843
      1       0.017788   0.043536  -0.047249   0.003851  -0.189127  -0.017690
      2       0.055649  -0.014984   0.021826   0.001332   0.062667  -0.052900
      3      -0.189846  -0.008199  -0.039645  -0.000976   0.012773   0.053706
      4      -0.025144   0.151621  -0.060096   0.002198   0.205368  -0.027475
      5      -0.027640  -0.097323  -0.052905   0.002082  -0.062937  -0.022236
      6      -0.085997   0.000459  -0.020609   0.000106   0.001719  -0.041570
      7      -0.049384   0.027171   0.001441  -0.001564  -0.006166   0.032512
      8      -0.106021  -0.061625  -0.090236   0.002394   0.018726   0.035169
      9      -0.064766   0.045832   0.039689  -0.000725  -0.007443   0.052183
     10      -0.052579   0.158685  -0.094847   0.006278  -0.186283   0.029823
     11      -0.095743  -0.096787  -0.045854  -0.000348   0.079956   0.061789
     12      -0.044940   0.056718   0.069930  -0.001064  -0.002127   0.057425
     13      -0.000702   0.025583  -0.007011   0.004448   0.200153  -0.008451
     14      -0.008862  -0.011807  -0.004515   0.000334  -0.070257   0.033507
     15      -0.125509   0.034392   0.041802  -0.001760  -0.000936   0.120564
     16       0.044382  -0.169413   0.075924  -0.000761  -0.014010  -0.002356
     17       0.063135   0.075494  -0.000598   0.002764  -0.003174  -0.041418
     18      -0.287135  -0.021556  -0.075659  -0.001575   0.029545   0.132921
     19      -0.040975   0.239280  -0.086671   0.002381   0.459255  -0.049214
     20      -0.053219  -0.132280  -0.053882   0.001809  -0.149082   0.012544
     21      -0.031956   0.067058   0.080995  -0.001300  -0.020496   0.077740
     22      -0.070831   0.246071  -0.173412   0.010418  -0.427322   0.034542
     23      -0.121192  -0.144383  -0.066280  -0.000902   0.163988   0.030984
     24      -0.108099   0.035203   0.053733  -0.001825  -0.002345   0.115782
     25       0.087862  -0.389650   0.178722  -0.004942  -0.030833   0.007978
     26       0.114960   0.178814   0.004904   0.004296  -0.001917  -0.058694
     27      -0.005275  -0.037554  -0.077768   0.001761   0.001305  -0.155299
     28       0.036516  -0.126809   0.009829  -0.000172  -0.018859  -0.082834
     29      -0.084454   0.076361   0.212718  -0.004539  -0.011120   0.068518
     30      -0.022110  -0.020792  -0.029751   0.003138  -0.001654  -0.031197
     31       0.004590  -0.017230   0.002816  -0.001048  -0.003248  -0.037934
     32      -0.086675   0.002216  -0.105898   0.003735  -0.022859  -0.146061
     33       0.084889  -0.024751  -0.101417   0.003656   0.003074  -0.177394
     34       0.097386   0.061274  -0.078716   0.009883   0.005457   0.045076
     35       0.012316   0.029185   0.092774  -0.001540  -0.014543  -0.111221
     36       0.055644  -0.161452  -0.121652  -0.001558  -0.009493  -0.308261
     37       0.157694   0.156742  -0.127257   0.011914   0.016357   0.090611
     38       0.142751   0.136537  -0.058589  -0.001287   0.001430  -0.124533
     39       0.154526   0.035635  -0.254573   0.011240   0.017479  -0.230158
     40       0.192802   0.168505  -0.147399   0.008645   0.015425   0.075036
     41      -0.069012  -0.062270   0.147136  -0.000218  -0.022404  -0.137133
     42      -0.041843  -0.085665  -0.043476  -0.001434  -0.003316  -0.141212
     43       0.083119  -0.158632   0.112326  -0.005513  -0.032366  -0.068200
     44      -0.131589   0.079433   0.110570  -0.000064   0.005672   0.063729
     45      -0.008696  -0.006414  -0.011718   0.002556   0.001269  -0.011634
     46       0.103363   0.081036   0.015784  -0.002155   0.017843   0.032009
     47       0.016133   0.006558  -0.031351  -0.001970  -0.006379  -0.018624
     48       0.052882  -0.030337  -0.028722   0.000741   0.001962   0.009953
     49      -0.004041  -0.049958  -0.016746  -0.001931   0.005866   0.020965
     50       0.016690   0.072899   0.017956  -0.002873   0.011364   0.033370
     51      -0.023248  -0.007060   0.008952  -0.000116  -0.003925  -0.116164
     52      -0.017527  -0.219340   0.148762  -0.007904  -0.014223   0.046075
     53      -0.077135   0.082401   0.017487   0.001421  -0.001777  -0.017733
     54      -0.010837   0.021225   0.131300  -0.002156  -0.013346  -0.115664
     55      -0.045878  -0.305860   0.258310  -0.012231   0.021896   0.175553
     56      -0.060482   0.143849  -0.022707   0.003710  -0.025870  -0.094956
     57       0.036119  -0.027311  -0.011953   0.000474   0.000961   0.005782
     58      -0.045501  -0.053363   0.035290  -0.002947  -0.003844  -0.008984
     59       0.057817   0.054197  -0.011838  -0.002642   0.006984   0.025071
     60      -0.035403   0.011039  -0.019253   0.004266  -0.015174   0.000473
     61       0.039922   0.175270  -0.023660   0.003526  -0.022411   0.086381
     62       0.026283  -0.046089  -0.009145  -0.004042   0.001177  -0.045407
     63       0.135674   0.049395   0.131165  -0.000801  -0.011214  -0.071113
     64      -0.010036   0.018848  -0.023204   0.017401   0.004963   0.051594
     65      -0.012074  -0.056439  -0.067446   0.005418  -0.002908  -0.134903
     66       0.146669   0.089251   0.204461   0.037097  -0.019778  -0.142075
     67      -0.056086  -0.014953  -0.027439   0.053677   0.008725   0.073032
     68       0.029417  -0.022188  -0.054038  -0.021938  -0.006983  -0.156941
     69       0.098547   0.057398   0.231259  -0.032985  -0.021364  -0.134760
     70      -0.016605   0.007267  -0.040325   0.046797   0.008013   0.074477
     71      -0.068385  -0.074940  -0.000476   0.048455  -0.005522  -0.134651
     72      -0.217272  -0.023866  -0.070025  -0.000605   0.004901   0.045206
     73       0.029341   0.065545  -0.079634   0.005811  -0.395528  -0.009555
     74       0.087765   0.003163   0.079278   0.000172   0.130255  -0.029216
     75       0.044575   0.080012   0.111044  -0.000550  -0.008691  -0.013617
     76       0.010996   0.023809  -0.003743   0.006522   0.419799  -0.033506
     77       0.014047  -0.004668   0.006113  -0.000228  -0.148952   0.019936
     78       0.187470   0.039675   0.124306  -0.010093  -0.007676   0.035285
     79      -0.071325  -0.003051   0.011480  -0.040996  -0.002708  -0.042808
     80       0.075207  -0.064281  -0.120351  -0.006633   0.012200   0.127967
     81       0.225324   0.078433   0.161914  -0.009362  -0.007477   0.081396
     82      -0.092119  -0.021526   0.007843  -0.055107  -0.003648  -0.057937
     83       0.058462  -0.069208  -0.084009  -0.045820   0.009168   0.128017
     84       0.205617   0.055864   0.183231  -0.020118  -0.009994   0.081681
     85      -0.098334  -0.030165  -0.000072  -0.070728  -0.003077  -0.049878
     86       0.099622  -0.038102  -0.101753   0.018637   0.011955   0.134904
     87       0.204404  -0.084132  -0.105928   0.005455   0.011600   0.191645
     88      -0.055404   0.006126   0.006729   0.008363  -0.002587  -0.054969
     89       0.097799   0.029668   0.049279   0.002479  -0.000344   0.070175
     90       0.194619  -0.057136  -0.034015   0.101220   0.006254   0.139773
     91      -0.065766  -0.055719  -0.003961   0.565494   0.006135   0.005636
     92       0.067809   0.140467   0.295973   0.152505  -0.021193  -0.125313
     93       0.212359  -0.166322  -0.200105   0.382438   0.025506   0.305135
     94      -0.046166   0.037150   0.011028  -0.245650  -0.006660  -0.083465
     95       0.129241   0.037333  -0.025623  -0.332756   0.001446   0.095877
     96       0.232332  -0.136031  -0.296075  -0.451215   0.023098   0.311466
     97      -0.035135   0.042983   0.007845  -0.248932  -0.006470  -0.080576
     98       0.081796  -0.003736   0.039625   0.197471   0.003429   0.096398
                 24         25         26         27         28         29    
      0       0.035833  -0.014195  -0.025519   0.005616  -0.016111  -0.209310
      1      -0.039359  -0.140874   0.039332   0.003979   0.007967  -0.036156
      2      -0.000870   0.059441   0.043051  -0.010572   0.002186  -0.116432
      3       0.047190  -0.011922  -0.018873   0.001562  -0.001601  -0.123782
      4       0.004525   0.024959  -0.007122  -0.009115   0.016196   0.062480
      5       0.078057  -0.024285   0.009792  -0.006348   0.046049   0.163845
[...]
     17       0.002046  -0.000010  -0.000008
     18      -0.009992   0.000148  -0.000058
     19       0.013278  -0.000451  -0.000034
     20       0.036855  -0.001330  -0.000007
     21      -0.644561  -0.000256  -0.000852
     22      -0.189586   0.000021  -0.000012
     23      -0.646496  -0.000800  -0.001420
     24       0.130412   0.000031  -0.000145
     25      -0.013389  -0.000029  -0.000002
     26      -0.029294  -0.000106  -0.000054
     27      -0.000064   0.000020   0.000161
     28      -0.000033   0.000047  -0.000159
     29      -0.000351  -0.000118  -0.000066
     30      -0.000038   0.006572  -0.015295
     31      -0.000019  -0.002449   0.005721
     32       0.000869  -0.000802   0.003654
     33      -0.000022  -0.000008  -0.000001
     34      -0.000072   0.000020  -0.000190
     35      -0.000021  -0.000097   0.000104
     36       0.000188  -0.001090   0.002324
     37       0.000553  -0.001010   0.001749
     38      -0.000031   0.000002  -0.001379
     39       0.000517  -0.000002   0.000168
     40      -0.000618   0.000860  -0.000302
     41      -0.000560   0.000786  -0.000694
     42      -0.004214  -0.000966  -0.004934
     43      -0.000851  -0.000129   0.001805
     44      -0.000707   0.000499   0.004693
     45       0.000185  -0.017263  -0.045311
     46       0.000011   0.009071   0.023977
     47      -0.000112   0.010266   0.027349
     48       0.000114  -0.898309   0.335652
     49       0.000247   0.178497  -0.065926
     50       0.000023  -0.187526   0.071356
     51       0.000060   0.000146  -0.000365
     52       0.001175  -0.000067   0.000050
     53       0.001960   0.000048   0.000010
     54       0.004340   0.000229   0.000482
     55      -0.012357   0.000338  -0.000680
     56      -0.020059   0.000278  -0.000781
     57      -0.000015   0.056260  -0.020733
     58      -0.000056  -0.011150   0.004039
     59       0.000000   0.011880  -0.004485
     60      -0.001795   0.273873   0.730334
     61       0.000035  -0.143134  -0.383266
     62       0.000538  -0.162928  -0.439807
     63       0.000001  -0.000004   0.000024
     64      -0.000043   0.000003  -0.000061
     65      -0.000005   0.000004  -0.000038
     66       0.000024   0.000035  -0.000145
     67       0.000084   0.000002   0.000550
     68       0.000149   0.000125   0.000875
     69       0.000058   0.000072  -0.000161
     70       0.000411  -0.000168   0.000412
     71      -0.000106   0.000192  -0.000281
     72       0.049764   0.000104  -0.000020
     73       0.016696  -0.000000  -0.000039
     74       0.048940  -0.000024  -0.000053
     75       0.084096   0.000035   0.000014
     76      -0.099641  -0.000064  -0.000135
     77      -0.284831  -0.000102  -0.000171
     78       0.000034   0.000003  -0.000000
     79      -0.000015   0.000017  -0.000042
     80      -0.000078  -0.000006   0.000025
     81      -0.000165  -0.000089   0.000322
     82      -0.000460  -0.000167   0.000532
     83       0.000163   0.000065  -0.000220
     84      -0.000115  -0.000003  -0.000042
     85       0.000684   0.000092  -0.000083
     86       0.000821   0.000102  -0.000127
     87       0.000028  -0.000001   0.000002
     88      -0.000019   0.000017  -0.000015
     89      -0.000018  -0.000000   0.000022
     90      -0.000416   0.000084  -0.000184
     91       0.000045  -0.000005   0.000050
     92       0.000130   0.000015  -0.000036
     93       0.000052  -0.000001  -0.000000
     94       0.000133  -0.000055   0.000190
     95      -0.000038   0.000055  -0.000112
     96       0.000021   0.000002  -0.000019
     97       0.000075   0.000018   0.000021
     98       0.000113   0.000031   0.000011


-----------
IR SPECTRUM  
-----------

 Mode    freq (cm**-1)   T**2         TX         TY         TZ
-------------------------------------------------------------------
   7:        66.33    0.000000  (  0.000000   0.000000   0.000000)
   8:        86.09    0.000000  (  0.000000   0.000000   0.000000)
   9:        93.53    0.000000  (  0.000000   0.000000   0.000000)
  10:        96.87    0.000000  (  0.000000   0.000000   0.000000)
  11:       111.80    0.000000  (  0.000000   0.000000   0.000000)
  12:       129.61    0.000000  (  0.000000   0.000000   0.000000)
  13:       155.37    0.000000  (  0.000000   0.000000   0.000000)
  14:       176.11    0.000000  (  0.000000   0.000000   0.000000)
  15:       189.75    0.000000  (  0.000000   0.000000   0.000000)
  16:       199.49    0.000000  (  0.000000   0.000000   0.000000)
  17:       231.38    0.000000  (  0.000000   0.000000   0.000000)
  18:       262.41    0.000000  (  0.000000   0.000000   0.000000)
  19:       287.04    0.000000  (  0.000000   0.000000   0.000000)
  20:       338.04    0.000000  (  0.000000   0.000000   0.000000)
  21:       355.20    0.000000  (  0.000000   0.000000   0.000000)
  22:       396.87    0.000000  (  0.000000   0.000000   0.000000)
  23:       426.40    0.000000  (  0.000000   0.000000   0.000000)
  24:       456.24    0.000000  (  0.000000   0.000000   0.000000)
  25:       506.81    0.000000  (  0.000000   0.000000   0.000000)
  26:       509.52    0.000000  (  0.000000   0.000000   0.000000)
  27:       539.86    0.000000  (  0.000000   0.000000   0.000000)
  28:       576.70    0.000000  (  0.000000   0.000000   0.000000)
  29:       587.82    0.000000  (  0.000000   0.000000   0.000000)
  30:       590.46    0.000000  (  0.000000   0.000000   0.000000)
  31:       610.25    0.000000  (  0.000000   0.000000   0.000000)
  32:       673.77    0.000000  (  0.000000   0.000000   0.000000)
  33:       689.20    0.000000  (  0.000000   0.000000   0.000000)
  34:       776.94    0.000000  (  0.000000   0.000000   0.000000)
  35:       804.51    0.000000  (  0.000000   0.000000   0.000000)
  36:       808.87    0.000000  (  0.000000   0.000000   0.000000)
  37:       840.11    0.000000  (  0.000000   0.000000   0.000000)
  38:       863.51    0.000000  (  0.000000   0.000000   0.000000)
  39:       886.23    0.000000  (  0.000000   0.000000   0.000000)
  40:       892.40    0.000000  (  0.000000   0.000000   0.000000)
  41:       926.02    0.000000  (  0.000000   0.000000   0.000000)
  42:       938.30    0.000000  (  0.000000   0.000000   0.000000)
  43:       944.66    0.000000  (  0.000000   0.000000   0.000000)
  44:       946.83    0.000000  (  0.000000   0.000000   0.000000)
  45:       954.23    0.000000  (  0.000000   0.000000   0.000000)
  46:       962.40    0.000000  (  0.000000   0.000000   0.000000)
  47:       973.92    0.000000  (  0.000000   0.000000   0.000000)
  48:      1021.14    0.000000  (  0.000000   0.000000   0.000000)
  49:      1049.52    0.000000  (  0.000000   0.000000   0.000000)
  50:      1058.76    0.000000  (  0.000000   0.000000   0.000000)
  51:      1081.51    0.000000  (  0.000000   0.000000   0.000000)
  52:      1111.60    0.000000  (  0.000000   0.000000   0.000000)
  53:      1124.04    0.000000  (  0.000000   0.000000   0.000000)
  54:      1132.31    0.000000  (  0.000000   0.000000   0.000000)
  55:      1182.65    0.000000  (  0.000000   0.000000   0.000000)
  56:      1185.19    0.000000  (  0.000000   0.000000   0.000000)
  57:      1207.75    0.000000  (  0.000000   0.000000   0.000000)
  58:      1214.87    0.000000  (  0.000000   0.000000   0.000000)
  59:      1239.59    0.000000  (  0.000000   0.000000   0.000000)
  60:      1253.25    0.000000  (  0.000000   0.000000   0.000000)
  61:      1260.62    0.000000  (  0.000000   0.000000   0.000000)
  62:      1264.03    0.000000  (  0.000000   0.000000   0.000000)
  63:      1281.47    0.000000  (  0.000000   0.000000   0.000000)
  64:      1283.62    0.000000  (  0.000000   0.000000   0.000000)
  65:      1304.97    0.000000  (  0.000000   0.000000   0.000000)
  66:      1340.04    0.000000  (  0.000000   0.000000   0.000000)
  67:      1348.99    0.000000  (  0.000000   0.000000   0.000000)
  68:      1372.39    0.000000  (  0.000000   0.000000   0.000000)
  69:      1403.83    0.000000  (  0.000000   0.000000   0.000000)
  70:      1433.55    0.000000  (  0.000000   0.000000   0.000000)
  71:      1435.68    0.000000  (  0.000000   0.000000   0.000000)
  72:      1456.37    0.000000  (  0.000000   0.000000   0.000000)
  73:      1502.98    0.000000  (  0.000000   0.000000   0.000000)
  74:      1509.51    0.000000  (  0.000000   0.000000   0.000000)
  75:      1511.63    0.000000  (  0.000000   0.000000   0.000000)
  76:      1514.32    0.000000  (  0.000000   0.000000   0.000000)
  77:      1518.10    0.000000  (  0.000000   0.000000   0.000000)
  78:      1526.96    0.000000  (  0.000000   0.000000   0.000000)
  79:      1544.56    0.000000  (  0.000000   0.000000   0.000000)
  80:      1559.01    0.000000  (  0.000000   0.000000   0.000000)
  81:      2623.20    0.000000  (  0.000000   0.000000   0.000000)
  82:      2877.42    0.000000  (  0.000000   0.000000   0.000000)
  83:      2890.50    0.000000  (  0.000000   0.000000   0.000000)
  84:      2899.59    0.000000  (  0.000000   0.000000   0.000000)
  85:      2900.72    0.000000  (  0.000000   0.000000   0.000000)
  86:      2910.26    0.000000  (  0.000000   0.000000   0.000000)
  87:      2914.85    0.000000  (  0.000000   0.000000   0.000000)
  88:      2921.26    0.000000  (  0.000000   0.000000   0.000000)
  89:      2933.10    0.000000  (  0.000000   0.000000   0.000000)
  90:      2938.88    0.000000  (  0.000000   0.000000   0.000000)
  91:      2990.38    0.000000  (  0.000000   0.000000   0.000000)
  92:      2992.48    0.000000  (  0.000000   0.000000   0.000000)
  93:      2994.39    0.000000  (  0.000000   0.000000   0.000000)
  94:      3000.25    0.000000  (  0.000000   0.000000   0.000000)
  95:      3007.30    0.000000  (  0.000000   0.000000   0.000000)
  96:      3017.41    0.000000  (  0.000000   0.000000   0.000000)
  97:      3454.22    0.000000  (  0.000000   0.000000   0.000000)
  98:      3460.91    0.000000  (  0.000000   0.000000   0.000000)

The first frequency considered to be a vibration is 7
The total number of vibrations considered is 92


--------------------------
THERMOCHEMISTRY AT 298.15K
--------------------------

Temperature         ... 298.15 K
Pressure            ... 1.00 atm
Total Mass          ... 197.28 AMU

Throughout the following assumptions are being made:
  (1) The electronic state is orbitally nondegenerate
  (2) There are no thermally accessible electronically excited states
  (3) Hindered rotations indicated by low frequency modes are not
      treated as such but are treated as vibrations and this may
      cause some error
  (4) All equations used are the standard statistical mechanics
      equations for an ideal gas
  (5) All vibrations are strictly harmonic

freq.      66.33  E(vib)   ...       0.50 
freq.      86.09  E(vib)   ...       0.48 
freq.      93.53  E(vib)   ...       0.47 
freq.      96.87  E(vib)   ...       0.46 
freq.     111.80  E(vib)   ...       0.45 
freq.     129.61  E(vib)   ...       0.43 
freq.     155.37  E(vib)   ...       0.40 
freq.     176.11  E(vib)   ...       0.38 
freq.     189.75  E(vib)   ...       0.36 
freq.     199.49  E(vib)   ...       0.35 
freq.     231.38  E(vib)   ...       0.32 
freq.     262.41  E(vib)   ...       0.29 
freq.     287.04  E(vib)   ...       0.27 
freq.     338.04  E(vib)   ...       0.24 
freq.     355.20  E(vib)   ...       0.22 
freq.     396.87  E(vib)   ...       0.20 
freq.     426.40  E(vib)   ...       0.18 
freq.     456.24  E(vib)   ...       0.16 
freq.     506.81  E(vib)   ...       0.14 
freq.     509.52  E(vib)   ...       0.14 
freq.     539.86  E(vib)   ...       0.12 
freq.     576.70  E(vib)   ...       0.11 
freq.     587.82  E(vib)   ...       0.10 
freq.     590.46  E(vib)   ...       0.10 
freq.     610.25  E(vib)   ...       0.10 
freq.     673.77  E(vib)   ...       0.08 
freq.     689.20  E(vib)   ...       0.07 
freq.     776.94  E(vib)   ...       0.05 
freq.     804.51  E(vib)   ...       0.05 
freq.     808.87  E(vib)   ...       0.05 
freq.     840.11  E(vib)   ...       0.04 
freq.     863.51  E(vib)   ...       0.04 
freq.     886.23  E(vib)   ...       0.04 
freq.     892.40  E(vib)   ...       0.03 
freq.     926.02  E(vib)   ...       0.03 
freq.     938.30  E(vib)   ...       0.03 
freq.     944.66  E(vib)   ...       0.03 
freq.     946.83  E(vib)   ...       0.03 
freq.     954.23  E(vib)   ...       0.03 
freq.     962.40  E(vib)   ...       0.03 
freq.     973.92  E(vib)   ...       0.03 
freq.    1021.14  E(vib)   ...       0.02 
freq.    1049.52  E(vib)   ...       0.02 
freq.    1058.76  E(vib)   ...       0.02 
freq.    1081.51  E(vib)   ...       0.02 
freq.    1111.60  E(vib)   ...       0.01 
freq.    1124.04  E(vib)   ...       0.01 
freq.    1132.31  E(vib)   ...       0.01 
freq.    1182.65  E(vib)   ...       0.01 
freq.    1185.19  E(vib)   ...       0.01 
freq.    1207.75  E(vib)   ...       0.01 
freq.    1214.87  E(vib)   ...       0.01 
freq.    1239.59  E(vib)   ...       0.01 
freq.    1253.25  E(vib)   ...       0.01 
freq.    1260.62  E(vib)   ...       0.01 
freq.    1264.03  E(vib)   ...       0.01 
freq.    1281.47  E(vib)   ...       0.01 
freq.    1283.62  E(vib)   ...       0.01 
freq.    1304.97  E(vib)   ...       0.01 
freq.    1340.04  E(vib)   ...       0.01 
freq.    1348.99  E(vib)   ...       0.01 
freq.    1372.39  E(vib)   ...       0.01 
freq.    1403.83  E(vib)   ...       0.00 
freq.    1433.55  E(vib)   ...       0.00 
freq.    1435.68  E(vib)   ...       0.00 
freq.    1456.37  E(vib)   ...       0.00 
freq.    1502.98  E(vib)   ...       0.00 
freq.    1509.51  E(vib)   ...       0.00 
freq.    1511.63  E(vib)   ...       0.00 
freq.    1514.32  E(vib)   ...       0.00 
freq.    1518.10  E(vib)   ...       0.00 
freq.    1526.96  E(vib)   ...       0.00 
freq.    1544.56  E(vib)   ...       0.00 
freq.    1559.01  E(vib)   ...       0.00 
freq.    2623.20  E(vib)   ...       0.00 
freq.    2877.42  E(vib)   ...       0.00 
freq.    2890.50  E(vib)   ...       0.00 
freq.    2899.59  E(vib)   ...       0.00 
freq.    2900.72  E(vib)   ...       0.00 
freq.    2910.26  E(vib)   ...       0.00 
freq.    2914.85  E(vib)   ...       0.00 
freq.    2921.26  E(vib)   ...       0.00 
freq.    2933.10  E(vib)   ...       0.00 
freq.    2938.88  E(vib)   ...       0.00 
freq.    2990.38  E(vib)   ...       0.00 
freq.    2992.48  E(vib)   ...       0.00 
freq.    2994.39  E(vib)   ...       0.00 
freq.    3000.25  E(vib)   ...       0.00 
freq.    3007.30  E(vib)   ...       0.00 
freq.    3017.41  E(vib)   ...       0.00 
freq.    3454.22  E(vib)   ...       0.00 
freq.    3460.91  E(vib)   ...       0.00 

------------
INNER ENERGY
------------

The inner energy is: U= E(el) + E(ZPE) + E(vib) + E(rot) + E(trans)
    E(el)   - is the total energy from the electronic structure calculation
              = E(kin-el) + E(nuc-el) + E(el-el) + E(nuc-nuc)
    E(ZPE)  - the the zero temperature vibrational energy from the frequency calculation
    E(vib)  - the the finite temperature correction to E(ZPE) due to population
              of excited vibrational states
    E(rot)  - is the rotational thermal energy
    E(trans)- is the translational thermal energy

Summary of contributions to the inner energy U:
Electronic energy                ...    -44.23936293 Eh
Zero point energy                ...      0.27070056 Eh     169.87 kcal/mol
Thermal vibrational correction   ...      0.01258090 Eh       7.89 kcal/mol
Thermal rotational correction    ...      0.00141627 Eh       0.89 kcal/mol
Thermal translational correction ...      0.00141627 Eh       0.89 kcal/mol
-----------------------------------------------------------------------
Total thermal energy                    -43.95324892 Eh


Summary of corrections to the electronic energy:
(perhaps to be used in another calculation)
Total thermal correction                  0.01541344 Eh       9.67 kcal/mol
Non-thermal (ZPE) correction              0.27070056 Eh     169.87 kcal/mol
-----------------------------------------------------------------------
Total correction                          0.28611401 Eh     179.54 kcal/mol


--------
ENTHALPY
--------

The enthalpy is H = U + kB*T
                kB is Boltzmann's constant
Total free energy                 ...    -43.95324892 Eh 
Thermal Enthalpy correction       ...      0.00094421 Eh       0.59 kcal/mol
-----------------------------------------------------------------------
Total Enthalpy                    ...    -43.95230471 Eh


Note: Only C1 symmetry has been detected, increase convergence thresholds 
      if your molecule has a higher symmetry. Symmetry factor of 1.0 is   
      used for the rotational entropy correction. 
 

Note: Rotational entropy computed according to Herzberg 
Infrared and Raman Spectra, Chapter V,1, Van Nostrand Reinhold, 1945 
Point Group:  C1, Symmetry Number:   1  
Rotational constants in cm-1:     0.042403     0.008639     0.008381 

Vibrational entropy computed according to the QRRHO of S. Grimme
Chem.Eur.J. 2012 18 9955


-------
ENTROPY
-------

The entropy contributions are T*S = T*(S(el)+S(vib)+S(rot)+S(trans))
     S(el)   - electronic entropy
     S(vib)  - vibrational entropy
     S(rot)  - rotational entropy
     S(trans)- translational entropy
The entropies will be listed as mutliplied by the temperature to get
units of energy

Electronic entropy                ...      0.00000000 Eh      0.00 kcal/mol
Vibrational entropy               ...      0.02177035 Eh     13.66 kcal/mol
Rotational entropy                ...      0.01550346 Eh      9.73 kcal/mol
Translational entropy             ...      0.01983352 Eh     12.45 kcal/mol
-----------------------------------------------------------------------
Final entropy term                ...      0.05710732 Eh     35.84 kcal/mol

In case the symmetry of your molecule has not been determined correctly
or in case you have a reason to use a different symmetry number we print 
out the resulting rotational entropy values for sn=1,12 :
 --------------------------------------------------------
|  sn= 1 | S(rot)=       0.01550346 Eh      9.73 kcal/mol|
|  sn= 2 | S(rot)=       0.01484900 Eh      9.32 kcal/mol|
|  sn= 3 | S(rot)=       0.01446617 Eh      9.08 kcal/mol|
|  sn= 4 | S(rot)=       0.01419454 Eh      8.91 kcal/mol|
|  sn= 5 | S(rot)=       0.01398386 Eh      8.77 kcal/mol|
|  sn= 6 | S(rot)=       0.01381171 Eh      8.67 kcal/mol|
|  sn= 7 | S(rot)=       0.01366617 Eh      8.58 kcal/mol|
|  sn= 8 | S(rot)=       0.01354009 Eh      8.50 kcal/mol|
|  sn= 9 | S(rot)=       0.01342888 Eh      8.43 kcal/mol|
|  sn=10 | S(rot)=       0.01332940 Eh      8.36 kcal/mol|
|  sn=11 | S(rot)=       0.01323941 Eh      8.31 kcal/mol|
|  sn=12 | S(rot)=       0.01315726 Eh      8.26 kcal/mol|
 --------------------------------------------------------


-------------------
GIBBS FREE ENERGY
-------------------

The Gibbs free energy is G = H - T*S

Total enthalpy                    ...    -43.95230471 Eh 
Total entropy correction          ...     -0.05710732 Eh    -35.84 kcal/mol
-----------------------------------------------------------------------
Final Gibbs free energy         ...    -44.00941203 Eh

For completeness - the Gibbs free energy minus the electronic energy
G-E(el)                           ...      0.22995089 Eh    144.30 kcal/mol


Total Time for Numerical Frequencies  :        56.975 sec
Time for Reference State(s)           :         0.094 sec
Time for Displacements                :        50.334 sec

Timings for individual modules:

Sum of individual times         ...        0.208 sec (=   0.003 min)
XTB module                      ...        0.208 sec (=   0.003 min) 100.0 %
                             ****ORCA TERMINATED NORMALLY****
TOTAL RUN TIME: 0 days 0 hours 0 minutes 57 seconds 567 msec
(SLURM) EXECUTION TIME: 57.649735681 seconds.
