
                                 *****************
                                 * O   R   C   A *
                                 *****************

           --- An Ab Initio, DFT and Semiempirical electronic structure package ---

                  #######################################################
                  #                        -***-                        #
                  #          Department of theory and spectroscopy      #
                  #               Directorship: Frank Neese             #
                  #        Max Planck Institute fuer Kohlenforschung    #
                  #                Kaiser Wilhelm Platz 1               #
                  #                 D-45470 Muelheim/Ruhr               #
                  #                      Germany                        #
                  #                                                     #
                  #                  All rights reserved                #
                  #                        -***-                        #
                  #######################################################


                         Program Version 4.2.1 -  RELEASE  -


 With contributions from (in alphabetic order):
   Daniel Aravena         : Magnetic Suceptibility
   Michael Atanasov       : Ab Initio Ligand Field Theory (pilot matlab implementation)
   Alexander A. Auer      : GIAO ZORA, VPT2
   Ute Becker             : Parallelization
   Giovanni Bistoni       : ED, misc. LED, open-shell LED, HFLD
   Martin Brehm           : Molecular dynamics
   Dmytro Bykov           : SCF Hessian
   Vijay G. Chilkuri      : MRCI spin determinant printing, contributions to CSF-ICE
   Dipayan Datta          : RHF DLPNO-CCSD density
   Achintya Kumar Dutta   : EOM-CC, STEOM-CC
   Dmitry Ganyushin       : Spin-Orbit,Spin-Spin,Magnetic field MRCI
   Miquel Garcia          : C-PCM Hessian, Gaussian charge scheme
   Yang Guo               : DLPNO-NEVPT2, CIM, IAO-localization
   Andreas Hansen         : Spin unrestricted coupled pair/coupled cluster methods
   Benjamin Helmich-Paris : CASSCF linear response (MC-RPA)
   Lee Huntington         : MR-EOM, pCC
   Robert Izsak           : Overlap fitted RIJCOSX, COSX-SCS-MP3, EOM
   Christian Kollmar      : KDIIS, OOCD, Brueckner-CCSD(T), CCSD density
   Simone Kossmann        : Meta GGA functionals, TD-DFT gradient, OOMP2, MP2 Hessian
   Martin Krupicka        : AUTO-CI
   Lucas Lang             : DCDCAS
   Dagmar Lenk            : GEPOL surface, SMD
   Dimitrios Liakos       : Extrapolation schemes; Compound Job, initial MDCI parallelization
   Dimitrios Manganas     : Further ROCIS development; embedding schemes
   Dimitrios Pantazis     : SARC Basis sets
   Taras Petrenko         : DFT Hessian,TD-DFT gradient, ASA, ECA, R-Raman, ABS, FL, XAS/XES, NRVS
   Peter Pinski           : DLPNO-MP2, DLPNO-MP2 Gradient
   Christoph Reimann      : Effective Core Potentials
   Marius Retegan         : Local ZFS, SOC
   Christoph Riplinger    : Optimizer, TS searches, QM/MM, DLPNO-CCSD(T), (RO)-DLPNO pert. Triples
   Tobias Risthaus        : Range-separated hybrids, TD-DFT gradient, RPA, STAB
   Michael Roemelt        : Original ROCIS implementation
   Masaaki Saitow         : Open-shell DLPNO-CCSD energy and density
   Barbara Sandhoefer     : DKH picture change effects
   Avijit Sen             : IP-ROCIS
   Kantharuban Sivalingam : CASSCF convergence, NEVPT2, FIC-MRCI
   Bernardo de Souza      : ESD, SOC TD-DFT
   Georgi Stoychev        : AutoAux, RI-MP2 NMR
   Willem Van den Heuvel  : Paramagnetic NMR
   Boris Wezisla          : Elementary symmetry handling
   Frank Wennmohs         : Technical directorship


 We gratefully acknowledge several colleagues who have allowed us to
 interface, adapt or use parts of their codes:
   Stefan Grimme, W. Hujo, H. Kruse,             : VdW corrections, initial TS optimization,
                  C. Bannwarth                     DFT functionals, gCP, sTDA/sTD-DF
   Ed Valeev, F. Pavosevic, A. Kumar             : LibInt (2-el integral package), F12 methods
   Garnet Chan, S. Sharma, J. Yang, R. Olivares  : DMRG
   Ulf Ekstrom                                   : XCFun DFT Library
   Mihaly Kallay                                 : mrcc  (arbitrary order and MRCC methods)
   Andreas Klamt, Michael Diedenhofen            : otool_cosmo (COSMO solvation model)
   Jiri Pittner, Ondrej Demel                    : Mk-CCSD
   Frank Weinhold                                : gennbo (NPA and NBO analysis)
   Christopher J. Cramer and Donald G. Truhlar   : smd solvation model
   Lars Goerigk                                  : TD-DFT with DH, B97 family of functionals
   V. Asgeirsson, H. Jonsson                     : NEB implementation
   FAccTs GmbH                                   : IRC, NEB, NEB-TS, Multilevel, MM, QM/MM, CI optimization
   S Lehtola, MJT Oliveira, MAL Marques          : LibXC Library


 Your calculation uses the libint2 library for the computation of 2-el integrals
 For citations please refer to: http://libint.valeyev.net

 Your ORCA version has been built with support for libXC version: 4.2.3
 For citations please refer to: https://tddft.org/programs/libxc/

 This ORCA versions uses:
   CBLAS   interface :  Fast vector & matrix operations
   LAPACKE interface :  Fast linear algebra routines
   SCALAPACK package :  Parallel linear algebra routines




***************************************
The coordinates will be read from file: H2O.xyz
***************************************


Your calculation utilizes the atom-pairwise dispersion correction
with the zero-damping scheme (D30)
Cite in your paper:
S.Grimme, J.Antony, S.Ehrlich and H.Krieg, J.Chem.Phys., 132, (2010), 154104 
   

Your calculation utilizes the SMD solvation module
Please cite in your paper:
A.V. Marenich, C.J. Cramer, D.G. Truhlar J. Phys. Chem. B, 113, (2009), 6378 

XCFun DFT library Copyright 2009-2010 Ulf Ekstrom and contributors.
See http://admol.org/xcfun for more information. This is free soft-
ware; see the source code for copying conditions. There is ABSOLUTELY
NO WARRANTY; not even for MERCHANTABILITY or FITNESS FOR A PARTICULAR
PURPOSE. For details see the documentation. Scientific users of this 
library should cite U. Ekstrom, L. Visscher, R. Bast, A. J. Thorvald-
sen and K. Ruud; J.Chem.Theor.Comp. 2010, DOI: 10.1021/ct100117s
XCFun Version 0.99 
----- Orbital basis set information -----
Your calculation utilizes the basis: 6-311++G(d,p)
   H, Li - Ne  : R. Krishnan, J. S. Binkley, R. Seeger and J. A. Pople, J. Chem. Phys. 72, 650 (1980).
   Na - Ar     : A. D. McLean and G. S. Chandler J. Chem. Phys. 72, 5639, (1980).
   K  - Ca     : J.-P. Blaudeau, M. P. McGrath, L. A. Curtiss and L. Radom, J. Chem. Phys. 107, 5016 (1997).
   Ga - Kr     : L. A. Curtiss, M. P. McGrath, J.-P. Blandeau, N. E. Davis, R. C. Binning and L. Radom, J. Chem. Phys. 103, 6104 (1995).
   Pol./Diff.
   H, Li - Cl  : T. Clark, J. Chandrasekhar and P. v. R. Schleyer, J. Comp. Chem. 4, 294 (1983).
   H - Ne      : M. J. Frisch, J. A. Pople and J. S. Binkley, J. Chem. Phys. 80, 3265 (1984).

================================================================================
                                        WARNINGS
                       Please study these warnings very carefully!
================================================================================


WARNING: The environment variable RSH_COMMAND is not set!
  ===> : All Displacements for the Numerical Hessian calculation
         will be started on localhost

WARNING: Geometry Optimization
  ===> : Switching off AutoStart
         For restart on a previous wavefunction, please use MOREAD

INFO   : the flag for use of LIBINT has been found!

================================================================================
                                       INPUT FILE
================================================================================
NAME = H2O.inp
|  1> ! UHF M062X D3Zero 6-311++G(d,p) Opt NumFreq TightOpt TightSCF Grid6 NoFinalGrid PrintBasis PrintMOs NBO
|  2> 
|  3> %pal
|  4>  nprocs 12
|  5> end
|  6> 
|  7> %cpcm
|  8>  smd true
|  9>  smdsolvent "water"
| 10> end
| 11> 
| 12> *xyzfile 0 1 H2O.xyz
| 13> 
| 14>                          ****END OF INPUT****
================================================================================

                       *****************************
                       * Geometry Optimization Run *
                       *****************************

Geometry optimization settings:
Update method            Update   .... BFGS
Choice of coordinates    CoordSys .... Z-matrix Internals
Initial Hessian          InHess   .... Almoef's Model

Convergence Tolerances:
Energy Change            TolE     ....  1.0000e-06 Eh
Max. Gradient            TolMAXG  ....  1.0000e-04 Eh/bohr
RMS Gradient             TolRMSG  ....  3.0000e-05 Eh/bohr
Max. Displacement        TolMAXD  ....  1.0000e-03 bohr
RMS Displacement         TolRMSD  ....  6.0000e-04 bohr
Strict Convergence                ....  False
------------------------------------------------------------------------------
                        ORCA OPTIMIZATION COORDINATE SETUP
------------------------------------------------------------------------------

The optimization will be done in new redundant internal coordinates
Making redundant internal coordinates   ...  (new redundants) done
Evaluating the initial hessian          ...  (Almloef) done
Evaluating the coordinates              ...  done
Calculating the B-matrix                .... done
Calculating the G-matrix                .... done
Diagonalizing the G-matrix              .... done
The first mode is                       ....    0
The number of degrees of freedom        ....    3

    -----------------------------------------------------------------
                    Redundant Internal Coordinates


    -----------------------------------------------------------------
         Definition                    Initial Value    Approx d2E/dq
    -----------------------------------------------------------------
      1. B(H   1,O   0)                  0.9617         0.516699   
      2. B(H   2,O   0)                  0.9617         0.516767   
      3. A(H   1,O   0,H   2)          105.1305         0.321179   
    -----------------------------------------------------------------

Number of atoms                         .... 3
Number of degrees of freedom            .... 3

         *************************************************************
         *                GEOMETRY OPTIMIZATION CYCLE   1            *
         *************************************************************
---------------------------------
CARTESIAN COORDINATES (ANGSTROEM)
---------------------------------
  O     -2.510257    1.356890   -0.176356
  H     -1.551687    1.356890   -0.098705
  H     -2.685496    1.356890   -1.121929

----------------------------
CARTESIAN COORDINATES (A.U.)
----------------------------
  NO LB      ZA    FRAG     MASS         X           Y           Z
   0 O     8.0000    0    15.999   -4.743699    2.564150   -0.333264
   1 H     1.0000    0     1.008   -2.932263    2.564150   -0.186525
   2 H     1.0000    0     1.008   -5.074852    2.564150   -2.120139

--------------------------------
INTERNAL COORDINATES (ANGSTROEM)
--------------------------------
 O      0   0   0     0.000000000000     0.00000000     0.00000000
 H      1   0   0     0.961710584385     0.00000000     0.00000000
 H      1   2   0     0.961674667213   105.13048709     0.00000000

---------------------------
INTERNAL COORDINATES (A.U.)
---------------------------
 O      0   0   0     0.000000000000     0.00000000     0.00000000
 H      1   0   0     1.817369624582     0.00000000     0.00000000
 H      1   2   0     1.817301750963   105.13048709     0.00000000

---------------------
BASIS SET INFORMATION
---------------------
There are 2 groups of distinct atoms

 Group   1 Type O   : 12s6p1d contracted to 5s4p1d pattern {63111/3111/1}
 Group   2 Type H   : 6s1p contracted to 4s1p pattern {3111/1}

Atom   0O    basis set group =>   1
Atom   1H    basis set group =>   2
Atom   2H    basis set group =>   2

-------------------------
BASIS SET IN INPUT FORMAT
-------------------------

 # Basis set for element : H 
 NewGTO H 
 S 3 
   1      33.8650000000      0.0254938145
   2       5.0947900000      0.1903731086
   3       1.1587900000      0.8521614860
 S 1 
   1       0.3258400000      1.0000000000
 S 1 
   1       0.1027410000      1.0000000000
 S 1 
   1       0.0360000000      1.0000000000
 P 1 
   1       0.7500000000      1.0000000000
  end;

 # Basis set for element : O 
 NewGTO O 
 S 6 
   1    8588.5000000000      0.0018951501
   2    1297.2300000000      0.0143859006
   3     299.2960000000      0.0707320031
   4      87.3771000000      0.2400010105
   5      25.6789000000      0.5947970261
   6       3.7400400000      0.2808020123
 S 3 
   1      42.1175000000      0.1138890124
   2       9.6283700000      0.9208111006
   3       2.8533200000     -0.0032744704
 P 3 
   1      42.1175000000      0.0365113974
   2       9.6283700000      0.2371529830
   3       2.8533200000      0.8197019412
 S 1 
   1       0.9056610000      1.0000000000
 P 1 
   1       0.9056610000      1.0000000000
 S 1 
   1       0.2556110000      1.0000000000
 P 1 
   1       0.2556110000      1.0000000000
 S 1 
   1       0.0845000000      1.0000000000
 P 1 
   1       0.0845000000      1.0000000000
 D 1 
   1       1.2920000000      1.0000000000
  end;



           ************************************************************
           *        Program running with 12 parallel MPI-processes    *
           *              working on a common directory               *
           ************************************************************
------------------------------------------------------------------------------
                           ORCA GTO INTEGRAL CALCULATION
------------------------------------------------------------------------------

                         BASIS SET STATISTICS AND STARTUP INFO

 # of primitive gaussian shells          ...   33
 # of primitive gaussian functions       ...   53
 # of contracted shells                  ...   20
 # of contracted basis functions         ...   36
 Highest angular momentum                ...    2
 Maximum contraction depth               ...    6
 Integral package used                   ... LIBINT
 Integral threshhold            Thresh   ...  2.500e-11
 Primitive cut-off              TCut     ...  2.500e-12


------------------------------ INTEGRAL EVALUATION ----------------------------


 * One electron integrals 
 Pre-screening matrix                    ... done
 Shell pair data                         ... done (   0.000 sec)



           ************************************************************
           *        Program running with 12 parallel MPI-processes    *
           *              working on a common directory               *
           ************************************************************
-------------------------------------------------------------------------------
                                 ORCA SCF
-------------------------------------------------------------------------------

------------
SCF SETTINGS
------------
Hamiltonian:
 Density Functional     Method          .... DFT(GTOs)
 Exchange Functional    Exchange        .... M062X
 Correlation Functional Correlation     .... M062X
 Gradients option       PostSCFGGA      .... off
 Hybrid DFT is turned on
   Fraction HF Exchange ScalHFX         ....  0.540000
   Scaling of DF-GGA-X  ScalDFX         ....  0.460000
   Scaling of DF-GGA-C  ScalDFC         ....  1.000000
   Scaling of DF-LDA-C  ScalLDAC        ....  1.000000
   Perturbative correction              ....  0.000000
   Density functional embedding theory  .... OFF


General Settings:
 Integral files         IntName         .... H2O
 Hartree-Fock type      HFTyp           .... UHF
 Total Charge           Charge          ....    0
 Multiplicity           Mult            ....    1
 Number of Electrons    NEL             ....   10
 Basis Dimension        Dim             ....   36
 Nuclear Repulsion      ENuc            ....      9.1505859561 Eh

Convergence Acceleration:
 DIIS                   CNVDIIS         .... on
   Start iteration      DIISMaxIt       ....    12
   Startup error        DIISStart       ....  0.200000
   # of expansion vecs  DIISMaxEq       ....     5
   Bias factor          DIISBfac        ....   1.050
   Max. coefficient     DIISMaxC        ....  10.000
 Newton-Raphson         CNVNR           .... off
 SOSCF                  CNVSOSCF        .... off
 Level Shifting         CNVShift        .... on
   Level shift para.    LevelShift      ....    0.2500
   Turn off err/grad.   ShiftErr        ....    0.0010
 Zerner damping         CNVZerner       .... off
 Static damping         CNVDamp         .... on
   Fraction old density DampFac         ....    0.7000
   Max. Damping (<1)    DampMax         ....    0.9800
   Min. Damping (>=0)   DampMin         ....    0.0000
   Turn off err/grad.   DampErr         ....    0.1000
 Fernandez-Rico         CNVRico         .... off

SCF Procedure:
 Maximum # iterations   MaxIter         ....   125
 SCF integral mode      SCFMode         .... Direct
   Integral package                     .... LIBINT
 Reset frequency        DirectResetFreq ....    20
 Integral Threshold     Thresh          ....  2.500e-11 Eh
 Primitive CutOff       TCut            ....  2.500e-12 Eh

Convergence Tolerance:
 Convergence Check Mode ConvCheckMode   .... Total+1el-Energy
 Convergence forced     ConvForced      .... 0
 Energy Change          TolE            ....  1.000e-08 Eh
 1-El. energy change                    ....  1.000e-05 Eh
 DIIS Error             TolErr          ....  5.000e-07


Diagonalization of the overlap matrix:
Smallest eigenvalue                        ... 3.550e-03
Time for diagonalization                   ...    0.001 sec
Threshold for overlap eigenvalues          ... 1.000e-08
Number of eigenvalues below threshold      ... 0
Time for construction of square roots      ...    0.002 sec
Total time needed                          ...    0.004 sec

-------------------
DFT GRID GENERATION
-------------------

General Integration Accuracy     IntAcc      ...  5.340
Radial Grid Type                 RadialGrid  ... Gauss-Chebyshev
Angular Grid (max. acc.)         AngularGrid ... Lebedev-590
Angular grid pruning method      GridPruning ... 3 (G Style)
Weight generation scheme         WeightScheme... Becke
Basis function cutoff            BFCut       ...    1.0000e-11
Integration weight cutoff        WCut        ...    1.0000e-14
Grids for H and He will be reduced by one unit

# of grid points (after initial pruning)     ...  38728 (   0.0 sec)
# of grid points (after weights+screening)   ...  38327 (   0.0 sec)
nearest neighbour list constructed           ...    0.0 sec
Grid point re-assignment to atoms done       ...    0.0 sec
Grid point division into batches done        ...    1.0 sec
Reduced shell lists constructed in    1.0 sec

Total number of grid points                  ...    38327
Total number of batches                      ...      600
Average number of points per batch           ...       63
Average number of grid points per atom       ...    12776
Average number of shells per batch           ...    11.67 (58.33%)
Average number of basis functions per batch  ...    20.06 (55.72%)
Average number of large shells per batch     ...     9.45 (81.01%)
Average number of large basis fcns per batch ...    15.88 (79.18%)
Maximum spatial batch extension              ...  13.58, 17.88, 13.58 au
Average spatial batch extension              ...   0.41,  0.47,  0.42 au

Time for grid setup =    1.308 sec

------------------------------
INITIAL GUESS: MODEL POTENTIAL
------------------------------
Loading Hartree-Fock densities                     ... done
Calculating cut-offs                               ... done
Setting up the integral package                    ... done
Initializing the effective Hamiltonian             ... done
Starting the Coulomb interaction                   ... done (   0.0 sec)
Reading the grid                                   ... done
Mapping shells                                     ... done
Starting the XC term evaluation                    ... done (   0.0 sec)
  promolecular density results
     # of electrons  =      9.999021162
     EX              =     -8.729408382
     EC              =     -0.316052149
     EX+EC           =     -9.045460530
Transforming the Hamiltonian                       ... done (   0.0 sec)
Diagonalizing the Hamiltonian                      ... done (   0.0 sec)
Back transforming the eigenvectors                 ... done (   0.0 sec)
Now organizing SCF variables                       ... done
                      ------------------
                      INITIAL GUESS DONE (   1.6 sec)
                      ------------------

--------------------
CPCM SOLVATION MODEL
--------------------
CPCM parameters:
  Epsilon                                         ...      78.3550
  Refrac                                          ...       1.0000
  Rsolv                                           ...       1.3000
  Surface type                                    ...    GEPOL SES
  Epsilon function type                           ...         CPCM
Solvent:                                     ... WATER
SMD-CDS solvent descriptors:
  Soln                                       ...    1.3328
  Soln25                                     ...    1.3323
  Sola                                       ...    0.0000
  Solb                                       ...    0.0000
  Solg                                       ...    0.0000
  Solc                                       ...    0.0000
  Solh                                       ...    0.0000
Radii:
 Radius for O  used is    2.8724 Bohr (=   1.5200 Ang.)
 Radius for H  used is    2.2677 Bohr (=   1.2000 Ang.)
Calculating surface                               ...        done! (  0.0s)
GEPOL surface points                              ...          129
GEPOL Volume                                      ...     131.0340
GEPOL Surface-area                                ...     129.8423
Calculating surface distance matrix               ...        done! (  0.0s)
Performing Cholesky decomposition & store         ...        done! (  0.0s)
Overall time for CPCM initialization              ...                 0.0s
--------------
SCF ITERATIONS
--------------
ITER       Energy         Delta-E        Max-DP      RMS-DP      [F,P]     Damp
               ***  Starting incremental Fock matrix formation  ***
  0    -76.3520195549   0.000000000000 0.03388006  0.00178574  0.3515818 0.7000
  1    -76.3918092119  -0.039789657019 0.01762569  0.00105415  0.1631336 0.7000
                               ***Turning on DIIS***
  2    -76.4073462103  -0.015536998330 0.01983552  0.00144430  0.0542729 0.0000
  3    -76.4316872869  -0.024341076654 0.01281570  0.00070913  0.0868873 0.0000
  4    -76.4369745073  -0.005287220329 0.00146071  0.00013735  0.0106228 0.0000
  5    -76.4371087028  -0.000134195562 0.00057082  0.00004605  0.0017192 0.0000
  6    -76.4371148909  -0.000006188040 0.00031584  0.00002553  0.0005072 0.0000
  7    -76.4371157333  -0.000000842447 0.00003352  0.00000277  0.0000381 0.0000
  8    -76.4371157442  -0.000000010894 0.00000682  0.00000038  0.0000116 0.0000
                 **** Energy Check signals convergence ****

               *****************************************************
               *                     SUCCESS                       *
               *           SCF CONVERGED AFTER   9 CYCLES          *
               *****************************************************


SMD CDS free energy correction energy :                 1.44850     Kcal/mol
Total Energy after SMD CDS correction =               -76.434807417 Eh

----------------
TOTAL SCF ENERGY
----------------

Total Energy       :          -76.43480742 Eh           -2079.89685 eV

Components:
Nuclear Repulsion  :            9.15058596 Eh             249.00010 eV
Electronic Energy  :          -85.58539337 Eh           -2328.89695 eV
One Electron Energy:         -123.01185358 Eh           -3347.32271 eV
Two Electron Energy:           37.42646020 Eh            1018.42576 eV
CPCM Dielectric    :           -0.01910387 Eh              -0.51984 eV
SMD CDS (Gcds)     :            0.00230833 Eh               0.06281 eV

Virial components:
Potential Energy   :         -152.62695714 Eh           -4153.19065 eV
Kinetic Energy     :           76.19214973 Eh            2073.29380 eV
Virial Ratio       :            2.00318481


DFT components:
N(Alpha)           :        5.000000030842 electrons
N(Beta)            :        5.000000030842 electrons
N(Total)           :       10.000000061685 electrons
E(XC)              :       -4.479335891217 Eh       
DFET-embed. en.    :        0.000000000000 Eh       
CPCM Solvation Model Properties:
Surface-charge          :           -0.02694780
Charge-correction       :           -0.00000923 Eh              -0.00025 eV
Free-energy (cav+disp)  :            0.00249707 Eh               0.06795 eV
Corrected G(solv)       :          -76.43231957 Eh           -2079.82915 eV

---------------
SCF CONVERGENCE
---------------

  Last Energy change         ...   -2.6931e-10  Tolerance :   1.0000e-08
  Last MAX-Density change    ...    7.3169e-07  Tolerance :   1.0000e-07
  Last RMS-Density change    ...    5.4457e-08  Tolerance :   5.0000e-09
  Last DIIS Error            ...    6.5231e-07  Tolerance :   5.0000e-07

             **** THE GBW FILE WAS UPDATED (H2O.gbw) ****
             **** DENSITY FILE WAS UPDATED (H2O.scfp) ****
             **** ENERGY FILE WAS UPDATED (H2O.en.tmp) ****
----------------------
UHF SPIN CONTAMINATION
----------------------

Warning: in a DFT calculation there is little theoretical justification to 
         calculate <S**2> as in Hartree-Fock theory. We will do it anyways
         but you should keep in mind that the values have only limited relevance

Expectation value of <S**2>     :    -0.000000
Ideal value S*(S+1) for S=0.0   :     0.000000
Deviation                       :    -0.000000

             **** THE GBW FILE WAS UPDATED (H2O.gbw) ****
             **** DENSITY FILE WAS UPDATED (H2O.scfp) ****
----------------
ORBITAL ENERGIES
----------------
                 SPIN UP ORBITALS
  NO   OCC          E(Eh)            E(eV) 
   0   1.0000     -19.622320      -533.9505 
   1   1.0000      -1.132135       -30.8070 
   2   1.0000      -0.605866       -16.4865 
   3   1.0000      -0.478999       -13.0342 
   4   1.0000      -0.405073       -11.0226 
   5   0.0000       0.007019         0.1910 
   6   0.0000       0.045699         1.2435 
   7   0.0000       0.165594         4.5060 
   8   0.0000       0.174917         4.7597 
   9   0.0000       0.190420         5.1816 
  10   0.0000       0.194480         5.2921 
  11   0.0000       0.250407         6.8139 
  12   0.0000       0.254478         6.9247 
  13   0.0000       0.556529        15.1439 
  14   0.0000       0.608733        16.5645 
  15   0.0000       1.014739        27.6124 
  16   0.0000       1.053351        28.6631 
  17   0.0000       1.056429        28.7469 
  18   0.0000       1.289812        35.0976 
  19   0.0000       1.324708        36.0471 
  20   0.0000       1.409745        38.3611 
  21   0.0000       1.523588        41.4589 
  22   0.0000       1.727215        46.9999 
  23   0.0000       2.066160        56.2231 
  24   0.0000       2.201096        59.8949 
  25   0.0000       2.453306        66.7578 
  26   0.0000       2.617553        71.2272 
  27   0.0000       3.162188        86.0475 
  28   0.0000       3.213062        87.4319 
  29   0.0000       3.377085        91.8952 
  30   0.0000       3.736307       101.6701 
  31   0.0000       3.941810       107.2621 
  32   0.0000       5.053553       137.5142 
  33   0.0000       5.421328       147.5218 
  34   0.0000       5.726829       155.8349 
  35   0.0000      49.984035      1360.1347 

                 SPIN DOWN ORBITALS
  NO   OCC          E(Eh)            E(eV) 
   0   1.0000     -19.622320      -533.9505 
   1   1.0000      -1.132135       -30.8070 
   2   1.0000      -0.605866       -16.4865 
   3   1.0000      -0.478999       -13.0342 
   4   1.0000      -0.405073       -11.0226 
   5   0.0000       0.007019         0.1910 
   6   0.0000       0.045699         1.2435 
   7   0.0000       0.165594         4.5060 
   8   0.0000       0.174917         4.7597 
   9   0.0000       0.190420         5.1816 
  10   0.0000       0.194480         5.2921 
  11   0.0000       0.250407         6.8139 
  12   0.0000       0.254478         6.9247 
  13   0.0000       0.556529        15.1439 
  14   0.0000       0.608733        16.5645 
  15   0.0000       1.014739        27.6124 
  16   0.0000       1.053351        28.6631 
  17   0.0000       1.056429        28.7469 
  18   0.0000       1.289812        35.0976 
  19   0.0000       1.324708        36.0471 
  20   0.0000       1.409745        38.3611 
  21   0.0000       1.523588        41.4589 
  22   0.0000       1.727215        46.9999 
  23   0.0000       2.066160        56.2231 
  24   0.0000       2.201096        59.8949 
  25   0.0000       2.453306        66.7578 
  26   0.0000       2.617553        71.2272 
  27   0.0000       3.162188        86.0475 
  28   0.0000       3.213062        87.4319 
  29   0.0000       3.377085        91.8952 
  30   0.0000       3.736307       101.6701 
  31   0.0000       3.941810       107.2621 
  32   0.0000       5.053553       137.5142 
  33   0.0000       5.421328       147.5218 
  34   0.0000       5.726829       155.8349 
  35   0.0000      49.984035      1360.1347 
------------------
MOLECULAR ORBITALS
------------------
                      0         1         2         3         4         5   
                 -19.62232  -1.13214  -0.60587  -0.47900  -0.40507   0.00702
                   1.00000   1.00000   1.00000   1.00000   1.00000   0.00000
                  --------  --------  --------  --------  --------  --------
  0O   1s        -0.552893 -0.114784 -0.000005  0.036493 -0.000000 -0.023468
  0O   2s        -0.469502 -0.188856 -0.000008  0.061197 -0.000000 -0.040657
  0O   1pz        0.000966 -0.032372  0.161796 -0.194309  0.000000 -0.024297
  0O   1px       -0.000872  0.029207  0.179265  0.175375 -0.000000  0.021921
  0O   1py       -0.000000  0.000000 -0.000000  0.000000  0.292411  0.000000
  0O   3s        -0.008508  0.541420  0.000025 -0.183745  0.000000  0.146830
  0O   2pz       -0.000020 -0.052699  0.236672 -0.281670  0.000000 -0.039090
  0O   2px        0.000018  0.047551  0.262228  0.254226 -0.000000  0.035267
  0O   2py        0.000000  0.000000 -0.000000  0.000000  0.430577  0.000000
  0O   4s         0.002753  0.391452  0.000039 -0.279054  0.000000  0.108105
  0O   3pz        0.000194 -0.016467  0.158354 -0.235279  0.000000 -0.034046
  0O   3px       -0.000175  0.014857  0.175454  0.212371 -0.000000  0.030728
  0O   3py       -0.000000  0.000000 -0.000000  0.000000  0.415205  0.000000
  0O   5s        -0.002762 -0.011414 -0.000035 -0.042242  0.000000  0.694116
  0O   4pz        0.000241  0.001537  0.014524 -0.050438 -0.000000 -0.092024
  0O   4px       -0.000217 -0.001388  0.016074  0.045566 -0.000000  0.082968
  0O   4py        0.000000  0.000000 -0.000000  0.000000  0.100980 -0.000000
  0O   1dz2      -0.000080  0.004808 -0.020965  0.006011 -0.000000  0.000213
  0O   1dxz      -0.000081  0.002138 -0.002487 -0.012502  0.000000 -0.002040
  0O   1dyz       0.000000 -0.000000  0.000000 -0.000000 -0.011332 -0.000000
  0O   1dx2y2    -0.000156  0.008766  0.012104  0.007842 -0.000000 -0.000050
  0O   1dxy      -0.000000  0.000000  0.000000  0.000000  0.010224  0.000000
  1H   1s        -0.000056  0.093898  0.149107  0.088220 -0.000000 -0.008034
  1H   2s         0.000262  0.070848  0.184944  0.128476 -0.000000 -0.070730
  1H   3s         0.000548 -0.000137  0.026020  0.018357  0.000000 -0.040659
  1H   4s         0.000327  0.006080  0.012103  0.001179 -0.000000 -0.754909
  1H   1pz       -0.000033 -0.004394  0.007752 -0.024222 -0.000000 -0.003625
  1H   1px       -0.000517 -0.022917 -0.026449 -0.013630  0.000000 -0.019142
  1H   1py        0.000000  0.000000  0.000000  0.000000  0.029657 -0.000000
  2H   1s        -0.000056  0.093912 -0.149114  0.088213 -0.000000 -0.008029
  2H   2s         0.000262  0.070864 -0.184964  0.128493 -0.000000 -0.070716
  2H   3s         0.000548 -0.000139 -0.025985  0.018433 -0.000000 -0.040805
  2H   4s         0.000327  0.006081 -0.012102  0.001182 -0.000000 -0.755181
  2H   1pz        0.000511  0.022350 -0.027102  0.011085 -0.000000  0.018674
  2H   1px        0.000085  0.006714  0.005013  0.025493  0.000000  0.005564
  2H   1py       -0.000000  0.000000 -0.000000  0.000000  0.029660 -0.000000
                      6         7         8         9        10        11   
                   0.04570   0.16559   0.17492   0.19042   0.19448   0.25041
                   0.00000   0.00000   0.00000   0.00000   0.00000   0.00000
                  --------  --------  --------  --------  --------  --------
  0O   1s         0.000002  0.017794 -0.000000  0.035919 -0.000040 -0.024727
  0O   2s         0.000003  0.029503 -0.000000  0.060165 -0.000066 -0.039388
  0O   1pz       -0.034928 -0.072004  0.000000  0.078566  0.039020  0.008309
  0O   1px       -0.038703  0.064942 -0.000000 -0.070808  0.043511 -0.008052
  0O   1py       -0.000000  0.000000  0.129755  0.000000 -0.000000  0.000000
  0O   3s        -0.000013 -0.085252  0.000000 -0.166982  0.000178  0.047835
  0O   2pz       -0.057942 -0.065927  0.000000  0.108401  0.062700 -0.015484
  0O   2px       -0.064207  0.059436  0.000000 -0.097670  0.069821  0.013304
  0O   2py        0.000000  0.000000  0.126633  0.000000 -0.000000  0.000000
  0O   4s         0.000014 -0.244655  0.000001 -0.703338  0.000909  1.189161
  0O   3pz       -0.029916 -0.381025  0.000000  0.202032 -0.006683 -0.013827
  0O   3px       -0.033124  0.343877 -0.000000 -0.182353 -0.006380  0.010108
  0O   3py       -0.000000  0.000001  0.552564  0.000000 -0.000000 -0.000000
  0O   5s        -0.000323 -1.711278  0.000003 -2.472780  0.001368 -8.967230
  0O   4pz       -0.150437  1.438491 -0.000001  0.657480  1.879246  1.884720
  0O   4px       -0.166903 -1.300193  0.000003 -0.588437  2.082050 -1.695362
  0O   4py        0.000000 -0.000002 -1.258136 -0.000001  0.000000  0.000000
  0O   1dz2       0.001419  0.005683  0.000000  0.002542  0.023436  0.010664
  0O   1dxz       0.000169 -0.002260 -0.000000  0.009425  0.002770  0.011100
  0O   1dyz      -0.000000 -0.000000 -0.005097  0.000000  0.000000  0.000000
  0O   1dx2y2    -0.000818  0.009405 -0.000000  0.006273 -0.013530  0.020700
  0O   1dxy      -0.000000  0.000000  0.004599  0.000000 -0.000000 -0.000000
  1H   1s        -0.009528  0.025287 -0.000000  0.078717 -0.081114  0.022735
  1H   2s         0.039021 -0.088597  0.000000 -0.041862  0.074451 -0.183086
  1H   3s        -0.179174  1.459921 -0.000004  2.712509 -3.415529  4.168964
  1H   4s         2.355419 -0.151456  0.000001 -0.753384 -0.025701  0.465914
  1H   1pz        0.000455  0.015997 -0.000000  0.014981  0.016938  0.016916
  1H   1px        0.014091  0.007996 -0.000000  0.022369 -0.026407  0.031096
  1H   1py        0.000000 -0.000000 -0.009998  0.000000 -0.000000 -0.000000
  2H   1s         0.009537  0.025202 -0.000000  0.078908  0.080932  0.022563
  2H   2s        -0.039044 -0.088448  0.000000 -0.042032 -0.074673 -0.183480
  2H   3s         0.179528  1.456145 -0.000001  2.721380  3.411105  4.166611
  2H   4s        -2.355334 -0.151171  0.000001 -0.753176  0.027497  0.477609
  2H   1pz        0.013965 -0.006291  0.000000 -0.020791 -0.027977 -0.029160
  2H   1px        0.001890 -0.016752  0.000000 -0.017160  0.014165 -0.019989
  2H   1py       -0.000000 -0.000000 -0.009996  0.000000  0.000000 -0.000000
                     12        13        14        15        16        17   
                   0.25448   0.55653   0.60873   1.01474   1.05335   1.05643
                   0.00000   0.00000   0.00000   0.00000   0.00000   0.00000
                  --------  --------  --------  --------  --------  --------
  0O   1s        -0.000064 -0.000003  0.033940  0.002131  0.000000 -0.000001
  0O   2s        -0.000102 -0.000005  0.059986  0.001081  0.000000 -0.000003
  0O   1pz        0.104960  0.087748  0.080754 -0.183490 -0.000000 -0.160315
  0O   1px        0.116259  0.097239 -0.072857  0.165626  0.000000 -0.177606
  0O   1py        0.000000  0.000000  0.000000  0.000000 -0.264669 -0.000000
  0O   3s         0.000124  0.000015 -0.171209  0.147071  0.000000  0.000034
  0O   2pz        0.125392  0.152569  0.161905 -0.535683 -0.000000 -0.473895
  0O   2px        0.139022  0.169066 -0.146071  0.483538  0.000001 -0.525021
  0O   2py        0.000000  0.000000  0.000000  0.000001 -0.864311 -0.000000
  0O   4s         0.003064  0.000006 -1.211604 -1.476399 -0.000001 -0.000249
  0O   3pz        0.459839  0.706437  0.686553  1.589703  0.000001  1.578919
  0O   3px        0.509583  0.782832 -0.619396 -1.434950 -0.000002  1.749185
  0O   3py        0.000000  0.000000 -0.000000 -0.000001  1.611426  0.000000
  0O   5s        -0.023598  0.000028  4.157300  1.702102  0.000001  0.000238
  0O   4pz       -1.082075 -1.087051 -1.119708 -0.924168 -0.000001 -1.018100
  0O   4px       -1.209035 -1.204509  1.010358  0.834274  0.000001 -1.127934
  0O   4py       -0.000000 -0.000000  0.000000  0.000001 -0.765419 -0.000000
  0O   1dz2      -0.008581  0.016904  0.002868 -0.003529 -0.000000 -0.006225
  0O   1dxz      -0.000993  0.002005  0.016672  0.001173 -0.000000 -0.000738
  0O   1dyz       0.000000 -0.000000  0.000000  0.000000  0.003779 -0.000000
  0O   1dx2y2     0.005025 -0.009763  0.008387 -0.005877 -0.000000  0.003593
  0O   1dxy       0.000000  0.000000 -0.000000 -0.000000 -0.003408 -0.000000
  1H   1s        -0.031962 -0.113631  0.105515  0.022798  0.000000 -0.025198
  1H   2s        -0.091893 -1.662623  1.970212  0.953815  0.000001 -0.684696
  1H   3s        -0.384307  3.301987 -3.653098 -0.932379 -0.000001  0.333687
  1H   4s         2.181061 -0.724292  0.412657 -0.083892 -0.000000  0.956399
  1H   1pz       -0.004720  0.017993  0.017529  0.043411 -0.000000  0.034634
  1H   1px       -0.008780  0.021464 -0.045010 -0.225345 -0.000000  0.210081
  1H   1py       -0.000000 -0.000000  0.000000 -0.000000  0.013115  0.000000
  2H   1s         0.032075  0.113595  0.105545  0.022818 -0.000000  0.025215
  2H   2s         0.090992  1.662331  1.970658  0.953708  0.000001  0.684943
  2H   3s         0.406332 -3.301667 -3.653763 -0.932263 -0.000001 -0.333882
  2H   4s        -2.178632  0.724163  0.412788 -0.083728  0.000000 -0.956439
  2H   1pz       -0.008402  0.019511  0.046564  0.228553  0.000000  0.205484
  2H   1px       -0.005705  0.020106 -0.012841 -0.020168  0.000000  0.055958
  2H   1py        0.000000  0.000000  0.000000 -0.000000  0.013088  0.000000
                     18        19        20        21        22        23   
                   1.28981   1.32471   1.40974   1.52359   1.72721   2.06616
                   0.00000   0.00000   0.00000   0.00000   0.00000   0.00000
                  --------  --------  --------  --------  --------  --------
  0O   1s        -0.041002  0.000000 -0.101090  0.000000 -0.000002 -0.000006
  0O   2s        -0.083654  0.000000 -0.210966  0.000000 -0.000004 -0.000013
  0O   1pz        0.011746  0.000000  0.019654  0.000000  0.006937  0.118617
  0O   1px       -0.010605  0.000000 -0.017732 -0.000000  0.007688  0.131460
  0O   1py       -0.000000  0.000007 -0.000000  0.028436  0.000000 -0.000000
  0O   3s         0.587726 -0.000000  1.748345 -0.000000  0.000030  0.000048
  0O   2pz        0.123147 -0.000000  0.172787  0.000000  0.037993  0.361252
  0O   2px       -0.111120  0.000000 -0.155894 -0.000000  0.042104  0.400382
  0O   2py       -0.000000  0.000030 -0.000000 -0.019016  0.000000  0.000000
  0O   4s        -0.713173  0.000000 -4.500997  0.000000  0.000080  0.000215
  0O   3pz       -0.718445  0.000000  0.837363 -0.000000 -0.742651 -0.086989
  0O   3px        0.648502  0.000000 -0.755768  0.000000 -0.822807 -0.096275
  0O   3py        0.000000 -0.000036  0.000000  0.711492  0.000000 -0.000000
  0O   5s         1.185131 -0.000000  4.079020 -0.000000 -0.000072 -0.000054
  0O   4pz        0.000411 -0.000000 -0.682352  0.000000  0.272849  0.287783
  0O   4px       -0.000444 -0.000000  0.615863 -0.000000  0.302292  0.318853
  0O   4py       -0.000000  0.000010 -0.000000 -0.121708 -0.000000  0.000000
  0O   1dz2      -0.025205  0.000000  0.015473  0.000000  0.033059  0.184245
  0O   1dxz       0.126167 -0.000000 -0.064522 -0.000000  0.003938  0.021862
  0O   1dyz       0.000000  0.088448  0.000000  0.116567  0.000000 -0.000000
  0O   1dx2y2    -0.017717 -0.000000  0.013549  0.000000 -0.019086 -0.106409
  0O   1dxy      -0.000000  0.098009  0.000000 -0.105199  0.000000 -0.000000
  1H   1s         0.034919 -0.000000 -0.023572  0.000000 -0.092864 -0.600859
  1H   2s        -0.428732 -0.000000  1.576677 -0.000000  0.767654  0.756938
  1H   3s        -0.088860  0.000000 -1.620286  0.000000 -0.565948 -1.329378
  1H   4s        -0.172080  0.000000 -0.260083  0.000000  0.013085  0.393189
  1H   1pz        0.646299 -0.000000 -0.333684 -0.000000  0.818729 -0.068377
  1H   1px       -0.089704  0.000000 -0.334308  0.000000 -0.095606  0.664141
  1H   1py       -0.000000  0.685899  0.000000 -0.767686  0.000000 -0.000000
  2H   1s         0.034910  0.000000 -0.023554  0.000000  0.092885  0.600758
  2H   2s        -0.428622  0.000000  1.576703 -0.000000 -0.767809 -0.757021
  2H   3s        -0.088983 -0.000000 -1.620270  0.000000  0.566054  1.329293
  2H   4s        -0.172107  0.000000 -0.260100  0.000000 -0.013090 -0.393140
  2H   1pz        0.155366 -0.000000  0.298442 -0.000000 -0.178853  0.667371
  2H   1px       -0.633816  0.000000  0.366133  0.000000  0.804593 -0.000193
  2H   1py       -0.000000 -0.685868 -0.000000 -0.767722 -0.000000  0.000000
                     24        25        26        27        28        29   
                   2.20110   2.45331   2.61755   3.16219   3.21306   3.37709
                   0.00000   0.00000   0.00000   0.00000   0.00000   0.00000
                  --------  --------  --------  --------  --------  --------
  0O   1s        -0.046439 -0.033775 -0.000000 -0.000000 -0.000000  0.000756
  0O   2s        -0.094825 -0.083077 -0.000002 -0.000000 -0.000000  0.001494
  0O   1pz       -0.111902  0.021675  0.013583 -0.000000 -0.000000  0.005021
  0O   1px        0.100948 -0.019560  0.015049  0.000000  0.000000 -0.004539
  0O   1py       -0.000000 -0.000000 -0.000000 -0.000665 -0.000003  0.000000
  0O   3s         0.535193  0.582607  0.000050  0.000000  0.000000  0.043876
  0O   2pz       -0.296713 -0.407082 -0.526597  0.000000 -0.000000  0.020321
  0O   2px        0.267666  0.367234 -0.583467 -0.000000 -0.000000 -0.018325
  0O   2py       -0.000000 -0.000000 -0.000000  0.017627  0.000004 -0.000000
  0O   4s         0.359643  2.300293  0.000067 -0.000000 -0.000000 -0.686843
  0O   3pz       -0.003342 -0.756981 -0.661747  0.000000  0.000000  0.495459
  0O   3px        0.003152  0.683039 -0.733214 -0.000000  0.000000 -0.447181
  0O   3py        0.000000  0.000000 -0.000000 -0.320419 -0.000133  0.000000
  0O   5s         0.979336 -2.190885 -0.000025 -0.000000 -0.000000  0.278197
  0O   4pz       -0.238153  0.546131  0.415191  0.000000  0.000000 -0.118479
  0O   4px        0.214784 -0.492824  0.460047 -0.000000  0.000000  0.106944
  0O   4py       -0.000000 -0.000000  0.000000  0.055158  0.000025 -0.000000
  0O   1dz2      -0.127501  0.006839  0.195190 -0.000000 -0.000000 -0.268533
  0O   1dxz      -0.060543  0.058671  0.023173  0.000000  0.000000  1.013007
  0O   1dyz      -0.000000 -0.000000 -0.000000  0.765595  0.704982 -0.000000
  0O   1dx2y2    -0.233191  0.023851 -0.112692 -0.000000  0.000000 -0.256899
  0O   1dxy       0.000000  0.000000 -0.000000 -0.691450  0.780586  0.000000
  1H   1s        -0.645062  0.912610 -0.929312 -0.000000 -0.000000 -0.038221
  1H   2s         0.617054 -2.798973  2.522096  0.000000  0.000000  0.560313
  1H   3s        -1.157480  1.984740 -1.609734 -0.000000 -0.000000 -0.258198
  1H   4s         0.175799 -0.193788  0.355550  0.000000  0.000000  0.019424
  1H   1pz        0.130879  0.102030 -0.086932 -0.000000 -0.000000 -0.452023
  1H   1px        0.677776  0.935978 -1.002272  0.000000  0.000000 -0.098190
  1H   1py        0.000000  0.000000 -0.000000  0.363357 -0.342337 -0.000000
  2H   1s        -0.645322  0.912619  0.929124 -0.000000  0.000000 -0.038242
  2H   2s         0.617459 -2.799358 -2.521990  0.000000 -0.000000  0.560345
  2H   3s        -1.158016  1.984887  1.609640  0.000000  0.000000 -0.258205
  2H   4s         0.175911 -0.193768 -0.355510 -0.000000 -0.000000  0.019442
  2H   1pz       -0.660976 -0.920902 -0.988179 -0.000000  0.000000  0.051458
  2H   1px       -0.199503 -0.197258 -0.188960  0.000000 -0.000000  0.459725
  2H   1py        0.000000  0.000000  0.000000  0.363131  0.342630 -0.000000
                     30        31        32        33        34        35   
                   3.73631   3.94181   5.05355   5.42133   5.72683  49.98404
                   0.00000   0.00000   0.00000   0.00000   0.00000   0.00000
                  --------  --------  --------  --------  --------  --------
  0O   1s         0.019202  0.000004 -0.000000  0.016391  0.000004  2.246839
  0O   2s         0.037891  0.000008 -0.000000  0.031523  0.000009 -2.339073
  0O   1pz        0.224079  0.279526  0.000000 -0.941787 -0.845548  0.009840
  0O   1px       -0.202262  0.309662 -0.000000  0.850154 -0.936689 -0.008877
  0O   1py       -0.000000  0.000000 -1.276918 -0.000000 -0.000000  0.000000
  0O   3s        -0.022486 -0.000046  0.000000 -0.108141 -0.000062  0.287041
  0O   2pz        0.088166 -0.020746 -0.000000  1.353503  1.359264 -0.039995
  0O   2px       -0.079533 -0.023018  0.000000 -1.221789  1.505758  0.036081
  0O   2py        0.000000 -0.000000  1.506411  0.000000  0.000000 -0.000000
  0O   4s        -2.784865 -0.000311  0.000000 -1.392168 -0.000246 -0.165877
  0O   3pz        1.016693  0.876892  0.000000 -0.197760 -0.211422 -0.010838
  0O   3px       -0.917702  0.971413 -0.000000  0.178547 -0.234254  0.009775
  0O   3py       -0.000000  0.000000 -0.804881 -0.000000 -0.000000  0.000000
  0O   5s         1.770140  0.000190 -0.000000  0.712733  0.000136  0.192547
  0O   4pz       -0.498606 -0.406195 -0.000000  0.035051  0.164586 -0.019512
  0O   4px        0.450060 -0.449984  0.000000 -0.031688  0.182385  0.017612
  0O   4py        0.000000 -0.000000  0.299701  0.000000  0.000000 -0.000000
  0O   1dz2      -0.501418 -1.029903  0.000000 -0.170940 -0.525058  0.008970
  0O   1dxz      -0.403242 -0.122249  0.000000 -0.114702 -0.062334  0.007871
  0O   1dyz       0.000000 -0.000000 -0.007268 -0.000000 -0.000000  0.000000
  0O   1dx2y2    -0.951608  0.594486  0.000000 -0.319747  0.303068  0.017144
  0O   1dxy      -0.000000 -0.000000  0.006553  0.000000 -0.000000 -0.000000
  1H   1s         0.238898 -0.358261 -0.000000  0.243279 -0.335950 -0.002877
  1H   2s         1.582637 -0.791729 -0.000000  0.616990 -0.401752 -0.047311
  1H   3s        -0.952380  0.268100  0.000000 -0.281142 -0.021134 -0.032163
  1H   4s        -0.048979  0.304117  0.000000 -0.031468 -0.153635 -0.025491
  1H   1pz       -0.097157  0.044647  0.000000 -0.109107  0.013716  0.006586
  1H   1px       -0.861910  0.661916  0.000000 -0.562360  0.672836  0.063361
  1H   1py        0.000000  0.000000 -0.035568 -0.000000  0.000000  0.000000
  2H   1s         0.238895  0.358394 -0.000000  0.243268  0.336096 -0.002883
  2H   2s         1.582540  0.792037 -0.000000  0.616948  0.401963 -0.047330
  2H   3s        -0.952338 -0.268265  0.000000 -0.281171  0.021028 -0.032156
  2H   4s        -0.048944 -0.304141  0.000000 -0.031522  0.153621 -0.025494
  2H   1pz        0.847349  0.654055 -0.000000  0.548146  0.668095 -0.062373
  2H   1px        0.184749  0.112134 -0.000000  0.166027  0.082480 -0.013032
  2H   1py        0.000000 -0.000000 -0.035578 -0.000000 -0.000000  0.000000

                      0         1         2         3         4         5   
                 -19.62232  -1.13214  -0.60587  -0.47900  -0.40507   0.00702
                   1.00000   1.00000   1.00000   1.00000   1.00000   0.00000
                  --------  --------  --------  --------  --------  --------
  0O   1s        -0.552893 -0.114784 -0.000005  0.036493 -0.000000 -0.023468
  0O   2s        -0.469502 -0.188856 -0.000008  0.061197 -0.000000 -0.040657
  0O   1pz        0.000966 -0.032372  0.161796 -0.194309  0.000000 -0.024297
  0O   1px       -0.000872  0.029207  0.179265  0.175375 -0.000000  0.021921
  0O   1py       -0.000000  0.000000 -0.000000  0.000000  0.292411  0.000000
  0O   3s        -0.008508  0.541420  0.000025 -0.183745  0.000000  0.146830
  0O   2pz       -0.000020 -0.052699  0.236672 -0.281670  0.000000 -0.039090
  0O   2px        0.000018  0.047551  0.262228  0.254226 -0.000000  0.035267
  0O   2py        0.000000  0.000000 -0.000000  0.000000  0.430577  0.000000
  0O   4s         0.002753  0.391452  0.000039 -0.279054  0.000000  0.108105
  0O   3pz        0.000194 -0.016467  0.158354 -0.235279  0.000000 -0.034046
  0O   3px       -0.000175  0.014857  0.175454  0.212371 -0.000000  0.030728
  0O   3py       -0.000000  0.000000 -0.000000  0.000000  0.415205  0.000000
  0O   5s        -0.002762 -0.011414 -0.000035 -0.042242  0.000000  0.694116
  0O   4pz        0.000241  0.001537  0.014524 -0.050438 -0.000000 -0.092024
  0O   4px       -0.000217 -0.001388  0.016074  0.045566 -0.000000  0.082968
  0O   4py        0.000000  0.000000 -0.000000  0.000000  0.100980 -0.000000
  0O   1dz2      -0.000080  0.004808 -0.020965  0.006011 -0.000000  0.000213
  0O   1dxz      -0.000081  0.002138 -0.002487 -0.012502  0.000000 -0.002040
  0O   1dyz       0.000000 -0.000000  0.000000 -0.000000 -0.011332 -0.000000
  0O   1dx2y2    -0.000156  0.008766  0.012104  0.007842 -0.000000 -0.000050
  0O   1dxy      -0.000000  0.000000  0.000000  0.000000  0.010224  0.000000
  1H   1s        -0.000056  0.093898  0.149107  0.088220 -0.000000 -0.008034
  1H   2s         0.000262  0.070848  0.184944  0.128476 -0.000000 -0.070730
  1H   3s         0.000548 -0.000137  0.026020  0.018357  0.000000 -0.040659
  1H   4s         0.000327  0.006080  0.012103  0.001179 -0.000000 -0.754909
  1H   1pz       -0.000033 -0.004394  0.007752 -0.024222 -0.000000 -0.003625
  1H   1px       -0.000517 -0.022917 -0.026449 -0.013630  0.000000 -0.019142
  1H   1py        0.000000  0.000000  0.000000  0.000000  0.029657 -0.000000
  2H   1s        -0.000056  0.093912 -0.149114  0.088213 -0.000000 -0.008029
  2H   2s         0.000262  0.070864 -0.184964  0.128493 -0.000000 -0.070716
  2H   3s         0.000548 -0.000139 -0.025985  0.018433 -0.000000 -0.040805
  2H   4s         0.000327  0.006081 -0.012102  0.001182 -0.000000 -0.755181
  2H   1pz        0.000511  0.022350 -0.027102  0.011085 -0.000000  0.018674
  2H   1px        0.000085  0.006714  0.005013  0.025493  0.000000  0.005564
  2H   1py       -0.000000  0.000000 -0.000000  0.000000  0.029660 -0.000000
                      6         7         8         9        10        11   
                   0.04570   0.16559   0.17492   0.19042   0.19448   0.25041
                   0.00000   0.00000   0.00000   0.00000   0.00000   0.00000
                  --------  --------  --------  --------  --------  --------
  0O   1s         0.000002  0.017794 -0.000000  0.035919 -0.000040 -0.024727
  0O   2s         0.000003  0.029503 -0.000000  0.060165 -0.000066 -0.039388
  0O   1pz       -0.034928 -0.072004  0.000000  0.078566  0.039020  0.008309
  0O   1px       -0.038703  0.064942 -0.000000 -0.070808  0.043511 -0.008052
  0O   1py       -0.000000  0.000000  0.129755  0.000000 -0.000000  0.000000
  0O   3s        -0.000013 -0.085252  0.000000 -0.166982  0.000178  0.047835
  0O   2pz       -0.057942 -0.065927  0.000000  0.108401  0.062700 -0.015484
  0O   2px       -0.064207  0.059436  0.000000 -0.097670  0.069821  0.013304
  0O   2py        0.000000  0.000000  0.126633  0.000000 -0.000000  0.000000
  0O   4s         0.000014 -0.244655  0.000001 -0.703338  0.000909  1.189161
  0O   3pz       -0.029916 -0.381025  0.000000  0.202032 -0.006683 -0.013827
  0O   3px       -0.033124  0.343877 -0.000000 -0.182353 -0.006380  0.010108
  0O   3py       -0.000000  0.000001  0.552564  0.000000 -0.000000 -0.000000
  0O   5s        -0.000323 -1.711278  0.000003 -2.472780  0.001368 -8.967230
  0O   4pz       -0.150437  1.438491 -0.000001  0.657480  1.879246  1.884720
  0O   4px       -0.166903 -1.300193  0.000003 -0.588437  2.082050 -1.695362
  0O   4py        0.000000 -0.000002 -1.258136 -0.000001  0.000000  0.000000
  0O   1dz2       0.001419  0.005683  0.000000  0.002542  0.023436  0.010664
  0O   1dxz       0.000169 -0.002260 -0.000000  0.009425  0.002770  0.011100
  0O   1dyz      -0.000000 -0.000000 -0.005097  0.000000  0.000000  0.000000
  0O   1dx2y2    -0.000818  0.009405 -0.000000  0.006273 -0.013530  0.020700
  0O   1dxy      -0.000000  0.000000  0.004599  0.000000 -0.000000 -0.000000
  1H   1s        -0.009528  0.025287 -0.000000  0.078717 -0.081114  0.022735
  1H   2s         0.039021 -0.088597  0.000000 -0.041862  0.074451 -0.183086
  1H   3s        -0.179174  1.459921 -0.000004  2.712509 -3.415529  4.168964
  1H   4s         2.355419 -0.151456  0.000001 -0.753384 -0.025701  0.465914
  1H   1pz        0.000455  0.015997 -0.000000  0.014981  0.016938  0.016916
  1H   1px        0.014091  0.007996 -0.000000  0.022369 -0.026407  0.031096
  1H   1py        0.000000 -0.000000 -0.009998  0.000000 -0.000000 -0.000000
  2H   1s         0.009537  0.025202 -0.000000  0.078908  0.080932  0.022563
  2H   2s        -0.039044 -0.088448  0.000000 -0.042032 -0.074673 -0.183480
  2H   3s         0.179528  1.456145 -0.000001  2.721380  3.411105  4.166611
  2H   4s        -2.355334 -0.151171  0.000001 -0.753176  0.027497  0.477609
  2H   1pz        0.013965 -0.006291  0.000000 -0.020791 -0.027977 -0.029160
  2H   1px        0.001890 -0.016752  0.000000 -0.017160  0.014165 -0.019989
  2H   1py       -0.000000 -0.000000 -0.009996  0.000000  0.000000 -0.000000
                     12        13        14        15        16        17   
                   0.25448   0.55653   0.60873   1.01474   1.05335   1.05643
                   0.00000   0.00000   0.00000   0.00000   0.00000   0.00000
                  --------  --------  --------  --------  --------  --------
  0O   1s        -0.000064 -0.000003  0.033940  0.002131  0.000000 -0.000001
  0O   2s        -0.000102 -0.000005  0.059986  0.001081  0.000000 -0.000003
  0O   1pz        0.104960  0.087748  0.080754 -0.183490 -0.000000 -0.160315
  0O   1px        0.116259  0.097239 -0.072857  0.165626  0.000000 -0.177606
  0O   1py        0.000000  0.000000  0.000000  0.000000 -0.264669 -0.000000
  0O   3s         0.000124  0.000015 -0.171209  0.147071  0.000000  0.000034
  0O   2pz        0.125392  0.152569  0.161905 -0.535683 -0.000000 -0.473895
  0O   2px        0.139022  0.169066 -0.146071  0.483538  0.000001 -0.525021
  0O   2py        0.000000  0.000000  0.000000  0.000001 -0.864311 -0.000000
  0O   4s         0.003064  0.000006 -1.211604 -1.476399 -0.000001 -0.000249
  0O   3pz        0.459839  0.706437  0.686553  1.589703  0.000001  1.578919
  0O   3px        0.509583  0.782832 -0.619396 -1.434950 -0.000002  1.749185
  0O   3py        0.000000  0.000000 -0.000000 -0.000001  1.611426  0.000000
  0O   5s        -0.023598  0.000028  4.157300  1.702102  0.000001  0.000238
  0O   4pz       -1.082075 -1.087051 -1.119708 -0.924168 -0.000001 -1.018100
  0O   4px       -1.209035 -1.204509  1.010358  0.834274  0.000001 -1.127934
  0O   4py       -0.000000 -0.000000  0.000000  0.000001 -0.765419 -0.000000
  0O   1dz2      -0.008581  0.016904  0.002868 -0.003529 -0.000000 -0.006225
  0O   1dxz      -0.000993  0.002005  0.016672  0.001173 -0.000000 -0.000738
  0O   1dyz       0.000000 -0.000000  0.000000  0.000000  0.003779 -0.000000
  0O   1dx2y2     0.005025 -0.009763  0.008387 -0.005877 -0.000000  0.003593
  0O   1dxy       0.000000  0.000000 -0.000000 -0.000000 -0.003408 -0.000000
  1H   1s        -0.031962 -0.113631  0.105515  0.022798  0.000000 -0.025198
  1H   2s        -0.091893 -1.662623  1.970212  0.953815  0.000001 -0.684696
  1H   3s        -0.384307  3.301987 -3.653098 -0.932379 -0.000001  0.333687
  1H   4s         2.181061 -0.724292  0.412657 -0.083892 -0.000000  0.956399
  1H   1pz       -0.004720  0.017993  0.017529  0.043411 -0.000000  0.034634
  1H   1px       -0.008780  0.021464 -0.045010 -0.225345 -0.000000  0.210081
  1H   1py       -0.000000 -0.000000  0.000000 -0.000000  0.013115  0.000000
  2H   1s         0.032075  0.113595  0.105545  0.022818 -0.000000  0.025215
  2H   2s         0.090992  1.662331  1.970658  0.953708  0.000001  0.684943
  2H   3s         0.406332 -3.301667 -3.653763 -0.932263 -0.000001 -0.333882
  2H   4s        -2.178632  0.724163  0.412788 -0.083728  0.000000 -0.956439
  2H   1pz       -0.008402  0.019511  0.046564  0.228553  0.000000  0.205484
  2H   1px       -0.005705  0.020106 -0.012841 -0.020168  0.000000  0.055958
  2H   1py        0.000000  0.000000  0.000000 -0.000000  0.013088  0.000000
                     18        19        20        21        22        23   
                   1.28981   1.32471   1.40974   1.52359   1.72721   2.06616
                   0.00000   0.00000   0.00000   0.00000   0.00000   0.00000
                  --------  --------  --------  --------  --------  --------
  0O   1s        -0.041002  0.000000 -0.101090  0.000000 -0.000002 -0.000006
  0O   2s        -0.083654  0.000000 -0.210966  0.000000 -0.000004 -0.000013
  0O   1pz        0.011746  0.000000  0.019654  0.000000  0.006937  0.118617
  0O   1px       -0.010605  0.000000 -0.017732 -0.000000  0.007688  0.131460
  0O   1py       -0.000000  0.000007 -0.000000  0.028436  0.000000 -0.000000
  0O   3s         0.587726 -0.000000  1.748345 -0.000000  0.000030  0.000048
  0O   2pz        0.123147 -0.000000  0.172787  0.000000  0.037993  0.361252
  0O   2px       -0.111120  0.000000 -0.155894 -0.000000  0.042104  0.400382
  0O   2py       -0.000000  0.000030 -0.000000 -0.019016  0.000000  0.000000
  0O   4s        -0.713173  0.000000 -4.500997  0.000000  0.000080  0.000215
  0O   3pz       -0.718445  0.000000  0.837363 -0.000000 -0.742651 -0.086989
  0O   3px        0.648502  0.000000 -0.755768  0.000000 -0.822807 -0.096275
  0O   3py        0.000000 -0.000036  0.000000  0.711492  0.000000 -0.000000
  0O   5s         1.185131 -0.000000  4.079020 -0.000000 -0.000072 -0.000054
  0O   4pz        0.000411 -0.000000 -0.682352  0.000000  0.272849  0.287783
  0O   4px       -0.000444 -0.000000  0.615863 -0.000000  0.302292  0.318853
  0O   4py       -0.000000  0.000010 -0.000000 -0.121708 -0.000000  0.000000
  0O   1dz2      -0.025205  0.000000  0.015473  0.000000  0.033059  0.184245
  0O   1dxz       0.126167 -0.000000 -0.064522 -0.000000  0.003938  0.021862
  0O   1dyz       0.000000  0.088448  0.000000  0.116567  0.000000 -0.000000
  0O   1dx2y2    -0.017717 -0.000000  0.013549  0.000000 -0.019086 -0.106409
  0O   1dxy      -0.000000  0.098009  0.000000 -0.105199  0.000000 -0.000000
  1H   1s         0.034919 -0.000000 -0.023572  0.000000 -0.092864 -0.600859
  1H   2s        -0.428732 -0.000000  1.576677 -0.000000  0.767654  0.756938
  1H   3s        -0.088860  0.000000 -1.620286  0.000000 -0.565948 -1.329378
  1H   4s        -0.172080  0.000000 -0.260083  0.000000  0.013085  0.393189
  1H   1pz        0.646299 -0.000000 -0.333684 -0.000000  0.818729 -0.068377
  1H   1px       -0.089704  0.000000 -0.334308  0.000000 -0.095606  0.664141
  1H   1py       -0.000000  0.685899  0.000000 -0.767686  0.000000 -0.000000
  2H   1s         0.034910  0.000000 -0.023554  0.000000  0.092885  0.600758
  2H   2s        -0.428622  0.000000  1.576703 -0.000000 -0.767809 -0.757021
  2H   3s        -0.088983 -0.000000 -1.620270  0.000000  0.566054  1.329293
  2H   4s        -0.172107  0.000000 -0.260100  0.000000 -0.013090 -0.393140
  2H   1pz        0.155366 -0.000000  0.298442 -0.000000 -0.178853  0.667371
  2H   1px       -0.633816  0.000000  0.366133  0.000000  0.804593 -0.000193
  2H   1py       -0.000000 -0.685868 -0.000000 -0.767722 -0.000000  0.000000
                     24        25        26        27        28        29   
                   2.20110   2.45331   2.61755   3.16219   3.21306   3.37709
                   0.00000   0.00000   0.00000   0.00000   0.00000   0.00000
                  --------  --------  --------  --------  --------  --------
  0O   1s        -0.046439 -0.033775 -0.000000 -0.000000 -0.000000  0.000756
  0O   2s        -0.094825 -0.083077 -0.000002 -0.000000 -0.000000  0.001494
  0O   1pz       -0.111902  0.021675  0.013583 -0.000000 -0.000000  0.005021
  0O   1px        0.100948 -0.019560  0.015049  0.000000  0.000000 -0.004539
  0O   1py       -0.000000 -0.000000 -0.000000 -0.000665 -0.000003  0.000000
  0O   3s         0.535193  0.582607  0.000050  0.000000  0.000000  0.043876
  0O   2pz       -0.296713 -0.407082 -0.526597  0.000000 -0.000000  0.020321
  0O   2px        0.267666  0.367234 -0.583467 -0.000000 -0.000000 -0.018325
  0O   2py       -0.000000 -0.000000 -0.000000  0.017627  0.000004 -0.000000
  0O   4s         0.359643  2.300293  0.000067 -0.000000 -0.000000 -0.686843
  0O   3pz       -0.003342 -0.756981 -0.661747  0.000000  0.000000  0.495459
  0O   3px        0.003152  0.683039 -0.733214 -0.000000  0.000000 -0.447181
  0O   3py        0.000000  0.000000 -0.000000 -0.320419 -0.000133  0.000000
  0O   5s         0.979336 -2.190885 -0.000025 -0.000000 -0.000000  0.278197
  0O   4pz       -0.238153  0.546131  0.415191  0.000000  0.000000 -0.118479
  0O   4px        0.214784 -0.492824  0.460047 -0.000000  0.000000  0.106944
  0O   4py       -0.000000 -0.000000  0.000000  0.055158  0.000025 -0.000000
  0O   1dz2      -0.127501  0.006839  0.195190 -0.000000 -0.000000 -0.268533
  0O   1dxz      -0.060543  0.058671  0.023173  0.000000  0.000000  1.013007
  0O   1dyz      -0.000000 -0.000000 -0.000000  0.765595  0.704982 -0.000000
  0O   1dx2y2    -0.233191  0.023851 -0.112692 -0.000000  0.000000 -0.256899
  0O   1dxy       0.000000  0.000000 -0.000000 -0.691450  0.780586  0.000000
  1H   1s        -0.645062  0.912610 -0.929312 -0.000000 -0.000000 -0.038221
  1H   2s         0.617054 -2.798973  2.522096  0.000000  0.000000  0.560313
  1H   3s        -1.157480  1.984740 -1.609734 -0.000000 -0.000000 -0.258198
  1H   4s         0.175799 -0.193788  0.355550  0.000000  0.000000  0.019424
  1H   1pz        0.130879  0.102030 -0.086932 -0.000000 -0.000000 -0.452023
  1H   1px        0.677776  0.935978 -1.002272  0.000000  0.000000 -0.098190
  1H   1py        0.000000  0.000000 -0.000000  0.363357 -0.342337 -0.000000
  2H   1s        -0.645322  0.912619  0.929124 -0.000000  0.000000 -0.038242
  2H   2s         0.617459 -2.799358 -2.521990  0.000000 -0.000000  0.560345
  2H   3s        -1.158016  1.984887  1.609640  0.000000  0.000000 -0.258205
  2H   4s         0.175911 -0.193768 -0.355510 -0.000000 -0.000000  0.019442
  2H   1pz       -0.660976 -0.920902 -0.988179 -0.000000  0.000000  0.051458
  2H   1px       -0.199503 -0.197258 -0.188960  0.000000 -0.000000  0.459725
  2H   1py        0.000000  0.000000  0.000000  0.363131  0.342630 -0.000000
                     30        31        32        33        34        35   
                   3.73631   3.94181   5.05355   5.42133   5.72683  49.98404
                   0.00000   0.00000   0.00000   0.00000   0.00000   0.00000
                  --------  --------  --------  --------  --------  --------
  0O   1s         0.019202  0.000004 -0.000000  0.016391  0.000004  2.246839
  0O   2s         0.037891  0.000008 -0.000000  0.031523  0.000009 -2.339073
  0O   1pz        0.224079  0.279526  0.000000 -0.941787 -0.845548  0.009840
  0O   1px       -0.202262  0.309662 -0.000000  0.850154 -0.936689 -0.008877
  0O   1py       -0.000000  0.000000 -1.276918 -0.000000 -0.000000  0.000000
  0O   3s        -0.022486 -0.000046  0.000000 -0.108141 -0.000062  0.287041
  0O   2pz        0.088166 -0.020746 -0.000000  1.353503  1.359264 -0.039995
  0O   2px       -0.079533 -0.023018  0.000000 -1.221789  1.505758  0.036081
  0O   2py        0.000000 -0.000000  1.506411  0.000000  0.000000 -0.000000
  0O   4s        -2.784865 -0.000311  0.000000 -1.392168 -0.000246 -0.165877
  0O   3pz        1.016693  0.876892  0.000000 -0.197760 -0.211422 -0.010838
  0O   3px       -0.917702  0.971413 -0.000000  0.178547 -0.234254  0.009775
  0O   3py       -0.000000  0.000000 -0.804881 -0.000000 -0.000000  0.000000
  0O   5s         1.770140  0.000190 -0.000000  0.712733  0.000136  0.192547
  0O   4pz       -0.498606 -0.406195 -0.000000  0.035051  0.164586 -0.019512
  0O   4px        0.450060 -0.449984  0.000000 -0.031688  0.182385  0.017612
  0O   4py        0.000000 -0.000000  0.299701  0.000000  0.000000 -0.000000
  0O   1dz2      -0.501418 -1.029903  0.000000 -0.170940 -0.525058  0.008970
  0O   1dxz      -0.403242 -0.122249  0.000000 -0.114702 -0.062334  0.007871
  0O   1dyz       0.000000 -0.000000 -0.007268 -0.000000 -0.000000  0.000000
  0O   1dx2y2    -0.951608  0.594486  0.000000 -0.319747  0.303068  0.017144
  0O   1dxy      -0.000000 -0.000000  0.006553  0.000000 -0.000000 -0.000000
  1H   1s         0.238898 -0.358261 -0.000000  0.243279 -0.335950 -0.002877
  1H   2s         1.582637 -0.791729 -0.000000  0.616990 -0.401752 -0.047311
  1H   3s        -0.952380  0.268100  0.000000 -0.281142 -0.021134 -0.032163
  1H   4s        -0.048979  0.304117  0.000000 -0.031468 -0.153635 -0.025491
  1H   1pz       -0.097157  0.044647  0.000000 -0.109107  0.013716  0.006586
  1H   1px       -0.861910  0.661916  0.000000 -0.562360  0.672836  0.063361
  1H   1py        0.000000  0.000000 -0.035568 -0.000000  0.000000  0.000000
  2H   1s         0.238895  0.358394 -0.000000  0.243268  0.336096 -0.002883
  2H   2s         1.582540  0.792037 -0.000000  0.616948  0.401963 -0.047330
  2H   3s        -0.952338 -0.268265  0.000000 -0.281171  0.021028 -0.032156
  2H   4s        -0.048944 -0.304141  0.000000 -0.031522  0.153621 -0.025494
  2H   1pz        0.847349  0.654055 -0.000000  0.548146  0.668095 -0.062373
  2H   1px        0.184749  0.112134 -0.000000  0.166027  0.082480 -0.013032
  2H   1py        0.000000 -0.000000 -0.035578 -0.000000 -0.000000  0.000000



                    ********************************
                    * MULLIKEN POPULATION ANALYSIS *
                    ********************************

--------------------------------------------
MULLIKEN ATOMIC CHARGES AND SPIN POPULATIONS
--------------------------------------------
   0 O :   -0.654853    0.000000
   1 H :    0.327457    0.000000
   2 H :    0.327397    0.000000
Sum of atomic charges         :   -0.0000000
Sum of atomic spin populations:    0.0000000

-----------------------------------------------------
MULLIKEN REDUCED ORBITAL CHARGES AND SPIN POPULATIONS
-----------------------------------------------------
CHARGE
  0 O s       :     3.781821  s :     3.781821
      pz      :     1.467837  p :     4.863247
      px      :     1.436962
      py      :     1.958448
      dz2     :     0.005557  d :     0.009785
      dxz     :     0.000293
      dyz     :     0.000432
      dx2y2   :     0.003151
      dxy     :     0.000352
  1 H s       :     0.608877  s :     0.608877
      pz      :     0.015101  p :     0.063666
      px      :     0.028182
      py      :     0.020383
  2 H s       :     0.608930  s :     0.608930
      pz      :     0.027709  p :     0.063674
      px      :     0.015579
      py      :     0.020386

SPIN
  0 O s       :     0.000000  s :     0.000000
      pz      :     0.000000  p :     0.000000
      px      :     0.000000
      py      :     0.000000
      dz2     :     0.000000  d :     0.000000
      dxz     :     0.000000
      dyz     :     0.000000
      dx2y2   :     0.000000
      dxy     :     0.000000
  1 H s       :     0.000000  s :     0.000000
      pz      :     0.000000  p :     0.000000
      px      :     0.000000
      py      :     0.000000
  2 H s       :     0.000000  s :     0.000000
      pz      :     0.000000  p :     0.000000
      px      :     0.000000
      py      :     0.000000


                     *******************************
                     * LOEWDIN POPULATION ANALYSIS *
                     *******************************

-------------------------------------------
LOEWDIN ATOMIC CHARGES AND SPIN POPULATIONS
-------------------------------------------
   0 O :   -0.243359    0.000000
   1 H :    0.121712    0.000000
   2 H :    0.121646    0.000000

----------------------------------------------------
LOEWDIN REDUCED ORBITAL CHARGES AND SPIN POPULATIONS
----------------------------------------------------
CHARGE
  0 O s       :     3.392094  s :     3.392094
      pz      :     1.488323  p :     4.840477
      px      :     1.454537
      py      :     1.897617
      dz2     :     0.006735  d :     0.010788
      dxz     :     0.000094
      dyz     :     0.000124
      dx2y2   :     0.003735
      dxy     :     0.000101
  1 H s       :     0.690760  s :     0.690760
      pz      :     0.032079  p :     0.187528
      px      :     0.104374
      py      :     0.051075
  2 H s       :     0.690806  s :     0.690806
      pz      :     0.103900  p :     0.187548
      px      :     0.032565
      py      :     0.051083

SPIN
  0 O s       :     0.000000  s :     0.000000
      pz      :     0.000000  p :     0.000000
      px      :     0.000000
      py      :     0.000000
      dz2     :     0.000000  d :     0.000000
      dxz     :     0.000000
      dyz     :     0.000000
      dx2y2   :     0.000000
      dxy     :     0.000000
  1 H s       :     0.000000  s :     0.000000
      pz      :     0.000000  p :     0.000000
      px      :     0.000000
      py      :     0.000000
  2 H s       :     0.000000  s :     0.000000
      pz      :     0.000000  p :     0.000000
      px      :     0.000000
      py      :     0.000000


                      *****************************
                      * MAYER POPULATION ANALYSIS *
                      *****************************

  NA   - Mulliken gross atomic population
  ZA   - Total nuclear charge
  QA   - Mulliken gross atomic charge
  VA   - Mayer's total valence
  BVA  - Mayer's bonded valence
  FA   - Mayer's free valence

  ATOM       NA         ZA         QA         VA         BVA        FA
  0 O      8.6549     8.0000    -0.6549     1.8341     1.8341    -0.0000
  1 H      0.6725     1.0000     0.3275     0.9260     0.9260    -0.0000
  2 H      0.6726     1.0000     0.3274     0.9260     0.9260    -0.0000

  Mayer bond orders larger than 0.100000
B(  0-O ,  1-H ) :   0.9170 B(  0-O ,  2-H ) :   0.9170 

Now starting NBO....

 *********************************** NBO 7.0 ***********************************
             N A T U R A L   A T O M I C   O R B I T A L   A N D
          N A T U R A L   B O N D   O R B I T A L   A N A L Y S I S
 *********************** Giovanni  F. Caramori (I101916) ***********************
  (c) Copyright 1996-2020 Board of Regents of the University of Wisconsin System
      on behalf of the Theoretical Chemistry Institute.  All rights reserved.

          Cite this program [NBO 7.0.8 (11-Feb-2020)] as:

          NBO 7.0.  E. D. Glendening, J. K. Badenhoop, A. E. Reed,
          J. E. Carpenter, J. A. Bohmann, C. M. Morales, P. Karafiloglou,
          C. R. Landis, and F. Weinhold, Theoretical Chemistry Institute,
          University of Wisconsin, Madison, WI (2018)

       /NPA    / : Natural Population Analysis
       /NBO    / : Natural Bond Orbital Analysis
       /AONBO  / : Checkpoint the AO to NBO transformation
       /ARCHIVE/ : Write the archive file to lfn47

 Job title: ORCA Job: H2O

 Warning: natural populations do not reflect C2v point group symmetry


 NATURAL POPULATIONS:  Natural atomic orbital occupancies

  NAO Atom No lang   Type(AO)    Occupancy     Spin
 -----------------------------------------------------
   1    O  1  s      Cor( 1s)     2.00000     0.00000
   2    O  1  s      Val( 2s)     1.75193     0.00000
   3    O  1  s      Ryd( 3s)     0.00041     0.00000
   4    O  1  s      Ryd( 4s)     0.00000     0.00000
   5    O  1  s      Ryd( 5s)     0.00000     0.00000
   6    O  1  px     Val( 2p)     1.60828     0.00000
   7    O  1  px     Ryd( 3p)     0.00171     0.00000
   8    O  1  px     Ryd( 4p)     0.00005     0.00000
   9    O  1  px     Ryd( 5p)     0.00000     0.00000
  10    O  1  py     Val( 2p)     1.99530     0.00000
  11    O  1  py     Ryd( 3p)     0.00144     0.00000
  12    O  1  py     Ryd( 4p)     0.00000     0.00000
  13    O  1  py     Ryd( 5p)     0.00000     0.00000
  14    O  1  pz     Val( 2p)     1.63437     0.00000
  15    O  1  pz     Ryd( 3p)     0.00146     0.00000
  16    O  1  pz     Ryd( 4p)     0.00007     0.00000
  17    O  1  pz     Ryd( 5p)     0.00000     0.00000
  18    O  1  dxy    Ryd( 3d)     0.00046     0.00000
  19    O  1  dxz    Ryd( 3d)     0.00070     0.00000
  20    O  1  dyz    Ryd( 3d)     0.00056     0.00000
  21    O  1  dx2y2  Ryd( 3d)     0.00190     0.00000
  22    O  1  dz2    Ryd( 3d)     0.00270     0.00000

  23    H  2  s      Val( 1s)     0.49668     0.00000
  24    H  2  s      Ryd( 3s)     0.00032     0.00000
  25    H  2  s      Ryd( 2s)     0.00005     0.00000
  26    H  2  s      Ryd( 4s)     0.00000     0.00000
  27    H  2  px     Ryd( 2p)     0.00050     0.00000
  28    H  2  py     Ryd( 2p)     0.00112     0.00000
  29    H  2  pz     Ryd( 2p)     0.00065     0.00000

  30    H  3  s      Val( 1s)     0.49673     0.00000
  31    H  3  s      Ryd( 3s)     0.00032     0.00000
  32    H  3  s      Ryd( 2s)     0.00005     0.00000
  33    H  3  s      Ryd( 4s)     0.00000     0.00000
  34    H  3  px     Ryd( 2p)     0.00063     0.00000
  35    H  3  py     Ryd( 2p)     0.00112     0.00000
  36    H  3  pz     Ryd( 2p)     0.00052     0.00000


 Summary of Natural Population Analysis:

                                     Natural Population                 Natural
             Natural    ---------------------------------------------    Spin
  Atom No    Charge        Core      Valence    Rydberg      Total      Density
 -------------------------------------------------------------------------------
    O  1   -1.00133      2.00000     6.98987    0.01146     9.00133     0.00000
    H  2    0.50069      0.00000     0.49668    0.00263     0.49931     0.00000
    H  3    0.50064      0.00000     0.49673    0.00263     0.49936     0.00000
 ===============================================================================
 * Total *  0.00000      2.00000     7.98328    0.01672    10.00000     0.00000

                                 Natural Population
 ---------------------------------------------------------
   Core                       2.00000 ( 99.9999% of    2)
   Valence                    7.98328 ( 99.7910% of    8)
   Natural Minimal Basis      9.98328 ( 99.8328% of   10)
   Natural Rydberg Basis      0.01672 (  0.1672% of   10)
 ---------------------------------------------------------

    Atom No         Natural Electron Configuration
 ----------------------------------------------------------------------------
      O  1      [core]2s( 1.75)2p( 5.24)3d( 0.01)
      H  2            1s( 0.50)
      H  3            1s( 0.50)


 ***************************************************
 *******         Alpha spin orbitals         *******
 ***************************************************

 Warning: natural populations do not reflect C2v point group symmetry


 NATURAL POPULATIONS:  Natural atomic orbital occupancies

  NAO Atom No lang   Type(AO)    Occupancy      Energy
 -------------------------------------------------------
   1    O  1  s      Cor( 1s)     1.00000     -19.62221
   2    O  1  s      Val( 2s)     0.87596      -0.87677
   3    O  1  s      Ryd( 3s)     0.00020       0.93983
   4    O  1  s      Ryd( 4s)     0.00000       5.53423
   5    O  1  s      Ryd( 5s)     0.00000      34.28359
   6    O  1  px     Val( 2p)     0.80414      -0.34199
   7    O  1  px     Ryd( 3p)     0.00085       0.67968
   8    O  1  px     Ryd( 4p)     0.00003       1.60395
   9    O  1  px     Ryd( 5p)     0.00000       4.98379
  10    O  1  py     Val( 2p)     0.99765      -0.40095
  11    O  1  py     Ryd( 3p)     0.00072       0.63914
  12    O  1  py     Ryd( 4p)     0.00000       1.22063
  13    O  1  py     Ryd( 5p)     0.00000       4.42758
  14    O  1  pz     Val( 2p)     0.81718      -0.34665
  15    O  1  pz     Ryd( 3p)     0.00073       0.70272
  16    O  1  pz     Ryd( 4p)     0.00003       1.56322
  17    O  1  pz     Ryd( 5p)     0.00000       5.28367
  18    O  1  dxy    Ryd( 3d)     0.00023       2.98178
  19    O  1  dxz    Ryd( 3d)     0.00035       3.08345
  20    O  1  dyz    Ryd( 3d)     0.00028       2.97916
  21    O  1  dx2y2  Ryd( 3d)     0.00095       3.28823
  22    O  1  dz2    Ryd( 3d)     0.00135       3.44024

  23    H  2  s      Val( 1s)     0.24834       0.20895
  24    H  2  s      Ryd( 3s)     0.00016       2.21271
  25    H  2  s      Ryd( 2s)     0.00003       0.93405
  26    H  2  s      Ryd( 4s)     0.00000       4.49655
  27    H  2  px     Ryd( 2p)     0.00025       2.59418
  28    H  2  py     Ryd( 2p)     0.00056       1.62646
  29    H  2  pz     Ryd( 2p)     0.00032       1.68220

  30    H  3  s      Val( 1s)     0.24836       0.20896
  31    H  3  s      Ryd( 3s)     0.00016       2.21287
  32    H  3  s      Ryd( 2s)     0.00003       0.93310
  33    H  3  s      Ryd( 4s)     0.00000       4.49852
  34    H  3  px     Ryd( 2p)     0.00031       1.71113
  35    H  3  py     Ryd( 2p)     0.00056       1.62649
  36    H  3  pz     Ryd( 2p)     0.00026       2.56525


 Summary of Natural Population Analysis:

                                     Natural Population
             Natural    ---------------------------------------------
  Atom No    Charge        Core      Valence    Rydberg      Total
 --------------------------------------------------------------------
    O  1   -0.50066      1.00000     3.49494    0.00573     4.50066
    H  2    0.25034      0.00000     0.24834    0.00132     0.24966
    H  3    0.25032      0.00000     0.24836    0.00132     0.24968
 ====================================================================
 * Total *  0.00000      1.00000     3.99164    0.00836     5.00000

                                 Natural Population
 ---------------------------------------------------------
   Core                       1.00000 ( 99.9999% of    1)
   Valence                    3.99164 ( 99.7910% of    4)
   Natural Minimal Basis      4.99164 ( 99.8328% of    5)
   Natural Rydberg Basis      0.00836 (  0.1672% of    5)
 ---------------------------------------------------------

    Atom No         Natural Electron Configuration
 ----------------------------------------------------------------------------
      O  1      [core]2s( 0.88)2p( 2.62)
      H  2            1s( 0.25)
      H  3            1s( 0.25)


 NATURAL BOND ORBITAL ANALYSIS, alpha spin orbitals:

                            Occupancies       Lewis Structure    Low   High
[...]
  30. (0.00000) RY ( 6) H  2            s( 86.45%)p 0.16( 13.55%)
  31. (0.00056) RY ( 1) H  3            s(  0.00%)p 1.00(100.00%)
                                         0.0000  0.0000  0.0000  0.0000  0.0000
                                         1.0000  0.0000
  32. (0.00038) RY ( 2) H  3            s( 12.65%)p 6.91( 87.35%)
                                        -0.0016  0.2625  0.2399 -0.0001 -0.8584
                                         0.0000  0.3697
  33. (0.00015) RY ( 3) H  3            s( 94.30%)p 0.06(  5.70%)
                                         0.0028  0.9554 -0.1737  0.0001  0.1727
                                         0.0000 -0.1649
  34. (0.00000) RY ( 4) H  3            s( 82.76%)p 0.21( 17.24%)
  35. (0.00000) RY ( 5) H  3            s( 86.52%)p 0.16( 13.48%)
  36. (0.00000) RY ( 6) H  3            s( 23.87%)p 3.19( 76.13%)


 NHO DIRECTIONALITY AND BOND BENDING (deviation from line of nuclear centers at
                                      the position of maximum hybrid amplitude)

         [Thresholds for printing:  angular deviation  >  1.0 degree]
                                    p- or d-character  > 25.0%
                                    orbital occupancy  >  0.10e

                        Line of Centers        Hybrid 1             Hybrid 2
                        ---------------  -------------------  ------------------
           NBO            Theta   Phi    Theta   Phi    Dev   Theta   Phi    Dev
 ===============================================================================
   2. LP ( 1) O  1          --     --     42.1  180.0   --      --     --    --
   3. LP ( 2) O  1          --     --     90.6  270.5   --      --     --    --


 SECOND ORDER PERTURBATION THEORY ANALYSIS OF FOCK MATRIX IN NBO BASIS

     Threshold for printing:   0.25 kcal/mol
                                                          E(2) E(NL)-E(L) F(L,NL)
      Donor (L) NBO              Acceptor (NL) NBO      kcal/mol   a.u.    a.u.
 ===============================================================================

 within unit  1
    2. LP ( 1) O  1            26. RY ( 2) H  2            0.48    2.38   0.043
    2. LP ( 1) O  1            32. RY ( 2) H  3            0.48    2.38   0.043
    3. LP ( 2) O  1            25. RY ( 1) H  2            0.77    2.03   0.050
    3. LP ( 2) O  1            31. RY ( 1) H  3            0.77    2.03   0.050


 NATURAL BOND ORBITALS (Summary):

                                                     Principal Delocalizations
           NBO                 Occupancy    Energy   (geminal,vicinal,remote)
 ===============================================================================
 Molecular unit  1  (H2O)
 ------ Lewis --------------------------------------
    1. CR ( 1) O  1             1.00000   -19.62218
    2. LP ( 1) O  1             0.99930    -0.65338  26(v),32(v)
    3. LP ( 2) O  1             0.99888    -0.40271  31(v),25(v)
    4. BD ( 1) O  1- H  2       0.99982    -0.78059
    5. BD ( 1) O  1- H  3       0.99982    -0.78063
 ------ non-Lewis ----------------------------------
    6. BD*( 1) O  1- H  2       0.00000     0.54593
    7. BD*( 1) O  1- H  3       0.00000     0.54600
    8. RY ( 1) O  1             0.00000     1.22887
    9. RY ( 2) O  1             0.00000     2.88811
   10. RY ( 3) O  1             0.00000    34.09955
   11. RY ( 4) O  1             0.00000     4.42032
   12. RY ( 5) O  1             0.00000     3.22402
   13. RY ( 6) O  1             0.00000     2.40386
   14. RY ( 7) O  1             0.00000     1.33143
   15. RY ( 8) O  1             0.00000     1.29056
   16. RY ( 9) O  1             0.00000     4.42931
   17. RY (10) O  1             0.00000     0.73766
   18. RY (11) O  1             0.00000     3.00437
   19. RY (12) O  1             0.00000     4.14400
   20. RY (13) O  1             0.00000     2.49975
   21. RY (14) O  1             0.00000     3.01751
   22. RY (15) O  1             0.00000     2.69911
   23. RY (16) O  1             0.00000     3.23277
   24. RY (17) O  1             0.00000     3.00924
   25. RY ( 1) H  2             0.00056     1.62660
   26. RY ( 2) H  2             0.00038     1.72755
   27. RY ( 3) H  2             0.00015     2.00599
   28. RY ( 4) H  2             0.00000     1.66314
   29. RY ( 5) H  2             0.00000     2.93205
   30. RY ( 6) H  2             0.00000     3.56804
   31. RY ( 1) H  3             0.00056     1.62664
   32. RY ( 2) H  3             0.00038     1.72706
   33. RY ( 3) H  3             0.00015     2.00652
   34. RY ( 4) H  3             0.00000     1.67325
   35. RY ( 5) H  3             0.00000     3.55842
   36. RY ( 6) H  3             0.00000     2.93228
          -------------------------------
                 Total Lewis    4.99782  ( 99.9564%)
           Valence non-Lewis    0.00001  (  0.0001%)
           Rydberg non-Lewis    0.00218  (  0.0435%)
          -------------------------------
               Total unit  1    5.00000  (100.0000%)
              Charge unit  1    0.00000

 $CHOOSE
  ALPHA
   LONE 1 2 END
   BOND S 1 2 S 1 3 END
  END
  BETA
   LONE 1 2 END
   BOND S 1 2 S 1 3 END
  END
 $END

 NBO analysis completed in 0.08 CPU seconds (1 wall second)
 Maximum scratch memory used by NBO was 318086 words (2.43 MB)
Stopping NBO...Storing NBOs: H2O.nbo

                                *** returned from  NBO  program ***

-------
TIMINGS
-------

Total SCF time: 0 days 0 hours 0 min 4 sec 

Total time                  ....       4.508 sec
Sum of individual times     ....       3.942 sec  ( 87.5%)

Fock matrix formation       ....       2.109 sec  ( 46.8%)
  XC integration            ....       0.369 sec  ( 17.5% of F)
    Basis function eval.    ....       0.018 sec  (  4.8% of XC)
    Density eval.           ....       0.051 sec  ( 13.7% of XC)
    XC-Functional eval.     ....       0.049 sec  ( 13.3% of XC)
    XC-Potential eval.      ....       0.027 sec  (  7.3% of XC)
Diagonalization             ....       0.003 sec  (  0.1%)
Density matrix formation    ....       0.017 sec  (  0.4%)
Population analysis         ....       0.303 sec  (  6.7%)
Initial guess               ....       0.016 sec  (  0.3%)
Orbital Transformation      ....       0.000 sec  (  0.0%)
Orbital Orthonormalization  ....       0.001 sec  (  0.0%)
DIIS solution               ....       0.000 sec  (  0.0%)
Grid generation             ....       1.494 sec  ( 33.1%)


-------------------------------------------------------------------------------
                          DFT DISPERSION CORRECTION                            
                                                                               
                              DFTD3 V3.1  Rev 1                                
                              USING zero damping                               
-------------------------------------------------------------------------------
The M062X functional is recognized
Active option DFTDOPT                   ...         3   

molecular C6(AA) [au] = 44.533102 


            DFT-D V3
 parameters
 s6 scaling factor         :     1.0000 
 rs6 scaling factor        :     1.6190 
 s8 scaling factor         :     0.0000 
 rs8 scaling factor        :     1.0000 
 Damping factor alpha6     :    14.0000 
 Damping factor alpha8     :    16.0000 
 ad hoc parameters k1-k3   :    16.0000     1.3333    -4.0000 

 Edisp/kcal,au: -0.000004855939  -0.000000007738 
 E6   /kcal   :  -0.000004856 
 E8   /kcal   :  -0.000000000 
 % E8         :   0.000000000 

-------------------------   ----------------
Dispersion correction           -0.000000008
-------------------------   ----------------


-------------------------   --------------------
FINAL SINGLE POINT ENERGY       -76.434804344392
-------------------------   --------------------

                                *** OPTIMIZATION RUN DONE ***

                            ***************************************
                            *     ORCA property calculations      *
                            ***************************************

                                    ---------------------
                                    Active property flags
                                    ---------------------
   (+) Dipole Moment


------------------------------------------------------------------------------
                       ORCA ELECTRIC PROPERTIES CALCULATION
------------------------------------------------------------------------------

Dipole Moment Calculation                       ... on
Quadrupole Moment Calculation                   ... off
Polarizability Calculation                      ... off
GBWName                                         ... H2O.gbw
Electron density file                           ... H2O.scfp
The origin for moment calculation is the CENTER OF MASS  = (-4.660602,  2.564150 -0.425340)

-------------
DIPOLE MOMENT
-------------
                                X             Y             Z
Electronic contribution:      0.04362      -0.00000      -0.04818
Nuclear contribution   :      0.65159       0.00000      -0.72194
                        -----------------------------------------
Total Dipole Moment    :      0.69520      -0.00000      -0.77012
                        -----------------------------------------
Magnitude (a.u.)       :      1.03750
Magnitude (Debye)      :      2.63711



--------------------
Rotational spectrum 
--------------------
 
Rotational constants in cm-1:    27.589807    14.336308     9.434119 
Rotational constants in MHz : 827121.591520 429791.715737 282827.786045 

 Dipole components along the rotational axes: 
x,y,z [a.u.] :     0.000198    -1.037497     0.000000 
x,y,z [Debye]:     0.000503    -2.637107     0.000000 

 

----------------------------------------------------------------------------
                           ORCA NUMERICAL FREQUENCIES
                              (12-process run)
----------------------------------------------------------------------------

Number of atoms                ... 3
Central differences            ... used
Number of displacements        ... 18
Numerical increment            ... 5.000e-03 bohr
IR-spectrum generation         ... on
Raman-spectrum generation      ... off
Surface Crossing Hessian       ... off

 WARNING: There are more processes than displacements to do
  ====> : Reducing number of processes to   9

The output will be reduced. Please look at the following files:
SCF program output             ... >H2O.lastscf
Integral program output        ... >H2O.lastint
Gradient program output        ... >H2O.lastgrad
Dipole moment program output   ... >H2O.lastmom
AutoCI program output          ... >H2O.lastautoci


         <<< Energy and Gradient at the input geometry >>>

        <<< Energy and Gradient at displaced geometries >>>
             <<<Displacing   1/coordinate 2 (+)>>>
             <<<Displacing   3/coordinate 2 (+)>>>
             <<<Displacing   3/coordinate 3 (+)>>>
             <<<Displacing   2/coordinate 2 (+)>>>
             <<<Displacing   1/coordinate 1 (+)>>>
             <<<Displacing   1/coordinate 3 (+)>>>
             <<<Displacing   2/coordinate 3 (+)>>>
             <<<Displacing   3/coordinate 1 (+)>>>
             <<<Displacing   2/coordinate 1 (+)>>>
             <<<Displacing   1/coordinate 3 (-)>>>
             <<<Displacing   2/coordinate 2 (-)>>>
             <<<Displacing   2/coordinate 3 (-)>>>
             <<<Displacing   1/coordinate 1 (-)>>>
             <<<Displacing   3/coordinate 3 (-)>>>
             <<<Displacing   3/coordinate 1 (-)>>>
             <<<Displacing   2/coordinate 1 (-)>>>
             <<<Displacing   1/coordinate 2 (-)>>>
             <<<Displacing   3/coordinate 2 (-)>>>

-----------------------
VIBRATIONAL FREQUENCIES
-----------------------

Scaling factor for frequencies =  1.000000000 (already applied!)

   0:         0.00 cm**-1
   1:         0.00 cm**-1
   2:         0.00 cm**-1
   3:         0.00 cm**-1
   4:         0.00 cm**-1
   5:         0.00 cm**-1
   6:      1571.56 cm**-1
   7:      3861.35 cm**-1
   8:      3951.47 cm**-1


------------
NORMAL MODES
------------

These modes are the cartesian displacements weighted by the diagonal matrix
M(i,i)=1/sqrt(m[i]) where m[i] is the mass of the displaced atom
Thus, these vectors are normalized but *not* orthogonal

                  0          1          2          3          4          5    
      0       0.000000   0.000000   0.000000   0.000000   0.000000   0.000000
      1       0.000000   0.000000   0.000000   0.000000   0.000000   0.000000
      2       0.000000   0.000000   0.000000   0.000000   0.000000   0.000000
      3       0.000000   0.000000   0.000000   0.000000   0.000000   0.000000
      4       0.000000   0.000000   0.000000   0.000000   0.000000   0.000000
      5       0.000000   0.000000   0.000000   0.000000   0.000000   0.000000
      6       0.000000   0.000000   0.000000   0.000000   0.000000   0.000000
      7       0.000000   0.000000   0.000000   0.000000   0.000000   0.000000
      8       0.000000   0.000000   0.000000   0.000000   0.000000   0.000000
                   6          7          8    
      0      -0.046911  -0.034230  -0.052257
      1      -0.000000   0.000000  -0.000000
      2       0.051942   0.037527  -0.047463
      3       0.049605   0.703205   0.700235
      4       0.000000  -0.000000   0.000000
      5      -0.703608   0.089463   0.057106
      6       0.694968  -0.159906   0.129186
      7       0.000000   0.000000  -0.000000
      8      -0.120814  -0.685091   0.696231


-----------
IR SPECTRUM  
-----------

 Mode    freq (cm**-1)   T**2         TX         TY         TZ
-------------------------------------------------------------------
   6:      1571.56  134.627265  (  7.747019  -0.000281  -8.637763)
   7:      3861.35   73.479766  (  5.779931   0.000035  -6.330257)
   8:      3951.47  193.058806  ( 10.322113   0.000043   9.301225)

The first frequency considered to be a vibration is 6
The total number of vibrations considered is 3


--------------------------
THERMOCHEMISTRY AT 298.15K
--------------------------

Temperature         ... 298.15 K
Pressure            ... 1.00 atm
Total Mass          ... 18.02 AMU

Throughout the following assumptions are being made:
  (1) The electronic state is orbitally nondegenerate
  (2) There are no thermally accessible electronically excited states
  (3) Hindered rotations indicated by low frequency modes are not
      treated as such but are treated as vibrations and this may
      cause some error
  (4) All equations used are the standard statistical mechanics
      equations for an ideal gas
  (5) All vibrations are strictly harmonic

freq.    1571.56  E(vib)   ...       0.00 
freq.    3861.35  E(vib)   ...       0.00 
freq.    3951.47  E(vib)   ...       0.00 

------------
INNER ENERGY
------------

The inner energy is: U= E(el) + E(ZPE) + E(vib) + E(rot) + E(trans)
    E(el)   - is the total energy from the electronic structure calculation
              = E(kin-el) + E(nuc-el) + E(el-el) + E(nuc-nuc)
    E(ZPE)  - the the zero temperature vibrational energy from the frequency calculation
    E(vib)  - the the finite temperature correction to E(ZPE) due to population
              of excited vibrational states
    E(rot)  - is the rotational thermal energy
    E(trans)- is the translational thermal energy

Summary of contributions to the inner energy U:
Electronic energy                ...    -76.43480435 Eh
Zero point energy                ...      0.02137920 Eh      13.42 kcal/mol
Thermal vibrational correction   ...      0.00000364 Eh       0.00 kcal/mol
Thermal rotational correction    ...      0.00141627 Eh       0.89 kcal/mol
Thermal translational correction ...      0.00141627 Eh       0.89 kcal/mol
-----------------------------------------------------------------------
Total thermal energy                    -76.41058896 Eh


Summary of corrections to the electronic energy:
(perhaps to be used in another calculation)
Total thermal correction                  0.00283619 Eh       1.78 kcal/mol
Non-thermal (ZPE) correction              0.02137920 Eh      13.42 kcal/mol
-----------------------------------------------------------------------
Total correction                          0.02421539 Eh      15.20 kcal/mol


--------
ENTHALPY
--------

The enthalpy is H = U + kB*T
                kB is Boltzmann's constant
Total free energy                 ...    -76.41058896 Eh 
Thermal Enthalpy correction       ...      0.00094421 Eh       0.59 kcal/mol
-----------------------------------------------------------------------
Total Enthalpy                    ...    -76.40964475 Eh


Note: Rotational entropy computed according to Herzberg 
Infrared and Raman Spectra, Chapter V,1, Van Nostrand Reinhold, 1945 
Point Group:  Cs, Symmetry Number:   1  
Rotational constants in cm-1:    27.589807    14.336308     9.434119 

Vibrational entropy computed according to the QRRHO of S. Grimme
Chem.Eur.J. 2012 18 9955


-------
ENTROPY
-------

The entropy contributions are T*S = T*(S(el)+S(vib)+S(rot)+S(trans))
     S(el)   - electronic entropy
     S(vib)  - vibrational entropy
     S(rot)  - rotational entropy
     S(trans)- translational entropy
The entropies will be listed as mutliplied by the temperature to get
units of energy

Electronic entropy                ...      0.00000000 Eh      0.00 kcal/mol
Vibrational entropy               ...      0.00000413 Eh      0.00 kcal/mol
Rotational entropy                ...      0.00562807 Eh      3.53 kcal/mol
Translational entropy             ...      0.01644380 Eh     10.32 kcal/mol
-----------------------------------------------------------------------
Final entropy term                ...      0.02207599 Eh     13.85 kcal/mol

In case the symmetry of your molecule has not been determined correctly
or in case you have a reason to use a different symmetry number we print 
out the resulting rotational entropy values for sn=1,12 :
 --------------------------------------------------------
|  sn= 1 | S(rot)=       0.00562807 Eh      3.53 kcal/mol|
|  sn= 2 | S(rot)=       0.00497361 Eh      3.12 kcal/mol|
|  sn= 3 | S(rot)=       0.00459078 Eh      2.88 kcal/mol|
|  sn= 4 | S(rot)=       0.00431915 Eh      2.71 kcal/mol|
|  sn= 5 | S(rot)=       0.00410847 Eh      2.58 kcal/mol|
|  sn= 6 | S(rot)=       0.00393632 Eh      2.47 kcal/mol|
|  sn= 7 | S(rot)=       0.00379078 Eh      2.38 kcal/mol|
|  sn= 8 | S(rot)=       0.00366470 Eh      2.30 kcal/mol|
|  sn= 9 | S(rot)=       0.00355349 Eh      2.23 kcal/mol|
|  sn=10 | S(rot)=       0.00345401 Eh      2.17 kcal/mol|
|  sn=11 | S(rot)=       0.00336402 Eh      2.11 kcal/mol|
|  sn=12 | S(rot)=       0.00328187 Eh      2.06 kcal/mol|
 --------------------------------------------------------


-------------------
GIBBS FREE ENERGY
-------------------

The Gibbs free energy is G = H - T*S

Total enthalpy                    ...    -76.40964475 Eh 
Total entropy correction          ...     -0.02207599 Eh    -13.85 kcal/mol
-----------------------------------------------------------------------
Final Gibbs free energy         ...    -76.43172074 Eh

For completeness - the Gibbs free energy minus the electronic energy
G-E(el)                           ...      0.00308360 Eh      1.93 kcal/mol


Total Time for Numerical Frequencies  :        47.305 sec

Timings for individual modules:

Sum of individual times         ...       63.113 sec (=   1.052 min)
GTO integral calculation        ...        8.026 sec (=   0.134 min)  12.7 %
SCF iterations                  ...       47.244 sec (=   0.787 min)  74.9 %
SCF Gradient evaluation         ...        7.787 sec (=   0.130 min)  12.3 %
Geometry relaxation             ...        0.056 sec (=   0.001 min)   0.1 %
                             ****ORCA TERMINATED NORMALLY****
TOTAL RUN TIME: 0 days 0 hours 1 minutes 41 seconds 820 msec
