
                                 *****************
                                 * O   R   C   A *
                                 *****************

           --- An Ab Initio, DFT and Semiempirical electronic structure package ---

                  #######################################################
                  #                        -***-                        #
                  #          Department of theory and spectroscopy      #
                  #               Directorship: Frank Neese             #
                  #        Max Planck Institute fuer Kohlenforschung    #
                  #                Kaiser Wilhelm Platz 1               #
                  #                 D-45470 Muelheim/Ruhr               #
                  #                      Germany                        #
                  #                                                     #
                  #                  All rights reserved                #
                  #                        -***-                        #
                  #######################################################


                         Program Version 4.2.1 -  RELEASE  -


 With contributions from (in alphabetic order):
   Daniel Aravena         : Magnetic Suceptibility
   Michael Atanasov       : Ab Initio Ligand Field Theory (pilot matlab implementation)
   Alexander A. Auer      : GIAO ZORA, VPT2
   Ute Becker             : Parallelization
   Giovanni Bistoni       : ED, misc. LED, open-shell LED, HFLD
   Martin Brehm           : Molecular dynamics
   Dmytro Bykov           : SCF Hessian
   Vijay G. Chilkuri      : MRCI spin determinant printing, contributions to CSF-ICE
   Dipayan Datta          : RHF DLPNO-CCSD density
   Achintya Kumar Dutta   : EOM-CC, STEOM-CC
   Dmitry Ganyushin       : Spin-Orbit,Spin-Spin,Magnetic field MRCI
   Miquel Garcia          : C-PCM Hessian, Gaussian charge scheme
   Yang Guo               : DLPNO-NEVPT2, CIM, IAO-localization
   Andreas Hansen         : Spin unrestricted coupled pair/coupled cluster methods
   Benjamin Helmich-Paris : CASSCF linear response (MC-RPA)
   Lee Huntington         : MR-EOM, pCC
   Robert Izsak           : Overlap fitted RIJCOSX, COSX-SCS-MP3, EOM
   Christian Kollmar      : KDIIS, OOCD, Brueckner-CCSD(T), CCSD density
   Simone Kossmann        : Meta GGA functionals, TD-DFT gradient, OOMP2, MP2 Hessian
   Martin Krupicka        : AUTO-CI
   Lucas Lang             : DCDCAS
   Dagmar Lenk            : GEPOL surface, SMD
   Dimitrios Liakos       : Extrapolation schemes; Compound Job, initial MDCI parallelization
   Dimitrios Manganas     : Further ROCIS development; embedding schemes
   Dimitrios Pantazis     : SARC Basis sets
   Taras Petrenko         : DFT Hessian,TD-DFT gradient, ASA, ECA, R-Raman, ABS, FL, XAS/XES, NRVS
   Peter Pinski           : DLPNO-MP2, DLPNO-MP2 Gradient
   Christoph Reimann      : Effective Core Potentials
   Marius Retegan         : Local ZFS, SOC
   Christoph Riplinger    : Optimizer, TS searches, QM/MM, DLPNO-CCSD(T), (RO)-DLPNO pert. Triples
   Tobias Risthaus        : Range-separated hybrids, TD-DFT gradient, RPA, STAB
   Michael Roemelt        : Original ROCIS implementation
   Masaaki Saitow         : Open-shell DLPNO-CCSD energy and density
   Barbara Sandhoefer     : DKH picture change effects
   Avijit Sen             : IP-ROCIS
   Kantharuban Sivalingam : CASSCF convergence, NEVPT2, FIC-MRCI
   Bernardo de Souza      : ESD, SOC TD-DFT
   Georgi Stoychev        : AutoAux, RI-MP2 NMR
   Willem Van den Heuvel  : Paramagnetic NMR
   Boris Wezisla          : Elementary symmetry handling
   Frank Wennmohs         : Technical directorship


 We gratefully acknowledge several colleagues who have allowed us to
 interface, adapt or use parts of their codes:
   Stefan Grimme, W. Hujo, H. Kruse,             : VdW corrections, initial TS optimization,
                  C. Bannwarth                     DFT functionals, gCP, sTDA/sTD-DF
   Ed Valeev, F. Pavosevic, A. Kumar             : LibInt (2-el integral package), F12 methods
   Garnet Chan, S. Sharma, J. Yang, R. Olivares  : DMRG
   Ulf Ekstrom                                   : XCFun DFT Library
   Mihaly Kallay                                 : mrcc  (arbitrary order and MRCC methods)
   Andreas Klamt, Michael Diedenhofen            : otool_cosmo (COSMO solvation model)
   Jiri Pittner, Ondrej Demel                    : Mk-CCSD
   Frank Weinhold                                : gennbo (NPA and NBO analysis)
   Christopher J. Cramer and Donald G. Truhlar   : smd solvation model
   Lars Goerigk                                  : TD-DFT with DH, B97 family of functionals
   V. Asgeirsson, H. Jonsson                     : NEB implementation
   FAccTs GmbH                                   : IRC, NEB, NEB-TS, Multilevel, MM, QM/MM, CI optimization
   S Lehtola, MJT Oliveira, MAL Marques          : LibXC Library


 Your calculation uses the libint2 library for the computation of 2-el integrals
 For citations please refer to: http://libint.valeyev.net

 Your ORCA version has been built with support for libXC version: 4.2.3
 For citations please refer to: https://tddft.org/programs/libxc/

 This ORCA versions uses:
   CBLAS   interface :  Fast vector & matrix operations
   LAPACKE interface :  Fast linear algebra routines
   SCALAPACK package :  Parallel linear algebra routines




***************************************
The coordinates will be read from file: NH2·.xyz
***************************************


Your calculation utilizes the atom-pairwise dispersion correction
with the zero-damping scheme (D30)
Cite in your paper:
S.Grimme, J.Antony, S.Ehrlich and H.Krieg, J.Chem.Phys., 132, (2010), 154104 
   

Your calculation utilizes the SMD solvation module
Please cite in your paper:
A.V. Marenich, C.J. Cramer, D.G. Truhlar J. Phys. Chem. B, 113, (2009), 6378 

XCFun DFT library Copyright 2009-2010 Ulf Ekstrom and contributors.
See http://admol.org/xcfun for more information. This is free soft-
ware; see the source code for copying conditions. There is ABSOLUTELY
NO WARRANTY; not even for MERCHANTABILITY or FITNESS FOR A PARTICULAR
PURPOSE. For details see the documentation. Scientific users of this 
library should cite U. Ekstrom, L. Visscher, R. Bast, A. J. Thorvald-
sen and K. Ruud; J.Chem.Theor.Comp. 2010, DOI: 10.1021/ct100117s
XCFun Version 0.99 
----- Orbital basis set information -----
Your calculation utilizes the basis: 6-311++G(d,p)
   H, Li - Ne  : R. Krishnan, J. S. Binkley, R. Seeger and J. A. Pople, J. Chem. Phys. 72, 650 (1980).
   Na - Ar     : A. D. McLean and G. S. Chandler J. Chem. Phys. 72, 5639, (1980).
   K  - Ca     : J.-P. Blaudeau, M. P. McGrath, L. A. Curtiss and L. Radom, J. Chem. Phys. 107, 5016 (1997).
   Ga - Kr     : L. A. Curtiss, M. P. McGrath, J.-P. Blandeau, N. E. Davis, R. C. Binning and L. Radom, J. Chem. Phys. 103, 6104 (1995).
   Pol./Diff.
   H, Li - Cl  : T. Clark, J. Chandrasekhar and P. v. R. Schleyer, J. Comp. Chem. 4, 294 (1983).
   H - Ne      : M. J. Frisch, J. A. Pople and J. S. Binkley, J. Chem. Phys. 80, 3265 (1984).

================================================================================
                                        WARNINGS
                       Please study these warnings very carefully!
================================================================================


WARNING: The environment variable RSH_COMMAND is not set!
  ===> : All Displacements for the Numerical Hessian calculation
         will be started on localhost

WARNING: Geometry Optimization
  ===> : Switching off AutoStart
         For restart on a previous wavefunction, please use MOREAD

INFO   : the flag for use of LIBINT has been found!

================================================================================
                                       INPUT FILE
================================================================================
NAME = NH2·.inp
|  1> ! UHF M062X D3Zero 6-311++G(d,p) Opt NumFreq TightOpt TightSCF Grid6 NoFinalGrid PrintBasis PrintMOs NBO
|  2> 
|  3> %pal
|  4>  nprocs 12
|  5> end
|  6> 
|  7> %cpcm
|  8>  smd true
|  9>  smdsolvent "water"
| 10> end
| 11> 
| 12> *xyzfile 0 2 NH2·.xyz
| 13> 
| 14>                          ****END OF INPUT****
================================================================================

                       *****************************
                       * Geometry Optimization Run *
                       *****************************

Geometry optimization settings:
Update method            Update   .... BFGS
Choice of coordinates    CoordSys .... Z-matrix Internals
Initial Hessian          InHess   .... Almoef's Model

Convergence Tolerances:
Energy Change            TolE     ....  1.0000e-06 Eh
Max. Gradient            TolMAXG  ....  1.0000e-04 Eh/bohr
RMS Gradient             TolRMSG  ....  3.0000e-05 Eh/bohr
Max. Displacement        TolMAXD  ....  1.0000e-03 bohr
RMS Displacement         TolRMSD  ....  6.0000e-04 bohr
Strict Convergence                ....  False
------------------------------------------------------------------------------
                        ORCA OPTIMIZATION COORDINATE SETUP
------------------------------------------------------------------------------

The optimization will be done in new redundant internal coordinates
Making redundant internal coordinates   ...  (new redundants) done
Evaluating the initial hessian          ...  (Almloef) done
Evaluating the coordinates              ...  done
Calculating the B-matrix                .... done
Calculating the G-matrix                .... done
Diagonalizing the G-matrix              .... done
The first mode is                       ....    0
The number of degrees of freedom        ....    3

    -----------------------------------------------------------------
                    Redundant Internal Coordinates


    -----------------------------------------------------------------
         Definition                    Initial Value    Approx d2E/dq
    -----------------------------------------------------------------
      1. B(H   1,N   0)                  1.0370         0.391859   
      2. B(H   2,N   0)                  1.0369         0.391935   
      3. A(H   1,N   0,H   2)          102.6479         0.293861   
    -----------------------------------------------------------------

Number of atoms                         .... 3
Number of degrees of freedom            .... 3

         *************************************************************
         *                GEOMETRY OPTIMIZATION CYCLE   1            *
         *************************************************************
---------------------------------
CARTESIAN COORDINATES (ANGSTROEM)
---------------------------------
  N     -4.106851   -0.476837    0.052939
  H     -4.434272   -1.449437   -0.096052
  H     -4.434177    0.006704   -0.803968

----------------------------
CARTESIAN COORDINATES (A.U.)
----------------------------
  NO LB      ZA    FRAG     MASS         X           Y           Z
   0 N     7.0000    0    14.007   -7.760824   -0.901091    0.100041
   1 H     1.0000    0     1.008   -8.379559   -2.739039   -0.181511
   2 H     1.0000    0     1.008   -8.379380    0.012668   -1.519279

--------------------------------
INTERNAL COORDINATES (ANGSTROEM)
--------------------------------
 N      0   0   0     0.000000000000     0.00000000     0.00000000
 H      1   0   0     1.036992862243     0.00000000     0.00000000
 H      1   2   0     1.036939572481   102.64792591     0.00000000

---------------------------
INTERNAL COORDINATES (A.U.)
---------------------------
 N      0   0   0     0.000000000000     0.00000000     0.00000000
 H      1   0   0     1.959632512471     0.00000000     0.00000000
 H      1   2   0     1.959531809414   102.64792591     0.00000000

---------------------
BASIS SET INFORMATION
---------------------
There are 2 groups of distinct atoms

 Group   1 Type N   : 12s6p1d contracted to 5s4p1d pattern {63111/3111/1}
 Group   2 Type H   : 6s1p contracted to 4s1p pattern {3111/1}

Atom   0N    basis set group =>   1
Atom   1H    basis set group =>   2
Atom   2H    basis set group =>   2

-------------------------
BASIS SET IN INPUT FORMAT
-------------------------

 # Basis set for element : H 
 NewGTO H 
 S 3 
   1      33.8650000000      0.0254938145
   2       5.0947900000      0.1903731086
   3       1.1587900000      0.8521614860
 S 1 
   1       0.3258400000      1.0000000000
 S 1 
   1       0.1027410000      1.0000000000
 S 1 
   1       0.0360000000      1.0000000000
 P 1 
   1       0.7500000000      1.0000000000
  end;

 # Basis set for element : N 
 NewGTO N 
 S 6 
   1    6293.4800000000      0.0019697881
   2     949.0440000000      0.0149612859
   3     218.7760000000      0.0735005308
   4      63.6916000000      0.2489367658
   5      18.8282000000      0.6024594331
   6       2.7202300000      0.2562017589
 S 3 
   1      30.6331000000      0.1119060795
   2       7.0261400000      0.9216666549
   3       2.1120500000     -0.0025691918
 P 3 
   1      30.6331000000      0.0383119186
   2       7.0261400000      0.2374031155
   3       2.1120500000      0.8175923978
 S 1 
   1       0.6840090000      1.0000000000
 P 1 
   1       0.6840090000      1.0000000000
 S 1 
   1       0.2008780000      1.0000000000
 P 1 
   1       0.2008780000      1.0000000000
 S 1 
   1       0.0639000000      1.0000000000
 P 1 
   1       0.0639000000      1.0000000000
 D 1 
   1       0.9130000000      1.0000000000
  end;



           ************************************************************
           *        Program running with 12 parallel MPI-processes    *
           *              working on a common directory               *
           ************************************************************
------------------------------------------------------------------------------
                           ORCA GTO INTEGRAL CALCULATION
------------------------------------------------------------------------------

                         BASIS SET STATISTICS AND STARTUP INFO

 # of primitive gaussian shells          ...   33
 # of primitive gaussian functions       ...   53
 # of contracted shells                  ...   20
 # of contracted basis functions         ...   36
 Highest angular momentum                ...    2
 Maximum contraction depth               ...    6
 Integral package used                   ... LIBINT
 Integral threshhold            Thresh   ...  2.500e-11
 Primitive cut-off              TCut     ...  2.500e-12


------------------------------ INTEGRAL EVALUATION ----------------------------


 * One electron integrals 
 Pre-screening matrix                    ... done
 Shell pair data                         ... done (   0.000 sec)



           ************************************************************
           *        Program running with 12 parallel MPI-processes    *
           *              working on a common directory               *
           ************************************************************
-------------------------------------------------------------------------------
                                 ORCA SCF
-------------------------------------------------------------------------------

------------
SCF SETTINGS
------------
Hamiltonian:
 Density Functional     Method          .... DFT(GTOs)
 Exchange Functional    Exchange        .... M062X
 Correlation Functional Correlation     .... M062X
 Gradients option       PostSCFGGA      .... off
 Hybrid DFT is turned on
   Fraction HF Exchange ScalHFX         ....  0.540000
   Scaling of DF-GGA-X  ScalDFX         ....  0.460000
   Scaling of DF-GGA-C  ScalDFC         ....  1.000000
   Scaling of DF-LDA-C  ScalLDAC        ....  1.000000
   Perturbative correction              ....  0.000000
   Density functional embedding theory  .... OFF


General Settings:
 Integral files         IntName         .... NH2·
 Hartree-Fock type      HFTyp           .... UHF
 Total Charge           Charge          ....    0
 Multiplicity           Mult            ....    2
 Number of Electrons    NEL             ....    9
 Basis Dimension        Dim             ....   36
 Nuclear Repulsion      ENuc            ....      7.4712139536 Eh

Convergence Acceleration:
 DIIS                   CNVDIIS         .... on
   Start iteration      DIISMaxIt       ....    12
   Startup error        DIISStart       ....  0.200000
   # of expansion vecs  DIISMaxEq       ....     5
   Bias factor          DIISBfac        ....   1.050
   Max. coefficient     DIISMaxC        ....  10.000
 Newton-Raphson         CNVNR           .... off
 SOSCF                  CNVSOSCF        .... off
 Level Shifting         CNVShift        .... on
   Level shift para.    LevelShift      ....    0.2500
   Turn off err/grad.   ShiftErr        ....    0.0010
 Zerner damping         CNVZerner       .... off
 Static damping         CNVDamp         .... on
   Fraction old density DampFac         ....    0.7000
   Max. Damping (<1)    DampMax         ....    0.9800
   Min. Damping (>=0)   DampMin         ....    0.0000
   Turn off err/grad.   DampErr         ....    0.1000
 Fernandez-Rico         CNVRico         .... off

SCF Procedure:
 Maximum # iterations   MaxIter         ....   125
 SCF integral mode      SCFMode         .... Direct
   Integral package                     .... LIBINT
 Reset frequency        DirectResetFreq ....    20
 Integral Threshold     Thresh          ....  2.500e-11 Eh
 Primitive CutOff       TCut            ....  2.500e-12 Eh

Convergence Tolerance:
 Convergence Check Mode ConvCheckMode   .... Total+1el-Energy
 Convergence forced     ConvForced      .... 0
 Energy Change          TolE            ....  1.000e-08 Eh
 1-El. energy change                    ....  1.000e-05 Eh
 DIIS Error             TolErr          ....  5.000e-07


Diagonalization of the overlap matrix:
Smallest eigenvalue                        ... 4.804e-03
Time for diagonalization                   ...    0.008 sec
Threshold for overlap eigenvalues          ... 1.000e-08
Number of eigenvalues below threshold      ... 0
Time for construction of square roots      ...    0.015 sec
Total time needed                          ...    0.023 sec

-------------------
DFT GRID GENERATION
-------------------

General Integration Accuracy     IntAcc      ...  5.340
Radial Grid Type                 RadialGrid  ... Gauss-Chebyshev
Angular Grid (max. acc.)         AngularGrid ... Lebedev-590
Angular grid pruning method      GridPruning ... 3 (G Style)
Weight generation scheme         WeightScheme... Becke
Basis function cutoff            BFCut       ...    1.0000e-11
Integration weight cutoff        WCut        ...    1.0000e-14
Grids for H and He will be reduced by one unit

# of grid points (after initial pruning)     ...  38344 (   0.0 sec)
# of grid points (after weights+screening)   ...  38018 (   0.1 sec)
nearest neighbour list constructed           ...    0.0 sec
Grid point re-assignment to atoms done       ...    0.0 sec
Grid point division into batches done        ...    0.7 sec
Reduced shell lists constructed in    0.7 sec

Total number of grid points                  ...    38018
Total number of batches                      ...      596
Average number of points per batch           ...       63
Average number of grid points per atom       ...    12673
Average number of shells per batch           ...    11.92 (59.61%)
Average number of basis functions per batch  ...    20.90 (58.06%)
Average number of large shells per batch     ...     9.53 (79.93%)
Average number of large basis fcns per batch ...    16.00 (76.55%)
Maximum spatial batch extension              ...  14.65, 13.64, 13.64 au
Average spatial batch extension              ...   0.50,  0.45,  0.46 au

Time for grid setup =    1.890 sec

------------------------------
INITIAL GUESS: MODEL POTENTIAL
------------------------------
Loading Hartree-Fock densities                     ... done
Calculating cut-offs                               ... done
Setting up the integral package                    ... done
Initializing the effective Hamiltonian             ... done
Starting the Coulomb interaction                   ... done (   0.0 sec)
Reading the grid                                   ... done
Mapping shells                                     ... done
Starting the XC term evaluation                    ... done (   0.1 sec)
  promolecular density results
     # of electrons  =      8.999020592
     EX              =     -7.043443775
     EC              =     -0.268352146
     EX+EC           =     -7.311795921
Transforming the Hamiltonian                       ... done (   0.0 sec)
Diagonalizing the Hamiltonian                      ... done (   0.0 sec)
Back transforming the eigenvectors                 ... done (   0.0 sec)
Now organizing SCF variables                       ... done
                      ------------------
                      INITIAL GUESS DONE (   2.2 sec)
                      ------------------

--------------------
CPCM SOLVATION MODEL
--------------------
CPCM parameters:
  Epsilon                                         ...      78.3550
  Refrac                                          ...       1.0000
  Rsolv                                           ...       1.3000
  Surface type                                    ...    GEPOL SES
  Epsilon function type                           ...         CPCM
Solvent:                                     ... WATER
SMD-CDS solvent descriptors:
  Soln                                       ...    1.3328
  Soln25                                     ...    1.3323
  Sola                                       ...    0.0000
  Solb                                       ...    0.0000
  Solg                                       ...    0.0000
  Solc                                       ...    0.0000
  Solh                                       ...    0.0000
Radii:
 Radius for N  used is    3.5716 Bohr (=   1.8900 Ang.)
 Radius for H  used is    2.2677 Bohr (=   1.2000 Ang.)
Calculating surface                               ...        done! (  0.0s)
GEPOL surface points                              ...          109
GEPOL Volume                                      ...     201.7728
GEPOL Surface-area                                ...     168.3204
Calculating surface distance matrix               ...        done! (  0.0s)
Performing Cholesky decomposition & store         ...        done! (  0.0s)
Overall time for CPCM initialization              ...                 0.0s
--------------
SCF ITERATIONS
--------------
ITER       Energy         Delta-E        Max-DP      RMS-DP      [F,P]     Damp
               ***  Starting incremental Fock matrix formation  ***
  0    -55.8376648762   0.000000000000 0.02775468  0.00127309  0.1910998 0.7000
  1    -55.8533590349  -0.015694158773 0.01743276  0.00088849  0.1022596 0.7000
                               ***Turning on DIIS***
  2    -55.8607014508  -0.007342415831 0.02778923  0.00159566  0.0439589 0.0000
  3    -55.8718227300  -0.011121279288 0.01307245  0.00063362  0.0478928 0.0000
  4    -55.8742434529  -0.002420722843 0.00197734  0.00015237  0.0055474 0.0000
  5    -55.8743551932  -0.000111740291 0.00131446  0.00007732  0.0014580 0.0000
  6    -55.8743788666  -0.000023673400 0.00092136  0.00006353  0.0005968 0.0000
  7    -55.8743862667  -0.000007400092 0.00013732  0.00001264  0.0000635 0.0000
  8    -55.8743865642  -0.000000297520 0.00003251  0.00000321  0.0000094 0.0000
  9    -55.8743865858  -0.000000021659 0.00001257  0.00000116  0.0000023 0.0000
                 **** Energy Check signals convergence ****

               *****************************************************
               *                     SUCCESS                       *
               *           SCF CONVERGED AFTER  10 CYCLES          *
               *****************************************************


SMD CDS free energy correction energy :                 1.47155     Kcal/mol
Total Energy after SMD CDS correction =               -55.872041521 Eh

----------------
TOTAL SCF ENERGY
----------------

Total Energy       :          -55.87204152 Eh           -1520.35554 eV

Components:
Nuclear Repulsion  :            7.47121395 Eh             203.30207 eV
Electronic Energy  :          -63.34325547 Eh           -1723.65761 eV
One Electron Energy:          -90.05760432 Eh           -2450.59200 eV
Two Electron Energy:           26.71434884 Eh             726.93439 eV
CPCM Dielectric    :           -0.01127690 Eh              -0.30686 eV
SMD CDS (Gcds)     :            0.00234507 Eh               0.06381 eV

Virial components:
Potential Energy   :         -111.52544554 Eh           -3034.76166 eV
Kinetic Energy     :           55.65340402 Eh            1514.40611 eV
Virial Ratio       :            2.00392856


DFT components:
N(Alpha)           :        4.999999901406 electrons
N(Beta)            :        3.999999903244 electrons
N(Total)           :        8.999999804650 electrons
E(XC)              :       -3.629892163979 Eh       
DFET-embed. en.    :        0.000000000000 Eh       
CPCM Solvation Model Properties:
Surface-charge          :           -0.01559105
Charge-correction       :            0.00002090 Eh               0.00057 eV
Free-energy (cav+disp)  :            0.00261321 Eh               0.07111 eV
Corrected G(solv)       :          -55.86940741 Eh           -1520.28387 eV

---------------
SCF CONVERGENCE
---------------

  Last Energy change         ...   -2.8777e-09  Tolerance :   1.0000e-08
  Last MAX-Density change    ...    3.8312e-06  Tolerance :   1.0000e-07
  Last RMS-Density change    ...    3.6033e-07  Tolerance :   5.0000e-09
  Last DIIS Error            ...    5.1962e-07  Tolerance :   5.0000e-07

             **** THE GBW FILE WAS UPDATED (NH2·.gbw) ****
             **** DENSITY FILE WAS UPDATED (NH2·.scfp) ****
             **** ENERGY FILE WAS UPDATED (NH2·.en.tmp) ****
----------------------
UHF SPIN CONTAMINATION
----------------------

Warning: in a DFT calculation there is little theoretical justification to 
         calculate <S**2> as in Hartree-Fock theory. We will do it anyways
         but you should keep in mind that the values have only limited relevance

Expectation value of <S**2>     :     0.753841
Ideal value S*(S+1) for S=0.5   :     0.750000
Deviation                       :     0.003841

             **** THE GBW FILE WAS UPDATED (NH2·.gbw) ****
             **** DENSITY FILE WAS UPDATED (NH2·.scfp) ****
----------------
ORBITAL ENERGIES
----------------
                 SPIN UP ORBITALS
  NO   OCC          E(Eh)            E(eV) 
   0   1.0000     -14.768760      -401.8784 
   1   1.0000      -0.949441       -25.8356 
   2   1.0000      -0.533943       -14.5293 
   3   1.0000      -0.408242       -11.1088 
   4   1.0000      -0.383684       -10.4406 
   5   0.0000       0.007192         0.1957 
   6   0.0000       0.042151         1.1470 
   7   0.0000       0.118077         3.2130 
   8   0.0000       0.132117         3.5951 
   9   0.0000       0.158223         4.3055 
  10   0.0000       0.186692         5.0801 
  11   0.0000       0.222602         6.0573 
  12   0.0000       0.233836         6.3630 
  13   0.0000       0.524300        14.2669 
  14   0.0000       0.615804        16.7569 
  15   0.0000       0.791043        21.5254 
  16   0.0000       0.792209        21.5571 
  17   0.0000       0.853223        23.2174 
  18   0.0000       1.053017        28.6541 
  19   0.0000       1.232797        33.5461 
  20   0.0000       1.255874        34.1741 
  21   0.0000       1.409178        38.3457 
  22   0.0000       1.659776        45.1648 
  23   0.0000       1.907718        51.9116 
  24   0.0000       1.970606        53.6229 
  25   0.0000       2.348799        63.9141 
  26   0.0000       2.375940        64.6526 
  27   0.0000       2.498845        67.9970 
  28   0.0000       2.553298        69.4788 
  29   0.0000       2.635529        71.7164 
  30   0.0000       2.877846        78.3102 
  31   0.0000       3.112696        84.7008 
  32   0.0000       3.827617       104.1548 
  33   0.0000       4.246356       115.5492 
  34   0.0000       4.636427       126.1636 
  35   0.0000      35.545574       967.2443 

                 SPIN DOWN ORBITALS
  NO   OCC          E(Eh)            E(eV) 
   0   1.0000     -14.757924      -401.5835 
   1   1.0000      -0.885804       -24.1039 
   2   1.0000      -0.515186       -14.0189 
   3   1.0000      -0.375215       -10.2101 
   4   0.0000      -0.065445        -1.7809 
   5   0.0000       0.009538         0.2596 
   6   0.0000       0.044590         1.2134 
   7   0.0000       0.120888         3.2895 
   8   0.0000       0.144902         3.9430 
   9   0.0000       0.155662         4.2358 
  10   0.0000       0.160902         4.3784 
  11   0.0000       0.223045         6.0694 
  12   0.0000       0.238640         6.4937 
  13   0.0000       0.525120        14.2892 
  14   0.0000       0.626473        17.0472 
  15   0.0000       0.803465        21.8634 
  16   0.0000       0.831804        22.6345 
  17   0.0000       0.865601        23.5542 
  18   0.0000       1.073988        29.2247 
  19   0.0000       1.246789        33.9269 
  20   0.0000       1.281559        34.8730 
  21   0.0000       1.430742        38.9325 
  22   0.0000       1.663668        45.2707 
  23   0.0000       1.915886        52.1339 
  24   0.0000       2.026078        55.1324 
  25   0.0000       2.386910        64.9511 
  26   0.0000       2.414490        65.7016 
  27   0.0000       2.502294        68.0909 
  28   0.0000       2.551709        69.4355 
  29   0.0000       2.650570        72.1257 
  30   0.0000       2.909373        79.1681 
  31   0.0000       3.144466        85.5653 
  32   0.0000       3.905501       106.2741 
  33   0.0000       4.254919       115.7822 
  34   0.0000       4.656316       126.7048 
  35   0.0000      35.548364       967.3202 
------------------
MOLECULAR ORBITALS
------------------
                      0         1         2         3         4         5   
                 -14.76876  -0.94944  -0.53394  -0.40824  -0.38368   0.00719
                   1.00000   1.00000   1.00000   1.00000   1.00000   0.00000
                  --------  --------  --------  --------  --------  --------
  0N   1s        -0.558765  0.112788  0.000002 -0.042608 -0.000001  0.024106
  0N   2s        -0.465933  0.184731  0.000003 -0.071359 -0.000002  0.042076
  0N   1pz        0.001272  0.039603  0.099993  0.192962  0.133056  0.023486
  0N   1px        0.000828  0.025776 -0.000010  0.125594 -0.252752  0.015289
  0N   1py        0.000619  0.019248 -0.205667  0.093796  0.064705  0.011449
  0N   3s        -0.009559 -0.514991 -0.000012  0.210159  0.000005 -0.160059
  0N   2pz        0.000246  0.065374  0.148641  0.281326  0.199485  0.037679
  0N   2px        0.000160  0.042551 -0.000012  0.183108 -0.378950  0.024528
  0N   2py        0.000119  0.031773 -0.305725  0.136745  0.097011  0.018369
  0N   4s         0.002967 -0.393918  0.000001  0.310646  0.000047 -0.046089
  0N   3pz        0.000322  0.030141  0.099186  0.242064  0.192783  0.016015
  0N   3px        0.000209  0.019616 -0.000015  0.157549 -0.366274  0.010422
  0N   3py        0.000156  0.014649 -0.204036  0.117648  0.093769  0.007836
  0N   5s        -0.001904 -0.004660  0.000047  0.077213  0.000083 -1.542551
  0N   4pz       -0.000062  0.001594  0.004440  0.044232  0.031476  0.297753
  0N   4px       -0.000040  0.001036 -0.000011  0.028780 -0.059859  0.193894
  0N   4py       -0.000030  0.000771 -0.009167  0.021473  0.015317  0.144989
  0N   1dz2       0.000012  0.000017 -0.019394 -0.009718 -0.012987 -0.000233
  0N   1dxz      -0.000093 -0.001305 -0.007288 -0.019449  0.009365  0.001881
  0N   1dyz       0.000145  0.001555  0.017587 -0.008640 -0.007294 -0.002910
  0N   1dx2y2     0.000207  0.002412 -0.011196  0.003251  0.011045 -0.004164
  0N   1dxy      -0.000045 -0.000632  0.014990 -0.009453  0.004552  0.000913
  1H   1s        -0.000153 -0.097896  0.143549 -0.081826  0.000001  0.005926
  1H   2s         0.000971 -0.082095  0.197724 -0.133045 -0.000009  0.013621
  1H   3s        -0.000530  0.007557  0.049649 -0.046382 -0.000042  0.239353
  1H   4s         0.000590 -0.005950  0.014807 -0.004428 -0.000005  1.039721
  1H   1pz        0.000129 -0.000952  0.010022  0.015760  0.010770 -0.000416
  1H   1px        0.000283 -0.004954  0.008872  0.004392 -0.020476 -0.005294
  1H   1py        0.000839 -0.017395  0.014025 -0.015282  0.005240 -0.019824
  2H   1s        -0.000152 -0.097905 -0.143545 -0.081830  0.000001  0.005927
  2H   2s         0.000971 -0.082078 -0.197713 -0.133006 -0.000051  0.013612
  2H   3s        -0.000530  0.007572 -0.049663 -0.046297 -0.000054  0.239186
  2H   4s         0.000590 -0.005949 -0.014821 -0.004410 -0.000014  1.038176
  2H   1pz        0.000740 -0.014264 -0.017221 -0.002274  0.010768 -0.015841
  2H   1px        0.000283 -0.004964 -0.008887  0.004376 -0.020463 -0.005279
  2H   1py       -0.000417  0.009988  0.000770  0.021827  0.005243  0.011921
                      6         7         8         9        10        11   
                   0.04215   0.11808   0.13212   0.15822   0.18669   0.22260
                   0.00000   0.00000   0.00000   0.00000   0.00000   0.00000
                  --------  --------  --------  --------  --------  --------
  0N   1s        -0.000008 -0.013164 -0.000006 -0.000022 -0.048496  0.010299
  0N   2s        -0.000015 -0.020838 -0.000009 -0.000037 -0.080424  0.016337
  0N   1pz       -0.022998  0.074269  0.054632  0.008582 -0.047112  0.080378
  0N   1px       -0.000001  0.048421 -0.103634  0.000016 -0.030686  0.052362
  0N   1py        0.047308  0.036122  0.026557 -0.017714 -0.022997  0.039182
  0N   3s         0.000058  0.044931  0.000029  0.000082  0.180087 -0.021280
  0N   2pz       -0.041827  0.075363  0.049718  0.011484 -0.102880  0.072730
  0N   2px        0.000002  0.049131 -0.094298 -0.000012 -0.066982  0.047368
  0N   2py        0.086031  0.036656  0.024162 -0.023742 -0.050125  0.035483
  0N   4s         0.000005  0.290074  0.000023  0.000649  1.429577 -0.502359
  0N   3pz       -0.005589  0.346810  0.233676 -0.006832 -0.165190  0.470832
  0N   3px       -0.000002  0.226066 -0.443134  0.000114 -0.107646  0.306720
  0N   3py        0.011568  0.168665  0.113618  0.013855 -0.080794  0.229406
  0N   5s         0.000675  1.595975 -0.000460 -0.000248 -4.477084 -7.070096
  0N   4pz       -0.206405 -1.422146 -0.563768  1.298087  0.729352  1.597357
  0N   4px       -0.000058 -0.926173  1.070418 -0.000721  0.475187  1.039096
  0N   4py        0.424036 -0.690398 -0.275055 -2.670644  0.356328  0.775265
  0N   1dz2       0.001277 -0.004721 -0.005283  0.022893  0.002248 -0.001667
  0N   1dxz       0.000478 -0.012837  0.003805  0.008599  0.008218  0.010247
  0N   1dyz      -0.001158 -0.000286 -0.002973 -0.020758 -0.002251 -0.017139
  0N   1dx2y2     0.000739  0.007703  0.004500  0.013218 -0.007464 -0.024019
  0N   1dxy      -0.000988 -0.006237  0.001845 -0.017697  0.004008  0.004981
  1H   1s        -0.011297 -0.029601 -0.000022 -0.070362 -0.026289  0.079001
  1H   2s         0.022457  0.126824  0.000072  0.089295 -0.217894 -0.030509
  1H   3s        -0.173345 -1.082338 -0.000421 -2.241480  0.430471  3.824921
  1H   4s         2.609017 -0.184182 -0.000575 -1.761267  1.369482  0.622143
  1H   1pz       -0.003010 -0.009405 -0.004348  0.015945 -0.000874  0.009302
  1H   1px       -0.004459 -0.004260  0.008276  0.011018 -0.002177  0.001510
  1H   1py       -0.011233  0.002751 -0.002111  0.010228 -0.006713 -0.013223
  2H   1s         0.011291 -0.029644  0.000011  0.070303 -0.026299  0.078960
  2H   2s        -0.022462  0.126898  0.000078 -0.089372 -0.217690 -0.030725
  2H   3s         0.173081 -1.084105  0.000736  2.240032  0.430159  3.824563
  2H   4s        -2.609772 -0.184660  0.000564  1.762120  1.365967  0.625477
  2H   1pz        0.010703 -0.003644 -0.004354 -0.017903 -0.005812 -0.004641
  2H   1px        0.004457 -0.004247  0.008258 -0.011011 -0.002198  0.001530
  2H   1py       -0.004581 -0.009093 -0.002125 -0.006230  0.003456  0.015485
                     12        13        14        15        16        17   
                   0.23384   0.52430   0.61580   0.79104   0.79221   0.85322
                   0.00000   0.00000   0.00000   0.00000   0.00000   0.00000
                  --------  --------  --------  --------  --------  --------
  0N   1s         0.000030 -0.000009 -0.029548  0.000045  0.010885 -0.000002
  0N   2s         0.000050 -0.000017 -0.054334  0.000096  0.023585 -0.000005
  0N   1pz        0.079560  0.038442 -0.040081 -0.117502  0.205140  0.113661
  0N   1px        0.000031 -0.000029 -0.026066  0.225215  0.132375 -0.000018
  0N   1py       -0.163475 -0.079125 -0.019477 -0.057163  0.099731 -0.233730
  0N   3s        -0.000110  0.000065  0.142081 -0.001122 -0.285755  0.000047
  0N   2pz        0.095355  0.087009 -0.104599 -0.400855  0.616932  0.357148
  0N   2px        0.000031 -0.000077 -0.067999  0.767461  0.397660 -0.000061
  0N   2py       -0.195926 -0.179069 -0.050797 -0.194996  0.299973 -0.734430
  0N   4s        -0.001008 -0.000014  0.891514  0.005049  1.322878 -0.000059
  0N   3pz        0.394541  0.416875 -0.777087  0.734900 -1.525110 -0.969058
  0N   3px        0.000204 -0.000053 -0.505789 -1.410716 -0.985561  0.000165
  0N   3py       -0.810543 -0.857671 -0.377344  0.357481 -0.741640  1.992950
  0N   5s        -0.001603 -0.000978 -4.402485  0.000704  0.159377  0.000383
  0N   4pz       -0.449653 -0.689859  1.322291 -0.335156  0.390137  0.542642
  0N   4px        0.000321  0.000247  0.860571  0.640342  0.250740 -0.000149
  0N   4py        0.925958  1.419777  0.642247 -0.163029  0.189886 -1.116267
  0N   1dz2      -0.000612  0.010884  0.003627  0.004227 -0.001983  0.016994
  0N   1dxz      -0.000227  0.004085 -0.008727 -0.003011  0.008021  0.006385
  0N   1dyz       0.000547 -0.009863  0.021633  0.002305 -0.015550 -0.015417
  0N   1dx2y2    -0.000359  0.006290  0.027699 -0.003682 -0.020953  0.009807
  0N   1dxy       0.000470 -0.008414 -0.004249 -0.001465  0.003897 -0.013135
  1H   1s        -0.050273 -0.105352 -0.103753  0.000150  0.037676 -0.026413
  1H   2s        -0.166903 -1.509503 -1.906690 -0.001381 -0.375239  0.272901
  1H   3s        -1.368391  2.710196  3.318633 -0.002665 -0.696777  0.678191
  1H   4s         2.358322 -0.076189  0.170272  0.000820  0.238685 -1.455967
  1H   1pz        0.004007  0.012121 -0.033204 -0.003353 -0.010192  0.024884
  1H   1px        0.005406 -0.002121 -0.026189  0.006100 -0.041464  0.042383
  1H   1py        0.012882 -0.033270 -0.033953 -0.002136 -0.140767  0.114518
  2H   1s         0.050376  0.105300 -0.103788  0.000172  0.037706  0.026416
  2H   2s         0.167169  1.508694 -1.907616 -0.001328 -0.375037 -0.272707
  2H   3s         1.371996 -2.708400  3.320116 -0.002869 -0.697083 -0.678719
  2H   4s        -2.358908  0.076137  0.170515  0.001010  0.238455  1.455928
  2H   1pz       -0.012608  0.018678 -0.047259 -0.003779 -0.117024 -0.105411
  2H   1px       -0.005376  0.002150 -0.026200  0.006152 -0.041392 -0.042358
  2H   1py        0.004826 -0.030090 -0.005122 -0.001302  0.078928  0.051192
                     18        19        20        21        22        23   
                   1.05302   1.23280   1.25587   1.40918   1.65978   1.90772
                   0.00000   0.00000   0.00000   0.00000   0.00000   0.00000
                  --------  --------  --------  --------  --------  --------
  0N   1s         0.110017 -0.014838  0.000017  0.000003  0.000000  0.000030
  0N   2s         0.229899 -0.031654  0.000036  0.000005  0.000001  0.000066
  0N   1pz       -0.017522  0.031724 -0.000061 -0.021038  0.008175 -0.059405
  0N   1px       -0.011417  0.020648 -0.000037  0.039973 -0.000016  0.000048
  0N   1py       -0.008534  0.015410 -0.000014 -0.010242 -0.016815  0.122325
  0N   3s        -1.844598  0.329452 -0.000393 -0.000038 -0.000015 -0.000411
  0N   2pz       -0.258825  0.078638 -0.000112 -0.014812  0.006054 -0.205759
  0N   2px       -0.168479  0.051175 -0.000113  0.028132 -0.000014  0.000163
  0N   2py       -0.125813  0.038202 -0.000038 -0.007208 -0.012453  0.423748
  0N   4s         3.865497 -1.170186  0.001470  0.000094 -0.000055 -0.000015
  0N   3pz       -0.175839  0.654845 -0.000854 -0.220586  0.363334  0.158733
  0N   3px       -0.114399  0.426302 -0.000375  0.418985 -0.000054 -0.000090
  0N   3py       -0.085377  0.318351 -0.000548 -0.107400 -0.747242 -0.326760
  0N   5s        -3.209212  0.730483 -0.000918 -0.000044  0.000064 -0.000553
  0N   4pz        0.329871 -0.214093  0.000259  0.043503 -0.153005 -0.221697
  0N   4px        0.214693 -0.139370  0.000138 -0.082625  0.000012  0.000135
  0N   4py        0.160327 -0.104086  0.000194  0.021191  0.314668  0.456437
  0N   1dz2       0.012797  0.112950  0.097789 -0.213807 -0.027917 -0.248131
  0N   1dxz       0.029027  0.159179 -0.107683  0.154136 -0.010537 -0.092980
  0N   1dyz       0.007405  0.176860 -0.089135 -0.120023  0.025384  0.224939
  0N   1dx2y2    -0.010482  0.082657  0.056520  0.181751 -0.016175 -0.143476
  0N   1dxy       0.014105  0.077733  0.220971  0.074824  0.021563  0.191941
  1H   1s         0.021520 -0.025658  0.000043 -0.000008  0.063620  0.435820
  1H   2s        -0.772621  0.731475 -0.001007 -0.000097 -0.541415 -0.835558
  1H   3s         0.404708 -0.323164  0.000451  0.000014  0.300091  1.163099
  1H   4s         0.673148 -0.102004  0.000161  0.000036  0.145359 -0.115793
  1H   1pz       -0.091744 -0.535687  0.279711  0.295055 -0.700953  0.154950
  1H   1px       -0.101184 -0.223613 -0.529723 -0.560607 -0.316683  0.210608
  1H   1py       -0.206532  0.232205  0.135372  0.143514  0.203982  0.504075
  2H   1s         0.021527 -0.025627 -0.000000  0.000043 -0.063671 -0.435457
  2H   2s        -0.772687  0.731531 -0.000883 -0.000022  0.541532  0.834924
  2H   3s         0.404537 -0.323168  0.000388  0.000036 -0.300172 -1.161949
  2H   4s         0.673371 -0.102008  0.000088 -0.000027 -0.145370  0.115756
  2H   1pz       -0.219153 -0.148994 -0.278631  0.295291  0.272495 -0.491460
  2H   1px       -0.101159 -0.222176  0.530038 -0.560760  0.316871 -0.210331
  2H   1py        0.055436 -0.565058 -0.134819  0.143705  0.677196  0.189069
                     24        25        26        27        28        29   
                   1.97061   2.34880   2.37594   2.49885   2.55330   2.63553
                   0.00000   0.00000   0.00000   0.00000   0.00000   0.00000
                  --------  --------  --------  --------  --------  --------
  0N   1s        -0.041931 -0.000001  0.000001  0.013300  0.000005 -0.007175
  0N   2s        -0.095243 -0.000003  0.000002  0.048302  0.000016 -0.022663
  0N   1pz       -0.070111 -0.013138  0.000012 -0.107994 -0.021448  0.010987
  0N   1px       -0.045604  0.024970 -0.000051 -0.070280  0.000013  0.007153
  0N   1py       -0.033981 -0.006385  0.000018 -0.052506  0.044124  0.005341
  0N   3s         0.648058  0.000033 -0.000015 -0.460362 -0.000185  0.143037
  0N   2pz       -0.297221  0.005560  0.000031  0.379839  0.445265 -0.176297
  0N   2px       -0.193367 -0.010681  0.000014  0.247211  0.000003 -0.114718
  0N   2py       -0.144145  0.002769 -0.000033  0.184579 -0.915619 -0.085574
  0N   4s        -0.226838  0.000058 -0.000046 -0.877108 -0.000155  0.943695
  0N   3pz        0.251084 -0.181076  0.000308  0.228416  0.320079 -0.631717
  0N   3px        0.163327  0.343905 -0.000484  0.148682 -0.000017 -0.411146
  0N   3py        0.121698 -0.088012  0.000129  0.110952 -0.658391 -0.307006
  0N   5s         1.068926 -0.000132  0.000057  2.297453  0.000112 -1.033724
  0N   4pz       -0.310666  0.038328 -0.000084 -0.580110 -0.278767  0.333879
  0N   4px       -0.202093 -0.072703  0.000098 -0.377586  0.000020  0.217297
  0N   4py       -0.150578  0.018612 -0.000021 -0.281965  0.573371  0.162232
  0N   1dz2      -0.076124  0.611917 -0.360564  0.163573 -0.259589  0.397457
  0N   1dxz      -0.359224 -0.440985  0.395067  0.243292 -0.097567  0.543486
  0N   1dyz       0.171258  0.344272  0.325604  0.242350  0.235555  0.643682
  0N   1dx2y2     0.400058 -0.521067 -0.207039  0.097226 -0.149843  0.322803
  0N   1dxy      -0.174529 -0.215767 -0.811012  0.118314  0.200748  0.264066
  1H   1s        -0.286333  0.000033  0.000002 -1.036952  0.944747  0.437819
  1H   2s         0.624493 -0.000040 -0.000004  2.212131 -2.465442 -1.324366
  1H   3s        -0.939978  0.000072 -0.000003 -1.936872  1.441507  0.825652
  1H   4s        -0.016804  0.000000 -0.000007 -0.054218 -0.090742  0.046765
  1H   1pz       -0.067568  0.239495  0.216581  0.227856 -0.146323  0.453530
  1H   1px       -0.171136 -0.454890 -0.411449  0.205559 -0.310542  0.138109
  1H   1py       -0.529550  0.116476  0.105313  0.334581 -0.912119 -0.392928
  2H   1s        -0.287006  0.000101 -0.000069 -1.036837 -0.944611  0.437943
  2H   2s         0.625840 -0.000228  0.000158  2.212251  2.465608 -1.324917
  2H   3s        -0.941696  0.000154 -0.000099 -1.936868 -1.441501  0.825929
  2H   4s        -0.016713  0.000004  0.000005 -0.054364  0.090679  0.046794
  2H   1pz       -0.458832  0.238797 -0.217265  0.404021  0.808000 -0.029121
  2H   1px       -0.171355 -0.453832  0.412789  0.205584  0.310523  0.138185
  2H   1py        0.274178  0.116177 -0.105731 -0.027547 -0.448327  0.599524
                     30        31        32        33        34        35   
                   2.87785   3.11270   3.82762   4.24636   4.63643  35.54557
                   0.00000   0.00000   0.00000   0.00000   0.00000   0.00000
                  --------  --------  --------  --------  --------  --------
  0N   1s        -0.049298  0.000009  0.000000 -0.031465 -0.000009  2.147537
  0N   2s        -0.108816  0.000020  0.000000 -0.061299 -0.000017 -2.274676
  0N   1pz       -0.283222  0.248626 -0.589386  0.998018  0.549847  0.022105
  0N   1px       -0.184367  0.000016  1.119552  0.649655  0.000001  0.014386
  0N   1py       -0.137744 -0.511214 -0.286612  0.485340 -1.130700  0.010740
  0N   3s         0.503923 -0.000138 -0.000001  0.293488  0.000150  0.403450
  0N   2pz       -0.352919  0.003312  0.708063 -1.606251 -1.047291 -0.098464
  0N   2px       -0.229700  0.000025 -1.344982 -1.045563 -0.000029 -0.064080
  0N   2py       -0.171513 -0.006719  0.344327 -0.781064  2.153540 -0.047831
  0N   4s         2.666451 -0.000295  0.000011  1.388647  0.000209 -0.128433
  0N   3pz       -0.996062  0.525397 -0.368290  0.227293  0.141213 -0.029875
  0N   3px       -0.648375  0.000005  0.699560  0.147969 -0.000001 -0.019443
  0N   3py       -0.484431 -1.080407 -0.179091  0.110565 -0.290393 -0.014516
  0N   5s        -1.402710  0.000012 -0.000014 -1.022855 -0.000151  0.063027
  0N   4pz        0.400448 -0.212393  0.130345  0.041060 -0.078147  0.016446
  0N   4px        0.260679  0.000023 -0.247583  0.026712  0.000015  0.010703
  0N   4py        0.194789  0.436855  0.063382  0.019915  0.160761  0.007988
  0N   1dz2       0.077904 -0.720322 -0.021391  0.057331  0.551309  0.004471
  0N   1dxz       0.575999 -0.270709  0.015422  0.284902  0.207187  0.030003
  0N   1dyz      -0.414068  0.653279 -0.012008 -0.144847 -0.499982 -0.020303
  0N   1dx2y2    -0.785593 -0.415710  0.018184 -0.326859  0.318183 -0.039594
  0N   1dxy       0.280240  0.556756  0.007483  0.138574 -0.426129  0.014583
  1H   1s        -0.065423 -0.446023  0.000004 -0.233668  0.439499 -0.000269
  1H   2s        -1.859634 -0.608898 -0.000004 -0.836978  0.666614 -0.149907
  1H   3s         0.515183 -0.213138  0.000002  0.417183 -0.188536  0.078851
  1H   4s         0.228625  0.533710  0.000003  0.118497  0.229445 -0.036100
  1H   1pz       -0.133552 -0.110270 -0.032408 -0.005642  0.184678 -0.011581
  1H   1px       -0.343727 -0.236326  0.061550 -0.170210  0.302960 -0.034745
  1H   1py       -1.068079 -0.696366 -0.015752 -0.653271  0.803677 -0.111905
  2H   1s        -0.065503  0.446255  0.000012 -0.233685 -0.439707 -0.000284
  2H   2s        -1.859366  0.609105 -0.000030 -0.836957 -0.666854 -0.149961
  2H   3s         0.515063  0.213303  0.000019  0.417180  0.188637  0.078877
  2H   4s         0.228526 -0.533765 -0.000001  0.118597 -0.229401 -0.036102
  2H   1pz       -0.922360  0.616010 -0.032417 -0.517178 -0.746320 -0.095198
  2H   1px       -0.343597  0.236358  0.061571 -0.170107 -0.302965 -0.034749
  2H   1py        0.554607 -0.343513 -0.015760  0.399041  0.351276  0.060030

                      0         1         2         3         4         5   
                 -14.75792  -0.88580  -0.51519  -0.37522  -0.06545   0.00954
                   1.00000   1.00000   1.00000   1.00000   0.00000   0.00000
                  --------  --------  --------  --------  --------  --------
  0N   1s         0.558716 -0.109175 -0.000002  0.046066 -0.000003 -0.026056
  0N   2s         0.466201 -0.175403 -0.000004  0.075945 -0.000006 -0.043916
  0N   1pz       -0.001299 -0.042961 -0.095601 -0.185238  0.095417 -0.022240
  0N   1px       -0.000845 -0.027962  0.000013 -0.120569 -0.181258 -0.014475
  0N   1py       -0.000632 -0.020881  0.196638 -0.090037  0.046406 -0.010844
  0N   3s         0.009101  0.484860  0.000014 -0.220534  0.000013  0.155564
  0N   2pz       -0.000274 -0.065397 -0.139077 -0.264811  0.137970 -0.035726
  0N   2px       -0.000178 -0.042564  0.000018 -0.172364 -0.262101 -0.023253
  0N   2py       -0.000133 -0.031784  0.286055 -0.128711  0.067103 -0.017420
  0N   4s        -0.003054  0.349705  0.000005 -0.322724  0.000088  0.097090
  0N   3pz       -0.000337 -0.021006 -0.095201 -0.251351  0.167551  0.003550
  0N   3px       -0.000219 -0.013669  0.000019 -0.163599 -0.318398  0.002317
  0N   3py       -0.000164 -0.010209  0.195839 -0.122156  0.081513  0.001674
  0N   5s         0.001739  0.010292 -0.000058 -0.093556  0.000424  1.163058
  0N   4pz        0.000109 -0.002262 -0.006976 -0.058891  0.186152 -0.231108
  0N   4px        0.000071 -0.001469  0.000014 -0.038321 -0.353951 -0.150484
  0N   4py        0.000053 -0.001094  0.014390 -0.028592  0.090592 -0.112589
  0N   1dz2       0.000056  0.002803  0.018609  0.007285 -0.007715  0.000100
  0N   1dxz       0.000350  0.011205  0.006990  0.013014  0.005567 -0.001920
  0N   1dyz      -0.000224 -0.003948 -0.016875  0.008279 -0.004335  0.002533
  0N   1dx2y2    -0.000449 -0.011052  0.010741  0.000394  0.006560  0.003801
  0N   1dxy       0.000170  0.005447 -0.014383  0.006325  0.002705 -0.000933
  1H   1s         0.000152  0.108473 -0.150984  0.080744  0.000003 -0.003810
  1H   2s        -0.001040  0.115768 -0.212034  0.125625 -0.000013  0.010840
  1H   3s         0.000627 -0.001562 -0.063857  0.053036 -0.000167 -0.144067
  1H   4s        -0.000574  0.004263 -0.009352  0.004331 -0.000057 -0.957049
  1H   1pz       -0.000139  0.000254 -0.009939 -0.015393  0.011599  0.000029
  1H   1px       -0.000301  0.005880 -0.009185 -0.004722 -0.022060  0.006030
  1H   1py       -0.000891  0.022455 -0.015429  0.013247  0.005644  0.023493
  2H   1s         0.000152  0.108480  0.150983  0.080748 -0.000006 -0.003818
  2H   2s        -0.001040  0.115752  0.212020  0.125593 -0.000064  0.010845
  2H   3s         0.000627 -0.001581  0.063881  0.052935 -0.000263 -0.143923
  2H   4s        -0.000574  0.004261  0.009368  0.004309 -0.000073 -0.955417
  2H   1pz       -0.000787  0.017812  0.018272  0.000901  0.011599  0.018487
  2H   1px       -0.000301  0.005895  0.009207 -0.004702 -0.022044  0.006015
  2H   1py        0.000441 -0.013661 -0.001701 -0.020282  0.005650 -0.014491
                      6         7         8         9        10        11   
                   0.04459   0.12089   0.14490   0.15566   0.16090   0.22304
                   0.00000   0.00000   0.00000   0.00000   0.00000   0.00000
                  --------  --------  --------  --------  --------  --------
  0N   1s         0.000010 -0.012148  0.000017  0.000024  0.036866 -0.033303
  0N   2s         0.000017 -0.019118  0.000027  0.000039  0.058943 -0.053262
  0N   1pz        0.022935  0.076895 -0.083147 -0.005954 -0.003237 -0.093282
  0N   1px        0.000005  0.050127  0.157844 -0.000066 -0.002188 -0.060783
  0N   1py       -0.047181  0.037398 -0.040429  0.012329 -0.001536 -0.045543
  0N   3s        -0.000060  0.041935 -0.000060 -0.000079 -0.113478  0.102942
  0N   2pz        0.040787  0.082688 -0.095043 -0.008111  0.046415 -0.108042
  0N   2px        0.000005  0.053914  0.180489 -0.000050  0.030123 -0.070379
  0N   2py       -0.083896  0.040216 -0.046212  0.016849  0.022607 -0.052743
  0N   4s        -0.000037  0.242815 -0.000390 -0.000700 -1.072539  1.128978
  0N   3pz        0.004051  0.328044 -0.318546  0.016015 -0.132611 -0.523105
  0N   3px        0.000006  0.213797  0.604490 -0.000313 -0.086629 -0.340841
  0N   3py       -0.008422  0.159550 -0.154936 -0.032750 -0.064228 -0.255253
  0N   5s        -0.000592  2.190033  0.003199  0.001714  7.027006  4.250128
  0N   4pz        0.198458 -1.525492  0.538018 -1.309695 -1.225697 -1.075618
  0N   4px        0.000064 -0.993095 -1.023817  0.000730 -0.797547 -0.699453
  0N   4py       -0.407731 -0.740649  0.263197  2.693562 -0.597413 -0.521236
  0N   1dz2      -0.000939 -0.004015  0.006776 -0.021650  0.000394  0.004094
  0N   1dxz      -0.000351 -0.010707 -0.004892 -0.008131 -0.005400  0.001830
  0N   1dyz       0.000852 -0.000484  0.003822  0.019632  0.007449  0.010979
  0N   1dx2y2    -0.000544  0.006173 -0.005771 -0.012493  0.011056  0.010146
  0N   1dxy       0.000726 -0.005203 -0.002370  0.016735 -0.002637  0.000889
  1H   1s         0.014683 -0.032066  0.000024  0.066422 -0.006499 -0.072377
  1H   2s        -0.006393  0.104082 -0.000005 -0.074595  0.128144 -0.086055
  1H   3s         0.175894 -1.240723 -0.000059  2.138782 -1.942052 -3.206604
  1H   4s        -2.591630 -0.314981  0.000400  1.893100 -1.538144  0.065265
  1H   1pz        0.003418 -0.008274 -0.002845 -0.015194  0.000266 -0.007515
  1H   1px        0.005078 -0.004442  0.005389 -0.010419  0.001221 -0.001602
  1H   1py        0.012812 -0.000324 -0.001386 -0.009407  0.004232  0.009199
  2H   1s        -0.014676 -0.032104 -0.000023 -0.066387 -0.006449 -0.072318
  2H   2s         0.006377  0.104144  0.000040  0.074682  0.128037 -0.085810
  2H   3s        -0.175629 -1.242462 -0.001947 -2.138568 -1.941014 -3.204765
  2H   4s         2.592348 -0.315485 -0.001587 -1.894386 -1.535814  0.059993
  2H   1pz       -0.012199 -0.005364 -0.002832  0.016799  0.003478  0.002563
  2H   1px       -0.005078 -0.004430  0.005404  0.010403  0.001225 -0.001638
  2H   1py        0.005236 -0.006304 -0.001376  0.006148 -0.002406 -0.011592
                     12        13        14        15        16        17   
                   0.23864   0.52512   0.62647   0.80347   0.83180   0.86560
                   0.00000   0.00000   0.00000   0.00000   0.00000   0.00000
                  --------  --------  --------  --------  --------  --------
  0N   1s        -0.000041  0.000008  0.032145 -0.011332 -0.000002  0.000002
  0N   2s        -0.000066  0.000014  0.056721 -0.022886 -0.000004  0.000005
  0N   1pz       -0.079347 -0.039606  0.032615 -0.207124  0.116719 -0.114516
  0N   1px       -0.000043  0.000027  0.021210 -0.134869 -0.221665  0.000043
  0N   1py        0.162972  0.081511  0.015852 -0.100696  0.056810  0.235467
  0N   3s         0.000132 -0.000050 -0.126252  0.271863 -0.000005 -0.000050
  0N   2pz       -0.091219 -0.081606  0.076120 -0.625620  0.439422 -0.361765
  0N   2px       -0.000048  0.000060  0.049469 -0.407425 -0.834515  0.000155
  0N   2py        0.187348  0.167928  0.036963 -0.304189  0.213843  0.743818
  0N   4s         0.001353  0.000025 -1.048946 -1.269791  0.000182  0.000076
  0N   3pz       -0.396403 -0.453064  0.874917  1.484662 -0.728578  0.957396
  0N   3px       -0.000277  0.000075  0.569453  0.966749  1.383472 -0.000320
  0N   3py        0.813991  0.932039  0.424952  0.721950 -0.354673 -1.968818
  0N   5s         0.002582  0.000734  4.599192 -0.322700  0.000015 -0.000368
  0N   4pz        0.375785  0.727313 -1.392939 -0.339789  0.329231 -0.526495
  0N   4px       -0.000503 -0.000223 -0.906566 -0.221381 -0.625303  0.000212
  0N   4py       -0.774655 -1.496628 -0.676679 -0.165389  0.160303  1.082972
  0N   1dz2      -0.001163 -0.008732 -0.007082  0.001151 -0.005137 -0.021599
  0N   1dxz      -0.000435 -0.003275 -0.007336 -0.014407  0.003696 -0.008111
  0N   1dyz       0.001066  0.007913 -0.014167  0.020305 -0.002876  0.019591
  0N   1dx2y2    -0.000669 -0.005042 -0.009998  0.029865  0.004361 -0.012467
  0N   1dxy       0.000906  0.006749 -0.003556 -0.007006  0.001801  0.016693
  1H   1s         0.045618  0.101451  0.095144 -0.044139  0.000008  0.025882
  1H   2s         0.116948  1.522604  1.964209  0.301172 -0.000128 -0.246172
  1H   3s         1.548207 -2.686083 -3.352151  0.815356 -0.000207 -0.717691
  1H   4s        -2.285678 -0.018261 -0.214741 -0.231276  0.000272  1.441582
  1H   1pz       -0.005763 -0.010542  0.031456  0.003551  0.013805 -0.028094
  1H   1px       -0.007475  0.002850  0.027607  0.040337 -0.026210 -0.045736
  1H   1py       -0.017352  0.032874  0.043098  0.150203  0.006669 -0.121046
  2H   1s        -0.045751 -0.101415  0.095172 -0.044180 -0.000028 -0.025889
  2H   2s        -0.117241 -1.521989  1.964961  0.301011 -0.000076  0.245971
  2H   3s        -1.553471  2.684693 -3.353310  0.815630  0.000084  0.718190
  2H   4s         2.286381  0.018316 -0.215016 -0.231062 -0.000213 -1.441542
  2H   1pz        0.017214 -0.019344  0.053370  0.120339  0.013821  0.112520
  2H   1px        0.007448 -0.002883  0.027622  0.040275 -0.026251  0.045728
  2H   1py       -0.006213  0.028603 -0.001897 -0.089979  0.006716 -0.052697
                     18        19        20        21        22        23   
                   1.07399   1.24679   1.28156   1.43074   1.66367   1.91589
                   0.00000   0.00000   0.00000   0.00000   0.00000   0.00000
                  --------  --------  --------  --------  --------  --------
  0N   1s         0.111895 -0.015866 -0.000012 -0.000002 -0.000001  0.000020
  0N   2s         0.229384 -0.033703 -0.000026 -0.000005 -0.000003  0.000041
  0N   1pz       -0.016419  0.031857  0.000043  0.024715 -0.008167 -0.060430
  0N   1px       -0.010699  0.020741  0.000024 -0.046951  0.000015  0.000041
  0N   1py       -0.007997  0.015479  0.000008  0.012022  0.016792  0.124394
  0N   3s        -1.840927  0.353441  0.000284  0.000036  0.000027 -0.000235
  0N   2pz       -0.261518  0.088967  0.000088  0.027278 -0.007659 -0.205773
  0N   2px       -0.170240  0.057905  0.000094 -0.051807  0.000017  0.000111
  0N   2py       -0.127118  0.043224  0.000026  0.013268  0.015742  0.423578
  0N   4s         3.876652 -1.252843 -0.001093 -0.000093  0.000026 -0.000118
  0N   3pz       -0.193900  0.663828  0.000596  0.208102 -0.360815  0.159838
  0N   3px       -0.126141  0.432141  0.000233 -0.395296  0.000065 -0.000049
  0N   3py       -0.094160  0.322701  0.000419  0.101380  0.742081 -0.328808
  0N   5s        -3.092099  0.836412  0.000792  0.000032 -0.000018 -0.000248
  0N   4pz        0.311839 -0.233024 -0.000209 -0.040245  0.152370 -0.224175
  0N   4px        0.202952 -0.151686 -0.000110  0.076472 -0.000020  0.000080
  0N   4py        0.151566 -0.113273 -0.000163 -0.019647 -0.313391  0.461305
  0N   1dz2       0.015200  0.104538 -0.090579  0.197632  0.027681 -0.248018
  0N   1dxz       0.039187  0.139164  0.099613 -0.142461  0.010446 -0.093040
  0N   1dyz       0.003387  0.173323  0.082452  0.110934 -0.025173  0.224877
  0N   1dx2y2    -0.020956  0.091468 -0.052329 -0.167991  0.016047 -0.143281
  0N   1dxy       0.019048  0.067871 -0.204592 -0.069171 -0.021387  0.191777
  1H   1s         0.024523 -0.033104 -0.000057 -0.000019 -0.066477  0.444260
  1H   2s        -0.788045  0.775047  0.000791  0.000170  0.542428 -0.846421
  1H   3s         0.359322 -0.365701 -0.000402 -0.000068 -0.299721  1.169158
  1H   4s         0.656571 -0.116679 -0.000137 -0.000037 -0.144606 -0.113546
  1H   1pz       -0.100780 -0.541786 -0.283795 -0.300964  0.701253  0.153806
  1H   1px       -0.109577 -0.224593  0.538018  0.571836  0.317171  0.208842
  1H   1py       -0.220737  0.239783 -0.137564 -0.146389 -0.202609  0.499478
  2H   1s         0.024531 -0.033099 -0.000028 -0.000012  0.066500 -0.444033
  2H   2s        -0.788116  0.775169  0.000697 -0.000059 -0.542476  0.846164
  2H   3s         0.359152 -0.365753 -0.000371  0.000036  0.299739 -1.168527
  2H   4s         0.656781 -0.116689 -0.000061  0.000030  0.144610  0.113496
  2H   1pz       -0.235909 -0.146567  0.283026 -0.301193 -0.273748 -0.487392
  2H   1px       -0.109561 -0.223607 -0.538168  0.571956 -0.317380 -0.208619
  2H   1py        0.057101 -0.574434  0.137156 -0.146591 -0.676568  0.187274
                     24        25        26        27        28        29   
                   2.02608   2.38691   2.41449   2.50229   2.55171   2.65057
                   0.00000   0.00000   0.00000   0.00000   0.00000   0.00000
                  --------  --------  --------  --------  --------  --------
  0N   1s         0.046000 -0.000001 -0.000006 -0.019598  0.000003 -0.007788
  0N   2s         0.099091 -0.000004 -0.000017 -0.061573  0.000011 -0.022478
  0N   1pz        0.081838 -0.020377 -0.000001  0.095494  0.022449 -0.009463
  0N   1px        0.053247  0.038725  0.000083  0.062132 -0.000053 -0.006161
  0N   1py        0.039723 -0.009911 -0.000017  0.046396 -0.046277 -0.004607
  0N   3s        -0.647343  0.000036  0.000151  0.534283 -0.000041  0.126434
  0N   2pz        0.297713  0.007066 -0.000156 -0.432130 -0.448276 -0.154884
  0N   2px        0.193732 -0.013603 -0.000082 -0.281125  0.000132 -0.100771
  0N   2py        0.144545  0.003570  0.000042 -0.209524  0.922313 -0.075128
  0N   4s         0.125988  0.000073  0.000280  1.090603 -0.000415  0.927889
  0N   3pz       -0.201180 -0.173978 -0.000376 -0.322451 -0.314029 -0.626374
  0N   3px       -0.130868  0.330378  0.000388 -0.209808  0.000119 -0.407666
  0N   3py       -0.097527 -0.084530 -0.000134 -0.156378  0.646438 -0.304390
  0N   5s        -1.097558 -0.000144 -0.000632 -2.451897  0.000999 -0.892501
  0N   4pz        0.313055  0.037873  0.000241  0.625369  0.276100  0.297374
  0N   4px        0.203685 -0.071801  0.000006  0.406973 -0.000201  0.193533
  0N   4py        0.151882  0.018352  0.000068  0.303694 -0.568617  0.144468
  0N   1dz2       0.070140  0.617195  0.362421 -0.128061  0.255164  0.414035
  0N   1dxz       0.336703 -0.444783 -0.397163 -0.177173  0.096011  0.584131
  0N   1dyz      -0.164196  0.347205 -0.327375 -0.204850 -0.231497  0.649887
  0N   1dx2y2    -0.378845 -0.525513  0.208177 -0.099876  0.147392  0.303823
  0N   1dxy       0.163645 -0.217552  0.815299 -0.086488 -0.197363  0.283786
  1H   1s         0.333466 -0.000041  0.000203  1.050630 -0.943037  0.345317
  1H   2s        -0.613331  0.000106 -0.000440 -2.395181  2.457238 -1.176007
  1H   3s         0.981428 -0.000028  0.000414  2.010369 -1.435468  0.678153
  1H   4s         0.012019  0.000019  0.000031  0.073855  0.092400  0.051213
  1H   1pz        0.055871  0.231286 -0.210954 -0.197319  0.145467  0.458735
  1H   1px        0.170149 -0.439255  0.400699 -0.218750  0.310603  0.140474
  1H   1py        0.549685  0.112519 -0.102623 -0.448428  0.914111 -0.394362
  2H   1s         0.333927  0.000179  0.000379  1.051341  0.941994  0.345505
  2H   2s        -0.614288 -0.000402 -0.000856 -2.397336 -2.455208 -1.176706
  2H   3s         0.982536  0.000267  0.000658  2.011585  1.433686  0.678520
  2H   4s         0.012001 -0.000012 -0.000002  0.073885 -0.092417  0.051226
  2H   1pz        0.467147  0.230577  0.211418 -0.475432 -0.808624 -0.027086
  2H   1px        0.170202 -0.438317 -0.402017 -0.218838 -0.310357  0.140551
  2H   1py       -0.295704  0.112234  0.103024  0.122187  0.450047  0.604518
                     30        31        32        33        34        35   
                   2.90937   3.14447   3.90550   4.25492   4.65632  35.54836
                   0.00000   0.00000   0.00000   0.00000   0.00000   0.00000
                  --------  --------  --------  --------  --------  --------
  0N   1s         0.048344 -0.000009 -0.000001  0.031614  0.000007  2.147387
  0N   2s         0.104041 -0.000021  0.000000  0.061375  0.000015 -2.274995
  0N   1pz        0.288214 -0.253552 -0.593299 -0.997929 -0.548000  0.021996
  0N   1px        0.187621  0.000007  1.126994 -0.649581  0.000031  0.014316
  0N   1py        0.140174  0.521378 -0.288532 -0.485232  1.126983  0.010687
  0N   3s        -0.479181  0.000151  0.000001 -0.294457 -0.000139  0.405338
  0N   2pz        0.318967 -0.000496  0.696086  1.602092  1.046496 -0.098727
  0N   2px        0.207587 -0.000052 -1.322257  1.042828 -0.000024 -0.064252
  0N   2py        0.154982  0.000866  0.338530  0.778931 -2.152048 -0.047959
  0N   4s        -2.501797  0.000318  0.000020 -1.372556 -0.000152 -0.129348
  0N   3pz        0.931723 -0.522470 -0.351813 -0.228905 -0.136207 -0.029824
  0N   3px        0.606496  0.000005  0.668258 -0.149013  0.000011 -0.019410
  0N   3py        0.453131  1.074389 -0.171086 -0.111325  0.280109 -0.014491
  0N   5s         1.247177 -0.000090 -0.000022  1.010092  0.000121  0.063326
  0N   4pz       -0.357990  0.212021  0.125804 -0.038784  0.075890  0.016481
  0N   4px       -0.233041 -0.000014 -0.238950 -0.025232 -0.000018  0.010725
  0N   4py       -0.174133 -0.436045  0.061174 -0.018817 -0.156120  0.008005
  0N   1dz2      -0.073557  0.717948 -0.027213 -0.058820 -0.556470  0.004438
  0N   1dxz      -0.577348  0.269794  0.019623 -0.287537 -0.209107  0.029940
  0N   1dyz       0.429580 -0.651124 -0.015278  0.143188  0.504657 -0.020336
  0N   1dx2y2     0.802369  0.414323  0.023133  0.326770 -0.321173 -0.039587
  0N   1dxy      -0.280908 -0.554916  0.009522 -0.139846  0.430127  0.014552
  1H   1s         0.126803  0.437731 -0.000001  0.238238 -0.443055 -0.000331
  1H   2s         1.668112  0.613697  0.000003  0.821950 -0.670562 -0.150139
  1H   3s        -0.402126  0.204909 -0.000007 -0.408472  0.187559  0.079077
  1H   4s        -0.219322 -0.528875  0.000010 -0.117682 -0.224601 -0.036237
  1H   1pz        0.139862  0.109717 -0.034598  0.005040 -0.185232 -0.011639
  1H   1px        0.332241  0.235010  0.065715  0.168801 -0.304147 -0.034861
  1H   1py        1.010268  0.692382 -0.016817  0.649016 -0.807185 -0.112243
  2H   1s         0.126853 -0.437897  0.000021  0.238263  0.443228 -0.000346
  2H   2s         1.667936 -0.614035 -0.000057  0.822000  0.670754 -0.150193
  2H   3s        -0.402051 -0.204947  0.000039 -0.408508 -0.187647  0.079104
  2H   4s        -0.219223  0.528933 -0.000007 -0.117751  0.224567 -0.036239
  2H   1pz        0.880823 -0.612554 -0.034618  0.513514  0.749379 -0.095499
  2H   1px        0.332148 -0.235067  0.065734  0.168724  0.304146 -0.034865
  2H   1py       -0.513959  0.341490 -0.016822 -0.396913 -0.352972  0.060193



                    ********************************
                    * MULLIKEN POPULATION ANALYSIS *
                    ********************************

--------------------------------------------
MULLIKEN ATOMIC CHARGES AND SPIN POPULATIONS
--------------------------------------------
   0 N :   -0.514196    1.078563
   1 H :    0.257054   -0.039278
   2 H :    0.257142   -0.039285
Sum of atomic charges         :    0.0000000
Sum of atomic spin populations:    1.0000000

-----------------------------------------------------
MULLIKEN REDUCED ORBITAL CHARGES AND SPIN POPULATIONS
-----------------------------------------------------
CHARGE
  0 N s       :     3.781780  s :     3.781780
      pz      :     1.358069  p :     3.715645
      px      :     1.125928
      py      :     1.231648
      dz2     :     0.004748  d :     0.016771
      dxz     :     0.002930
      dyz     :     0.003578
      dx2y2   :     0.002452
      dxy     :     0.003062
  1 H s       :     0.704112  s :     0.704112
      pz      :     0.010570  p :     0.038833
      px      :     0.009226
      py      :     0.019037
  2 H s       :     0.704029  s :     0.704029
      pz      :     0.016408  p :     0.038830
      px      :     0.009226
      py      :     0.013195

SPIN
  0 N s       :     0.045042  s :     0.045042
      pz      :     0.217434  p :     1.033353
      px      :     0.736295
      py      :     0.079624
      dz2     :     0.000283  d :     0.000167
      dxz     :     0.000105
      dyz     :    -0.000014
      dx2y2   :    -0.000227
      dxy     :     0.000020
  1 H s       :    -0.045554  s :    -0.045554
      pz      :     0.001639  p :     0.006276
      px      :     0.005425
      py      :    -0.000788
  2 H s       :    -0.045557  s :    -0.045557
      pz      :     0.000653  p :     0.006273
      px      :     0.005421
      py      :     0.000198


                     *******************************
                     * LOEWDIN POPULATION ANALYSIS *
                     *******************************

-------------------------------------------
LOEWDIN ATOMIC CHARGES AND SPIN POPULATIONS
-------------------------------------------
   0 N :   -0.154108    1.001275
   1 H :    0.077047   -0.000639
   2 H :    0.077061   -0.000636

----------------------------------------------------
LOEWDIN REDUCED ORBITAL CHARGES AND SPIN POPULATIONS
----------------------------------------------------
CHARGE
  0 N s       :     3.363603  s :     3.363603
      pz      :     1.391368  p :     3.770075
      px      :     1.120545
      py      :     1.258162
      dz2     :     0.005663  d :     0.020429
      dxz     :     0.002888
      dyz     :     0.004630
      dx2y2   :     0.003513
      dxy     :     0.003736
  1 H s       :     0.797278  s :     0.797278
      pz      :     0.027717  p :     0.125675
      px      :     0.029003
      py      :     0.068956
  2 H s       :     0.797249  s :     0.797249
      pz      :     0.064145  p :     0.125691
      px      :     0.029003
      py      :     0.032543

SPIN
  0 N s       :     0.018147  s :     0.018147
      pz      :     0.204379  p :     0.983863
      px      :     0.714464
      py      :     0.065020
      dz2     :    -0.000237  d :    -0.000735
      dxz     :     0.000150
      dyz     :    -0.000322
      dx2y2   :    -0.000162
      dxy     :    -0.000165
  1 H s       :    -0.025565  s :    -0.025565
      pz      :     0.004567  p :     0.024926
      px      :     0.015946
      py      :     0.004414
  2 H s       :    -0.025564  s :    -0.025564
      pz      :     0.006699  p :     0.024928
      px      :     0.015943
      py      :     0.002286


                      *****************************
                      * MAYER POPULATION ANALYSIS *
                      *****************************

  NA   - Mulliken gross atomic population
  ZA   - Total nuclear charge
  QA   - Mulliken gross atomic charge
  VA   - Mayer's total valence
  BVA  - Mayer's bonded valence
  FA   - Mayer's free valence

  ATOM       NA         ZA         QA         VA         BVA        FA
  0 N      7.5142     7.0000    -0.5142     2.8196     1.8413     0.9783
  1 H      0.7429     1.0000     0.2571     0.9254     0.9231     0.0023
  2 H      0.7429     1.0000     0.2571     0.9254     0.9230     0.0023

  Mayer bond orders larger than 0.100000
B(  0-N ,  1-H ) :   0.9207 B(  0-N ,  2-H ) :   0.9206 

Now starting NBO....

 *********************************** NBO 7.0 ***********************************
             N A T U R A L   A T O M I C   O R B I T A L   A N D
          N A T U R A L   B O N D   O R B I T A L   A N A L Y S I S
 *********************** Giovanni  F. Caramori (I101916) ***********************
  (c) Copyright 1996-2020 Board of Regents of the University of Wisconsin System
      on behalf of the Theoretical Chemistry Institute.  All rights reserved.

          Cite this program [NBO 7.0.8 (11-Feb-2020)] as:

          NBO 7.0.  E. D. Glendening, J. K. Badenhoop, A. E. Reed,
          J. E. Carpenter, J. A. Bohmann, C. M. Morales, P. Karafiloglou,
          C. R. Landis, and F. Weinhold, Theoretical Chemistry Institute,
          University of Wisconsin, Madison, WI (2018)

       /NPA    / : Natural Population Analysis
       /NBO    / : Natural Bond Orbital Analysis
       /AONBO  / : Checkpoint the AO to NBO transformation
       /ARCHIVE/ : Write the archive file to lfn47

 Job title: ORCA Job: NH2·

 Warning: natural populations do not reflect C2v point group symmetry


 NATURAL POPULATIONS:  Natural atomic orbital occupancies

  NAO Atom No lang   Type(AO)    Occupancy     Spin
 -----------------------------------------------------
   1    N  1  s      Cor( 1s)     2.00000     0.00000
   2    N  1  s      Val( 2s)     1.69878     0.02120
   3    N  1  s      Ryd( 3s)     0.00108    -0.00028
   4    N  1  s      Ryd( 5s)     0.00001     0.00000
   5    N  1  s      Ryd( 4s)     0.00000     0.00000
   6    N  1  px     Val( 2p)     1.16020     0.74658
   7    N  1  px     Ryd( 3p)     0.00076    -0.00051
   8    N  1  px     Ryd( 4p)     0.00016     0.00013
   9    N  1  px     Ryd( 5p)     0.00000     0.00000
  10    N  1  py     Val( 2p)     1.32330     0.07288
  11    N  1  py     Ryd( 3p)     0.00230     0.00036
  12    N  1  py     Ryd( 4p)     0.00008    -0.00003
  13    N  1  py     Ryd( 5p)     0.00000     0.00000
  14    N  1  pz     Val( 2p)     1.43607     0.21874
  15    N  1  pz     Ryd( 3p)     0.00219    -0.00110
  16    N  1  pz     Ryd( 4p)     0.00011     0.00003
  17    N  1  pz     Ryd( 5p)     0.00000     0.00000
  18    N  1  dxy    Ryd( 3d)     0.00126     0.00005
  19    N  1  dxz    Ryd( 3d)     0.00199     0.00019
  20    N  1  dyz    Ryd( 3d)     0.00159     0.00008
  21    N  1  dx2y2  Ryd( 3d)     0.00125    -0.00004
  22    N  1  dz2    Ryd( 3d)     0.00202     0.00036

  23    H  2  s      Val( 1s)     0.68191    -0.02970
  24    H  2  s      Ryd( 2s)     0.00015    -0.00003
  25    H  2  s      Ryd( 3s)     0.00003     0.00001
  26    H  2  s      Ryd( 4s)     0.00000     0.00000
  27    H  2  px     Ryd( 2p)     0.00044     0.00029
  28    H  2  py     Ryd( 2p)     0.00043    -0.00002
  29    H  2  pz     Ryd( 2p)     0.00051     0.00011

  30    H  3  s      Val( 1s)     0.68184    -0.02970
  31    H  3  s      Ryd( 2s)     0.00015    -0.00003
  32    H  3  s      Ryd( 3s)     0.00003     0.00001
  33    H  3  s      Ryd( 4s)     0.00000     0.00000
  34    H  3  px     Ryd( 2p)     0.00044     0.00029
  35    H  3  py     Ryd( 2p)     0.00043     0.00005
  36    H  3  pz     Ryd( 2p)     0.00050     0.00004


 Summary of Natural Population Analysis:

                                     Natural Population                 Natural
             Natural    ---------------------------------------------    Spin
  Atom No    Charge        Core      Valence    Rydberg      Total      Density
 -------------------------------------------------------------------------------
    N  1   -0.63313      2.00000     5.61835    0.01479     7.63313     1.05866
    H  2    0.31653      0.00000     0.68191    0.00156     0.68347    -0.02933
    H  3    0.31660      0.00000     0.68184    0.00156     0.68340    -0.02933
 ===============================================================================
 * Total *  0.00000      2.00000     6.98210    0.01791     9.00000     1.00000

                                 Natural Population
 ---------------------------------------------------------
   Core                       2.00000 ( 99.9998% of    2)
   Valence                    6.98210 ( 99.7443% of    7)
   Natural Minimal Basis      8.98209 ( 99.8010% of    9)
   Natural Rydberg Basis      0.01791 (  0.1990% of    9)
 ---------------------------------------------------------

    Atom No         Natural Electron Configuration
 ----------------------------------------------------------------------------
      N  1      [core]2s( 1.70)2p( 3.92)3p( 0.01)3d( 0.01)
      H  2            1s( 0.68)
      H  3            1s( 0.68)


 ***************************************************
 *******         Alpha spin orbitals         *******
 ***************************************************

 Warning: natural populations do not reflect C2v point group symmetry


 NATURAL POPULATIONS:  Natural atomic orbital occupancies

  NAO Atom No lang   Type(AO)    Occupancy      Energy
 -------------------------------------------------------
   1    N  1  s      Cor( 1s)     1.00000     -14.76869
   2    N  1  s      Val( 2s)     0.85999      -0.68538
   3    N  1  s      Ryd( 3s)     0.00040       0.60889
   4    N  1  s      Ryd( 5s)     0.00000      17.34054
   5    N  1  s      Ryd( 4s)     0.00000      12.76598
   6    N  1  px     Val( 2p)     0.95339      -0.35171
   7    N  1  px     Ryd( 3p)     0.00012       0.44963
   8    N  1  px     Ryd( 4p)     0.00015       1.21211
   9    N  1  px     Ryd( 5p)     0.00000       3.40389
  10    N  1  py     Val( 2p)     0.69809      -0.22162
  11    N  1  py     Ryd( 3p)     0.00133       0.49138
  12    N  1  py     Ryd( 4p)     0.00003       1.38945
  13    N  1  py     Ryd( 5p)     0.00000       3.42134
  14    N  1  pz     Val( 2p)     0.82741      -0.27884
  15    N  1  pz     Ryd( 3p)     0.00054       0.51915
  16    N  1  pz     Ryd( 4p)     0.00007       1.33758
  17    N  1  pz     Ryd( 5p)     0.00000       3.72334
  18    N  1  dxy    Ryd( 3d)     0.00066       2.23203
  19    N  1  dxz    Ryd( 3d)     0.00109       2.19367
  20    N  1  dyz    Ryd( 3d)     0.00083       2.33494
  21    N  1  dx2y2  Ryd( 3d)     0.00061       2.28852
  22    N  1  dz2    Ryd( 3d)     0.00119       2.30244

  23    H  2  s      Val( 1s)     0.32610       0.09843
  24    H  2  s      Ryd( 2s)     0.00006       1.03359
  25    H  2  s      Ryd( 3s)     0.00002       1.77414
  26    H  2  s      Ryd( 4s)     0.00000       2.87474
  27    H  2  px     Ryd( 2p)     0.00037       1.69836
  28    H  2  py     Ryd( 2p)     0.00021       2.40049
  29    H  2  pz     Ryd( 2p)     0.00031       1.65538

  30    H  3  s      Val( 1s)     0.32607       0.09855
  31    H  3  s      Ryd( 2s)     0.00006       1.03558
  32    H  3  s      Ryd( 3s)     0.00002       1.77239
  33    H  3  s      Ryd( 4s)     0.00000       2.87652
  34    H  3  px     Ryd( 2p)     0.00037       1.69849
  35    H  3  py     Ryd( 2p)     0.00024       1.84881
  36    H  3  pz     Ryd( 2p)     0.00027       2.20717


 Summary of Natural Population Analysis:

                                     Natural Population
             Natural    ---------------------------------------------
  Atom No    Charge        Core      Valence    Rydberg      Total
 --------------------------------------------------------------------
    N  1   -0.84590      1.00000     3.33888    0.00702     4.34590
    H  2    0.17293      0.00000     0.32610    0.00096     0.32707
    H  3    0.17296      0.00000     0.32607    0.00096     0.32704
 ====================================================================
 * Total * -0.50000      1.00000     3.99106    0.00894     5.00000

                                 Natural Population
 ---------------------------------------------------------
   Core                       1.00000 ( 99.9998% of    1)
   Valence                    3.99106 ( 99.7764% of    4)
   Natural Minimal Basis      4.99106 ( 99.8211% of    5)
   Natural Rydberg Basis      0.00894 (  0.1789% of    5)
 ---------------------------------------------------------

    Atom No         Natural Electron Configuration
 ----------------------------------------------------------------------------
      N  1      [core]2s( 0.86)2p( 2.48)
      H  2            1s( 0.33)
      H  3            1s( 0.33)


 NATURAL BOND ORBITAL ANALYSIS, alpha spin orbitals:

[...]
                                        -0.0720 -0.7944
  26. (0.00004) RY ( 2) H  2            s( 75.27%)p 0.33( 24.73%)
  27. (0.00000) RY ( 3) H  2            s( 85.20%)p 0.17( 14.80%)
  28. (0.00000) RY ( 4) H  2            s(  1.33%)p74.44( 98.67%)
  29. (0.00000) RY ( 5) H  2            s( 23.19%)p 3.31( 76.81%)
  30. (0.00000) RY ( 6) H  2            s( 97.81%)p 0.02(  2.19%)
  31. (0.00030) RY ( 1) H  3            s( 17.22%)p 4.81( 82.78%)
                                         0.0024  0.4069  0.0505  0.0639 -0.4367
                                        -0.5805 -0.5478
  32. (0.00004) RY ( 2) H  3            s( 75.33%)p 0.33( 24.67%)
  33. (0.00000) RY ( 3) H  3            s( 80.12%)p 0.25( 19.88%)
  34. (0.00000) RY ( 4) H  3            s(  6.67%)p13.99( 93.33%)
  35. (0.00000) RY ( 5) H  3            s( 23.14%)p 3.32( 76.86%)
  36. (0.00000) RY ( 6) H  3            s( 97.58%)p 0.02(  2.42%)


 NHO DIRECTIONALITY AND BOND BENDING (deviation from line of nuclear centers at
                                      the position of maximum hybrid amplitude)

         [Thresholds for printing:  angular deviation  >  1.0 degree]
                                    p- or d-character  > 25.0%
                                    orbital occupancy  >  0.10e

                        Line of Centers        Hybrid 1             Hybrid 2
                        ---------------  -------------------  ------------------
           NBO            Theta   Phi    Theta   Phi    Dev   Theta   Phi    Dev
 ===============================================================================
   2. LP ( 1) N  1          --     --     39.1   36.8   --      --     --    --
   3. BD ( 1) N  1- H  2   97.8  251.6    96.8  252.2   1.2     --     --    --
   4. BD ( 1) N  1- H  3  145.4  123.4   144.7  121.7   1.2     --     --    --


 SECOND ORDER PERTURBATION THEORY ANALYSIS OF FOCK MATRIX IN NBO BASIS

     Threshold for printing:   0.25 kcal/mol
                                                          E(2) E(NL)-E(L) F(L,NL)
      Donor (L) NBO              Acceptor (NL) NBO      kcal/mol   a.u.    a.u.
 ===============================================================================

 within unit  1
    2. LP ( 1) N  1            25. RY ( 1) H  2            0.32    2.04   0.032
    2. LP ( 1) N  1            31. RY ( 1) H  3            0.32    2.04   0.032


 NATURAL BOND ORBITALS (Summary):

                                                     Principal Delocalizations
           NBO                 Occupancy    Energy   (geminal,vicinal,remote)
 ===============================================================================
 Molecular unit  1  (H2N)
 ------ Lewis --------------------------------------
    1. CR ( 1) N  1             1.00000   -14.75551
    2. LP ( 1) N  1             0.99945    -0.48409  25(v),31(v)
    3. BD ( 1) N  1- H  2       0.99981    -0.64983
    4. BD ( 1) N  1- H  3       0.99981    -0.64985
 ------ non-Lewis ----------------------------------
    5. LV ( 1) N  1             0.00000     0.01270
    6. BD*( 1) N  1- H  2       0.00012     0.51440
    7. BD*( 1) N  1- H  3       0.00012     0.51452
    8. RY ( 1) N  1             0.00000     2.30418
    9. RY ( 2) N  1             0.00000     2.98569
   10. RY ( 3) N  1             0.00000    12.59924
   11. RY ( 4) N  1             0.00000    13.99601
   12. RY ( 5) N  1             0.00000     2.44140
   13. RY ( 6) N  1             0.00000     1.39756
   14. RY ( 7) N  1             0.00000     0.57041
   15. RY ( 8) N  1             0.00000     2.15120
   16. RY ( 9) N  1             0.00000     2.80293
   17. RY (10) N  1             0.00000     2.11201
   18. RY (11) N  1             0.00000     2.05506
   19. RY (12) N  1             0.00000     1.45232
   20. RY (13) N  1             0.00000     2.27220
   21. RY (14) N  1             0.00000     2.24235
   22. RY (15) N  1             0.00000     2.19364
   23. RY (16) N  1             0.00000     2.47193
   24. RY (17) N  1             0.00000     2.33171
   25. RY ( 1) H  2             0.00030     1.55707
   26. RY ( 2) H  2             0.00004     1.30814
   27. RY ( 3) H  2             0.00000     2.94953
   28. RY ( 4) H  2             0.00000     1.64511
   29. RY ( 5) H  2             0.00000     2.35030
   30. RY ( 6) H  2             0.00000     1.69400
   31. RY ( 1) H  3             0.00030     1.55777
   32. RY ( 2) H  3             0.00004     1.30901
   33. RY ( 3) H  3             0.00000     2.86871
   34. RY ( 4) H  3             0.00000     1.72782
   35. RY ( 5) H  3             0.00000     2.35064
   36. RY ( 6) H  3             0.00000     1.69258
          -------------------------------
                 Total Lewis    3.99907  ( 99.9767%)
           Valence non-Lewis    0.00024  (  0.0061%)
           Rydberg non-Lewis    0.00069  (  0.0172%)
          -------------------------------
               Total unit  1    4.00000  (100.0000%)
              Charge unit  1    0.50000

 $CHOOSE
  ALPHA
   LONE 1 2 END
   BOND S 1 2 S 1 3 END
  END
  BETA
   LONE 1 1 END
   BOND S 1 2 S 1 3 END
  END
 $END

 NBO analysis completed in 0.08 CPU seconds (0 wall seconds)
 Maximum scratch memory used by NBO was 318080 words (2.43 MB)
Stopping NBO...Storing NBOs: NH2·.nbo

                                *** returned from  NBO  program ***

-------
TIMINGS
-------

Total SCF time: 0 days 0 hours 0 min 4 sec 

Total time                  ....       4.943 sec
Sum of individual times     ....       4.237 sec  ( 85.7%)

Fock matrix formation       ....       2.329 sec  ( 47.1%)
  XC integration            ....       0.493 sec  ( 21.2% of F)
    Basis function eval.    ....       0.019 sec  (  4.0% of XC)
    Density eval.           ....       0.074 sec  ( 15.0% of XC)
    XC-Functional eval.     ....       0.097 sec  ( 19.6% of XC)
    XC-Potential eval.      ....       0.039 sec  (  7.9% of XC)
Diagonalization             ....       0.034 sec  (  0.7%)
Density matrix formation    ....       0.008 sec  (  0.2%)
Population analysis         ....       0.361 sec  (  7.3%)
Initial guess               ....       0.056 sec  (  1.1%)
Orbital Transformation      ....       0.000 sec  (  0.0%)
Orbital Orthonormalization  ....       0.005 sec  (  0.1%)
DIIS solution               ....       0.000 sec  (  0.0%)
Grid generation             ....       1.449 sec  ( 29.3%)


-------------------------------------------------------------------------------
                          DFT DISPERSION CORRECTION                            
                                                                               
                              DFTD3 V3.1  Rev 1                                
                              USING zero damping                               
-------------------------------------------------------------------------------
The M062X functional is recognized
Active option DFTDOPT                   ...         3   

molecular C6(AA) [au] = 62.943014 


            DFT-D V3
 parameters
 s6 scaling factor         :     1.0000 
 rs6 scaling factor        :     1.6190 
 s8 scaling factor         :     0.0000 
 rs8 scaling factor        :     1.0000 
 Damping factor alpha6     :    14.0000 
 Damping factor alpha8     :    16.0000 
 ad hoc parameters k1-k3   :    16.0000     1.3333    -4.0000 

 Edisp/kcal,au: -0.000007134995  -0.000000011370 
 E6   /kcal   :  -0.000007135 
 E8   /kcal   :  -0.000000000 
 % E8         :   0.000000000 

-------------------------   ----------------
Dispersion correction           -0.000000011
-------------------------   ----------------


-------------------------   --------------------
FINAL SINGLE POINT ENERGY       -55.872225191329
-------------------------   --------------------

                                *** OPTIMIZATION RUN DONE ***

                            ***************************************
                            *     ORCA property calculations      *
                            ***************************************

                                    ---------------------
                                    Active property flags
                                    ---------------------
   (+) Dipole Moment


------------------------------------------------------------------------------
                       ORCA ELECTRIC PROPERTIES CALCULATION
------------------------------------------------------------------------------

Dipole Moment Calculation                       ... on
Quadrupole Moment Calculation                   ... off
Polarizability Calculation                      ... off
GBWName                                         ... NH2·.gbw
Electron density file                           ... NH2·.scfp
The origin for moment calculation is the CENTER OF MASS  = (-7.846310, -0.964945 -0.031293)

-------------
DIPOLE MOMENT
-------------
                                X             Y             Z
Electronic contribution:      0.01921       0.01452       0.02951
Nuclear contribution   :     -0.52448      -0.39176      -0.80577
                        -----------------------------------------
Total Dipole Moment    :     -0.50527      -0.37724      -0.77627
                        -----------------------------------------
Magnitude (a.u.)       :      1.00010
Magnitude (Debye)      :      2.54205



--------------------
Rotational spectrum 
--------------------
 
Rotational constants in cm-1:    23.857194    12.878341     8.363593 
Rotational constants in MHz : 715220.673437 386082.955984 250734.224790 

 Dipole components along the rotational axes: 
x,y,z [a.u.] :    -0.000050    -1.000099     0.000033 
x,y,z [Debye]:    -0.000126    -2.542050     0.000083 

 

----------------------------------------------------------------------------
                           ORCA NUMERICAL FREQUENCIES
                              (12-process run)
----------------------------------------------------------------------------

Number of atoms                ... 3
Central differences            ... used
Number of displacements        ... 18
Numerical increment            ... 5.000e-03 bohr
IR-spectrum generation         ... on
Raman-spectrum generation      ... off
Surface Crossing Hessian       ... off

 WARNING: There are more processes than displacements to do
  ====> : Reducing number of processes to   9

The output will be reduced. Please look at the following files:
SCF program output             ... >NH2·.lastscf
Integral program output        ... >NH2·.lastint
Gradient program output        ... >NH2·.lastgrad
Dipole moment program output   ... >NH2·.lastmom
AutoCI program output          ... >NH2·.lastautoci


         <<< Energy and Gradient at the input geometry >>>

        <<< Energy and Gradient at displaced geometries >>>
             <<<Displacing   3/coordinate 2 (+)>>>
             <<<Displacing   1/coordinate 1 (+)>>>
             <<<Displacing   1/coordinate 3 (+)>>>
             <<<Displacing   1/coordinate 2 (+)>>>
             <<<Displacing   2/coordinate 2 (+)>>>
             <<<Displacing   2/coordinate 1 (+)>>>
             <<<Displacing   2/coordinate 3 (+)>>>
             <<<Displacing   3/coordinate 3 (+)>>>
             <<<Displacing   3/coordinate 1 (+)>>>
             <<<Displacing   2/coordinate 2 (-)>>>
             <<<Displacing   3/coordinate 2 (-)>>>
             <<<Displacing   3/coordinate 3 (-)>>>
             <<<Displacing   1/coordinate 2 (-)>>>
             <<<Displacing   2/coordinate 3 (-)>>>
             <<<Displacing   1/coordinate 3 (-)>>>
             <<<Displacing   2/coordinate 1 (-)>>>
             <<<Displacing   1/coordinate 1 (-)>>>
             <<<Displacing   3/coordinate 1 (-)>>>

-----------------------
VIBRATIONAL FREQUENCIES
-----------------------

Scaling factor for frequencies =  1.000000000 (already applied!)

   0:         0.00 cm**-1
   1:         0.00 cm**-1
   2:         0.00 cm**-1
   3:         0.00 cm**-1
   4:         0.00 cm**-1
   5:         0.00 cm**-1
   6:      1484.06 cm**-1
   7:      3437.45 cm**-1
   8:      3521.06 cm**-1


------------
NORMAL MODES
------------

These modes are the cartesian displacements weighted by the diagonal matrix
M(i,i)=1/sqrt(m[i]) where m[i] is the mass of the displaced atom
Thus, these vectors are normalized but *not* orthogonal

                  0          1          2          3          4          5    
      0       0.000000   0.000000   0.000000   0.000000   0.000000   0.000000
      1       0.000000   0.000000   0.000000   0.000000   0.000000   0.000000
      2       0.000000   0.000000   0.000000   0.000000   0.000000   0.000000
      3       0.000000   0.000000   0.000000   0.000000   0.000000   0.000000
      4       0.000000   0.000000   0.000000   0.000000   0.000000   0.000000
      5       0.000000   0.000000   0.000000   0.000000   0.000000   0.000000
      6       0.000000   0.000000   0.000000   0.000000   0.000000   0.000000
      7       0.000000   0.000000   0.000000   0.000000   0.000000   0.000000
      8       0.000000   0.000000   0.000000   0.000000   0.000000   0.000000
                   6          7          8    
      0      -0.040131  -0.029276  -0.000172
      1      -0.029927  -0.021532  -0.071862
      2      -0.061678  -0.045141   0.034619
      3       0.278655   0.202411   0.221209
      4      -0.186481   0.670295   0.665876
      5       0.620000   0.058535   0.096391
      6       0.279005   0.204404  -0.218817
      7       0.602344  -0.371096   0.332713
      8       0.237073   0.568732  -0.577445


-----------
IR SPECTRUM  
-----------

 Mode    freq (cm**-1)   T**2         TX         TY         TZ
-------------------------------------------------------------------
   6:      1484.06   49.095026  (  3.830587   2.508110   5.303868)
   7:      3437.45    0.361983  (  0.526920   0.007486   0.290316)
   8:      3521.06   12.391445  (  0.016139   3.130154  -1.610378)

The first frequency considered to be a vibration is 6
The total number of vibrations considered is 3


--------------------------
THERMOCHEMISTRY AT 298.15K
--------------------------

Temperature         ... 298.15 K
Pressure            ... 1.00 atm
Total Mass          ... 16.02 AMU

Throughout the following assumptions are being made:
  (1) The electronic state is orbitally nondegenerate
      but the spin degeneracy is treated
  (2) There are no thermally accessible electronically excited states
  (3) Hindered rotations indicated by low frequency modes are not
      treated as such but are treated as vibrations and this may
      cause some error
  (4) All equations used are the standard statistical mechanics
      equations for an ideal gas
  (5) All vibrations are strictly harmonic

freq.    1484.06  E(vib)   ...       0.00 
freq.    3437.45  E(vib)   ...       0.00 
freq.    3521.06  E(vib)   ...       0.00 

------------
INNER ENERGY
------------

The inner energy is: U= E(el) + E(ZPE) + E(vib) + E(rot) + E(trans)
    E(el)   - is the total energy from the electronic structure calculation
              = E(kin-el) + E(nuc-el) + E(el-el) + E(nuc-nuc)
    E(ZPE)  - the the zero temperature vibrational energy from the frequency calculation
    E(vib)  - the the finite temperature correction to E(ZPE) due to population
              of excited vibrational states
    E(rot)  - is the rotational thermal energy
    E(trans)- is the translational thermal energy

Summary of contributions to the inner energy U:
Electronic energy                ...    -55.87222519 Eh
Zero point energy                ...      0.01923358 Eh      12.07 kcal/mol
Thermal vibrational correction   ...      0.00000525 Eh       0.00 kcal/mol
Thermal rotational correction    ...      0.00141627 Eh       0.89 kcal/mol
Thermal translational correction ...      0.00141627 Eh       0.89 kcal/mol
-----------------------------------------------------------------------
Total thermal energy                    -55.85015381 Eh


Summary of corrections to the electronic energy:
(perhaps to be used in another calculation)
Total thermal correction                  0.00283780 Eh       1.78 kcal/mol
Non-thermal (ZPE) correction              0.01923358 Eh      12.07 kcal/mol
-----------------------------------------------------------------------
Total correction                          0.02207138 Eh      13.85 kcal/mol


--------
ENTHALPY
--------

The enthalpy is H = U + kB*T
                kB is Boltzmann's constant
Total free energy                 ...    -55.85015381 Eh 
Thermal Enthalpy correction       ...      0.00094421 Eh       0.59 kcal/mol
-----------------------------------------------------------------------
Total Enthalpy                    ...    -55.84920960 Eh


Note: Rotational entropy computed according to Herzberg 
Infrared and Raman Spectra, Chapter V,1, Van Nostrand Reinhold, 1945 
Point Group:  Cs, Symmetry Number:   1  
Rotational constants in cm-1:    23.857194    12.878341     8.363593 

Vibrational entropy computed according to the QRRHO of S. Grimme
Chem.Eur.J. 2012 18 9955


-------
ENTROPY
-------

The entropy contributions are T*S = T*(S(el)+S(vib)+S(rot)+S(trans))
     S(el)   - electronic entropy
     S(vib)  - vibrational entropy
     S(rot)  - rotational entropy
     S(trans)- translational entropy
The entropies will be listed as mutliplied by the temperature to get
units of energy

Electronic entropy                ...      0.00065446 Eh      0.41 kcal/mol
Vibrational entropy               ...      0.00000599 Eh      0.00 kcal/mol
Rotational entropy                ...      0.00580418 Eh      3.64 kcal/mol
Translational entropy             ...      0.01627784 Eh     10.21 kcal/mol
-----------------------------------------------------------------------
Final entropy term                ...      0.02274247 Eh     14.27 kcal/mol

In case the symmetry of your molecule has not been determined correctly
or in case you have a reason to use a different symmetry number we print 
out the resulting rotational entropy values for sn=1,12 :
 --------------------------------------------------------
|  sn= 1 | S(rot)=       0.00580418 Eh      3.64 kcal/mol|
|  sn= 2 | S(rot)=       0.00514973 Eh      3.23 kcal/mol|
|  sn= 3 | S(rot)=       0.00476689 Eh      2.99 kcal/mol|
|  sn= 4 | S(rot)=       0.00449527 Eh      2.82 kcal/mol|
|  sn= 5 | S(rot)=       0.00428458 Eh      2.69 kcal/mol|
|  sn= 6 | S(rot)=       0.00411244 Eh      2.58 kcal/mol|
|  sn= 7 | S(rot)=       0.00396689 Eh      2.49 kcal/mol|
|  sn= 8 | S(rot)=       0.00384081 Eh      2.41 kcal/mol|
|  sn= 9 | S(rot)=       0.00372960 Eh      2.34 kcal/mol|
|  sn=10 | S(rot)=       0.00363013 Eh      2.28 kcal/mol|
|  sn=11 | S(rot)=       0.00354013 Eh      2.22 kcal/mol|
|  sn=12 | S(rot)=       0.00345798 Eh      2.17 kcal/mol|
 --------------------------------------------------------


-------------------
GIBBS FREE ENERGY
-------------------

The Gibbs free energy is G = H - T*S

Total enthalpy                    ...    -55.84920960 Eh 
Total entropy correction          ...     -0.02274247 Eh    -14.27 kcal/mol
-----------------------------------------------------------------------
Final Gibbs free energy         ...    -55.87195207 Eh

For completeness - the Gibbs free energy minus the electronic energy
G-E(el)                           ...      0.00027312 Eh      0.17 kcal/mol


Total Time for Numerical Frequencies  :        49.839 sec

Timings for individual modules:

Sum of individual times         ...       83.204 sec (=   1.387 min)
GTO integral calculation        ...        9.834 sec (=   0.164 min)  11.8 %
SCF iterations                  ...       61.552 sec (=   1.026 min)  74.0 %
SCF Gradient evaluation         ...       11.735 sec (=   0.196 min)  14.1 %
Geometry relaxation             ...        0.082 sec (=   0.001 min)   0.1 %
                             ****ORCA TERMINATED NORMALLY****
TOTAL RUN TIME: 0 days 0 hours 2 minutes 4 seconds 26 msec
