
                                 *****************
                                 * O   R   C   A *
                                 *****************

           --- An Ab Initio, DFT and Semiempirical electronic structure package ---

                  #######################################################
                  #                        -***-                        #
                  #          Department of theory and spectroscopy      #
                  #               Directorship: Frank Neese             #
                  #        Max Planck Institute fuer Kohlenforschung    #
                  #                Kaiser Wilhelm Platz 1               #
                  #                 D-45470 Muelheim/Ruhr               #
                  #                      Germany                        #
                  #                                                     #
                  #                  All rights reserved                #
                  #                        -***-                        #
                  #######################################################


                         Program Version 4.2.1 -  RELEASE  -


 With contributions from (in alphabetic order):
   Daniel Aravena         : Magnetic Suceptibility
   Michael Atanasov       : Ab Initio Ligand Field Theory (pilot matlab implementation)
   Alexander A. Auer      : GIAO ZORA, VPT2
   Ute Becker             : Parallelization
   Giovanni Bistoni       : ED, misc. LED, open-shell LED, HFLD
   Martin Brehm           : Molecular dynamics
   Dmytro Bykov           : SCF Hessian
   Vijay G. Chilkuri      : MRCI spin determinant printing, contributions to CSF-ICE
   Dipayan Datta          : RHF DLPNO-CCSD density
   Achintya Kumar Dutta   : EOM-CC, STEOM-CC
   Dmitry Ganyushin       : Spin-Orbit,Spin-Spin,Magnetic field MRCI
   Miquel Garcia          : C-PCM Hessian, Gaussian charge scheme
   Yang Guo               : DLPNO-NEVPT2, CIM, IAO-localization
   Andreas Hansen         : Spin unrestricted coupled pair/coupled cluster methods
   Benjamin Helmich-Paris : CASSCF linear response (MC-RPA)
   Lee Huntington         : MR-EOM, pCC
   Robert Izsak           : Overlap fitted RIJCOSX, COSX-SCS-MP3, EOM
   Christian Kollmar      : KDIIS, OOCD, Brueckner-CCSD(T), CCSD density
   Simone Kossmann        : Meta GGA functionals, TD-DFT gradient, OOMP2, MP2 Hessian
   Martin Krupicka        : AUTO-CI
   Lucas Lang             : DCDCAS
   Dagmar Lenk            : GEPOL surface, SMD
   Dimitrios Liakos       : Extrapolation schemes; Compound Job, initial MDCI parallelization
   Dimitrios Manganas     : Further ROCIS development; embedding schemes
   Dimitrios Pantazis     : SARC Basis sets
   Taras Petrenko         : DFT Hessian,TD-DFT gradient, ASA, ECA, R-Raman, ABS, FL, XAS/XES, NRVS
   Peter Pinski           : DLPNO-MP2, DLPNO-MP2 Gradient
   Christoph Reimann      : Effective Core Potentials
   Marius Retegan         : Local ZFS, SOC
   Christoph Riplinger    : Optimizer, TS searches, QM/MM, DLPNO-CCSD(T), (RO)-DLPNO pert. Triples
   Tobias Risthaus        : Range-separated hybrids, TD-DFT gradient, RPA, STAB
   Michael Roemelt        : Original ROCIS implementation
   Masaaki Saitow         : Open-shell DLPNO-CCSD energy and density
   Barbara Sandhoefer     : DKH picture change effects
   Avijit Sen             : IP-ROCIS
   Kantharuban Sivalingam : CASSCF convergence, NEVPT2, FIC-MRCI
   Bernardo de Souza      : ESD, SOC TD-DFT
   Georgi Stoychev        : AutoAux, RI-MP2 NMR
   Willem Van den Heuvel  : Paramagnetic NMR
   Boris Wezisla          : Elementary symmetry handling
   Frank Wennmohs         : Technical directorship


 We gratefully acknowledge several colleagues who have allowed us to
 interface, adapt or use parts of their codes:
   Stefan Grimme, W. Hujo, H. Kruse,             : VdW corrections, initial TS optimization,
                  C. Bannwarth                     DFT functionals, gCP, sTDA/sTD-DF
   Ed Valeev, F. Pavosevic, A. Kumar             : LibInt (2-el integral package), F12 methods
   Garnet Chan, S. Sharma, J. Yang, R. Olivares  : DMRG
   Ulf Ekstrom                                   : XCFun DFT Library
   Mihaly Kallay                                 : mrcc  (arbitrary order and MRCC methods)
   Andreas Klamt, Michael Diedenhofen            : otool_cosmo (COSMO solvation model)
   Jiri Pittner, Ondrej Demel                    : Mk-CCSD
   Frank Weinhold                                : gennbo (NPA and NBO analysis)
   Christopher J. Cramer and Donald G. Truhlar   : smd solvation model
   Lars Goerigk                                  : TD-DFT with DH, B97 family of functionals
   V. Asgeirsson, H. Jonsson                     : NEB implementation
   FAccTs GmbH                                   : IRC, NEB, NEB-TS, Multilevel, MM, QM/MM, CI optimization
   S Lehtola, MJT Oliveira, MAL Marques          : LibXC Library


 Your calculation uses the libint2 library for the computation of 2-el integrals
 For citations please refer to: http://libint.valeyev.net

 Your ORCA version has been built with support for libXC version: 4.2.3
 For citations please refer to: https://tddft.org/programs/libxc/

 This ORCA versions uses:
   CBLAS   interface :  Fast vector & matrix operations
   LAPACKE interface :  Fast linear algebra routines
   SCALAPACK package :  Parallel linear algebra routines




***************************************
The coordinates will be read from file: NH3.xyz
***************************************


Your calculation utilizes the atom-pairwise dispersion correction
with the zero-damping scheme (D30)
Cite in your paper:
S.Grimme, J.Antony, S.Ehrlich and H.Krieg, J.Chem.Phys., 132, (2010), 154104 
   

Your calculation utilizes the SMD solvation module
Please cite in your paper:
A.V. Marenich, C.J. Cramer, D.G. Truhlar J. Phys. Chem. B, 113, (2009), 6378 

XCFun DFT library Copyright 2009-2010 Ulf Ekstrom and contributors.
See http://admol.org/xcfun for more information. This is free soft-
ware; see the source code for copying conditions. There is ABSOLUTELY
NO WARRANTY; not even for MERCHANTABILITY or FITNESS FOR A PARTICULAR
PURPOSE. For details see the documentation. Scientific users of this 
library should cite U. Ekstrom, L. Visscher, R. Bast, A. J. Thorvald-
sen and K. Ruud; J.Chem.Theor.Comp. 2010, DOI: 10.1021/ct100117s
XCFun Version 0.99 
----- Orbital basis set information -----
Your calculation utilizes the basis: 6-311++G(d,p)
   H, Li - Ne  : R. Krishnan, J. S. Binkley, R. Seeger and J. A. Pople, J. Chem. Phys. 72, 650 (1980).
   Na - Ar     : A. D. McLean and G. S. Chandler J. Chem. Phys. 72, 5639, (1980).
   K  - Ca     : J.-P. Blaudeau, M. P. McGrath, L. A. Curtiss and L. Radom, J. Chem. Phys. 107, 5016 (1997).
   Ga - Kr     : L. A. Curtiss, M. P. McGrath, J.-P. Blandeau, N. E. Davis, R. C. Binning and L. Radom, J. Chem. Phys. 103, 6104 (1995).
   Pol./Diff.
   H, Li - Cl  : T. Clark, J. Chandrasekhar and P. v. R. Schleyer, J. Comp. Chem. 4, 294 (1983).
   H - Ne      : M. J. Frisch, J. A. Pople and J. S. Binkley, J. Chem. Phys. 80, 3265 (1984).

================================================================================
                                        WARNINGS
                       Please study these warnings very carefully!
================================================================================


WARNING: The environment variable RSH_COMMAND is not set!
  ===> : All Displacements for the Numerical Hessian calculation
         will be started on localhost

WARNING: Geometry Optimization
  ===> : Switching off AutoStart
         For restart on a previous wavefunction, please use MOREAD

INFO   : the flag for use of LIBINT has been found!

================================================================================
                                       INPUT FILE
================================================================================
NAME = NH3.inp
|  1> ! UHF M062X D3Zero 6-311++G(d,p) Opt NumFreq TightOpt TightSCF Grid6 NoFinalGrid PrintBasis PrintMOs NBO
|  2> 
|  3> %pal
|  4>  nprocs 12
|  5> end
|  6> 
|  7> %cpcm
|  8>  smd true
|  9>  smdsolvent "water"
| 10> end
| 11> 
| 12> *xyzfile 0 1 NH3.xyz
| 13> 
| 14>                          ****END OF INPUT****
================================================================================

                       *****************************
                       * Geometry Optimization Run *
                       *****************************

Geometry optimization settings:
Update method            Update   .... BFGS
Choice of coordinates    CoordSys .... Z-matrix Internals
Initial Hessian          InHess   .... Almoef's Model

Convergence Tolerances:
Energy Change            TolE     ....  1.0000e-06 Eh
Max. Gradient            TolMAXG  ....  1.0000e-04 Eh/bohr
RMS Gradient             TolRMSG  ....  3.0000e-05 Eh/bohr
Max. Displacement        TolMAXD  ....  1.0000e-03 bohr
RMS Displacement         TolRMSD  ....  6.0000e-04 bohr
Strict Convergence                ....  False
------------------------------------------------------------------------------
                        ORCA OPTIMIZATION COORDINATE SETUP
------------------------------------------------------------------------------

The optimization will be done in new redundant internal coordinates
Making redundant internal coordinates   ...  (new redundants) done
Evaluating the initial hessian          ...  (Almloef) done
Evaluating the coordinates              ...  done
Calculating the B-matrix                .... done
Calculating the G-matrix                .... done
Diagonalizing the G-matrix              .... done
The first mode is                       ....    1
The number of degrees of freedom        ....    6

    -----------------------------------------------------------------
                    Redundant Internal Coordinates


    -----------------------------------------------------------------
         Definition                    Initial Value    Approx d2E/dq
    -----------------------------------------------------------------
      1. B(H   1,N   0)                  1.0246         0.410106   
      2. B(H   2,N   0)                  1.0246         0.410115   
      3. B(H   3,N   0)                  1.0246         0.410107   
      4. A(H   1,N   0,H   3)          105.8337         0.298117   
      5. A(H   2,N   0,H   3)          105.8307         0.298118   
      6. A(H   1,N   0,H   2)          105.8511         0.298118   
      7. I(H   1,H   3,H   2,N   0)    -63.0812         0.003452   
    -----------------------------------------------------------------

Number of atoms                         .... 4
Number of degrees of freedom            .... 7

         *************************************************************
         *                GEOMETRY OPTIMIZATION CYCLE   1            *
         *************************************************************
---------------------------------
CARTESIAN COORDINATES (ANGSTROEM)
---------------------------------
  N     -4.117016   -0.484454    0.037327
  H     -3.094243   -0.511111   -0.017787
  H     -4.429190   -1.452662   -0.084822
  H     -4.429091    0.017537   -0.799587

----------------------------
CARTESIAN COORDINATES (A.U.)
----------------------------
  NO LB      ZA    FRAG     MASS         X           Y           Z
   0 N     7.0000    0    14.007   -7.780033   -0.915485    0.070537
   1 H     1.0000    0     1.008   -5.847272   -0.965859   -0.033613
   2 H     1.0000    0     1.008   -8.369956   -2.745134   -0.160290
   3 H     1.0000    0     1.008   -8.369768    0.033140   -1.511001

--------------------------------
INTERNAL COORDINATES (ANGSTROEM)
--------------------------------
 N      0   0   0     0.000000000000     0.00000000     0.00000000
 H      1   0   0     1.024603419310     0.00000000     0.00000000
 H      1   2   0     1.024597612822   105.85107092     0.00000000
 H      1   2   3     1.024602651369   105.83371478   247.95783313

---------------------------
INTERNAL COORDINATES (A.U.)
---------------------------
 N      0   0   0     0.000000000000     0.00000000     0.00000000
 H      1   0   0     1.936219858375     0.00000000     0.00000000
 H      1   2   0     1.936208885704   105.85107092     0.00000000
 H      1   2   3     1.936218407177   105.83371478   247.95783313

---------------------
BASIS SET INFORMATION
---------------------
There are 2 groups of distinct atoms

 Group   1 Type N   : 12s6p1d contracted to 5s4p1d pattern {63111/3111/1}
 Group   2 Type H   : 6s1p contracted to 4s1p pattern {3111/1}

Atom   0N    basis set group =>   1
Atom   1H    basis set group =>   2
Atom   2H    basis set group =>   2
Atom   3H    basis set group =>   2

-------------------------
BASIS SET IN INPUT FORMAT
-------------------------

 # Basis set for element : H 
 NewGTO H 
 S 3 
   1      33.8650000000      0.0254938145
   2       5.0947900000      0.1903731086
   3       1.1587900000      0.8521614860
 S 1 
   1       0.3258400000      1.0000000000
 S 1 
   1       0.1027410000      1.0000000000
 S 1 
   1       0.0360000000      1.0000000000
 P 1 
   1       0.7500000000      1.0000000000
  end;

 # Basis set for element : N 
 NewGTO N 
 S 6 
   1    6293.4800000000      0.0019697881
   2     949.0440000000      0.0149612859
   3     218.7760000000      0.0735005308
   4      63.6916000000      0.2489367658
   5      18.8282000000      0.6024594331
   6       2.7202300000      0.2562017589
 S 3 
   1      30.6331000000      0.1119060795
   2       7.0261400000      0.9216666549
   3       2.1120500000     -0.0025691918
 P 3 
   1      30.6331000000      0.0383119186
   2       7.0261400000      0.2374031155
   3       2.1120500000      0.8175923978
 S 1 
   1       0.6840090000      1.0000000000
 P 1 
   1       0.6840090000      1.0000000000
 S 1 
   1       0.2008780000      1.0000000000
 P 1 
   1       0.2008780000      1.0000000000
 S 1 
   1       0.0639000000      1.0000000000
 P 1 
   1       0.0639000000      1.0000000000
 D 1 
   1       0.9130000000      1.0000000000
  end;



           ************************************************************
           *        Program running with 12 parallel MPI-processes    *
           *              working on a common directory               *
           ************************************************************
------------------------------------------------------------------------------
                           ORCA GTO INTEGRAL CALCULATION
------------------------------------------------------------------------------

                         BASIS SET STATISTICS AND STARTUP INFO

 # of primitive gaussian shells          ...   40
 # of primitive gaussian functions       ...   62
 # of contracted shells                  ...   25
 # of contracted basis functions         ...   43
 Highest angular momentum                ...    2
 Maximum contraction depth               ...    6
 Integral package used                   ... LIBINT
 Integral threshhold            Thresh   ...  2.500e-11
 Primitive cut-off              TCut     ...  2.500e-12


------------------------------ INTEGRAL EVALUATION ----------------------------


 * One electron integrals 
 Pre-screening matrix                    ... done
 Shell pair data                         ... done (   0.000 sec)



           ************************************************************
           *        Program running with 12 parallel MPI-processes    *
           *              working on a common directory               *
           ************************************************************
-------------------------------------------------------------------------------
                                 ORCA SCF
-------------------------------------------------------------------------------

------------
SCF SETTINGS
------------
Hamiltonian:
 Density Functional     Method          .... DFT(GTOs)
 Exchange Functional    Exchange        .... M062X
 Correlation Functional Correlation     .... M062X
 Gradients option       PostSCFGGA      .... off
 Hybrid DFT is turned on
   Fraction HF Exchange ScalHFX         ....  0.540000
   Scaling of DF-GGA-X  ScalDFX         ....  0.460000
   Scaling of DF-GGA-C  ScalDFC         ....  1.000000
   Scaling of DF-LDA-C  ScalLDAC        ....  1.000000
   Perturbative correction              ....  0.000000
   Density functional embedding theory  .... OFF


General Settings:
 Integral files         IntName         .... NH3
 Hartree-Fock type      HFTyp           .... UHF
 Total Charge           Charge          ....    0
 Multiplicity           Mult            ....    1
 Number of Electrons    NEL             ....   10
 Basis Dimension        Dim             ....   43
 Nuclear Repulsion      ENuc            ....     11.8169695746 Eh

Convergence Acceleration:
 DIIS                   CNVDIIS         .... on
   Start iteration      DIISMaxIt       ....    12
   Startup error        DIISStart       ....  0.200000
   # of expansion vecs  DIISMaxEq       ....     5
   Bias factor          DIISBfac        ....   1.050
   Max. coefficient     DIISMaxC        ....  10.000
 Newton-Raphson         CNVNR           .... off
 SOSCF                  CNVSOSCF        .... off
 Level Shifting         CNVShift        .... on
   Level shift para.    LevelShift      ....    0.2500
   Turn off err/grad.   ShiftErr        ....    0.0010
 Zerner damping         CNVZerner       .... off
 Static damping         CNVDamp         .... on
   Fraction old density DampFac         ....    0.7000
   Max. Damping (<1)    DampMax         ....    0.9800
   Min. Damping (>=0)   DampMin         ....    0.0000
   Turn off err/grad.   DampErr         ....    0.1000
 Fernandez-Rico         CNVRico         .... off

SCF Procedure:
 Maximum # iterations   MaxIter         ....   125
 SCF integral mode      SCFMode         .... Direct
   Integral package                     .... LIBINT
 Reset frequency        DirectResetFreq ....    20
 Integral Threshold     Thresh          ....  2.500e-11 Eh
 Primitive CutOff       TCut            ....  2.500e-12 Eh

Convergence Tolerance:
 Convergence Check Mode ConvCheckMode   .... Total+1el-Energy
 Convergence forced     ConvForced      .... 0
 Energy Change          TolE            ....  1.000e-08 Eh
 1-El. energy change                    ....  1.000e-05 Eh
 DIIS Error             TolErr          ....  5.000e-07


Diagonalization of the overlap matrix:
Smallest eigenvalue                        ... 2.419e-03
Time for diagonalization                   ...    0.004 sec
Threshold for overlap eigenvalues          ... 1.000e-08
Number of eigenvalues below threshold      ... 0
Time for construction of square roots      ...    0.020 sec
Total time needed                          ...    0.024 sec

-------------------
DFT GRID GENERATION
-------------------

General Integration Accuracy     IntAcc      ...  5.340
Radial Grid Type                 RadialGrid  ... Gauss-Chebyshev
Angular Grid (max. acc.)         AngularGrid ... Lebedev-590
Angular grid pruning method      GridPruning ... 3 (G Style)
Weight generation scheme         WeightScheme... Becke
Basis function cutoff            BFCut       ...    1.0000e-11
Integration weight cutoff        WCut        ...    1.0000e-14
Grids for H and He will be reduced by one unit

# of grid points (after initial pruning)     ...  49402 (   0.0 sec)
# of grid points (after weights+screening)   ...  48459 (   0.1 sec)
nearest neighbour list constructed           ...    0.0 sec
Grid point re-assignment to atoms done       ...    0.0 sec
Grid point division into batches done        ...    1.2 sec
Reduced shell lists constructed in    1.2 sec

Total number of grid points                  ...    48459
Total number of batches                      ...      758
Average number of points per batch           ...       63
Average number of grid points per atom       ...    12115
Average number of shells per batch           ...    21.48 (85.91%)
Average number of basis functions per batch  ...    36.55 (85.01%)
Average number of large shells per batch     ...    20.02 (93.19%)
Average number of large basis fcns per batch ...    34.11 (93.31%)
Maximum spatial batch extension              ...  12.97, 11.72, 11.72 au
Average spatial batch extension              ...   0.22,  0.20,  0.20 au

Time for grid setup =    1.668 sec

------------------------------
INITIAL GUESS: MODEL POTENTIAL
------------------------------
Loading Hartree-Fock densities                     ... done
Calculating cut-offs                               ... done
Setting up the integral package                    ... done
Initializing the effective Hamiltonian             ... done
Starting the Coulomb interaction                   ... done (   0.0 sec)
Reading the grid                                   ... done
Mapping shells                                     ... done
Starting the XC term evaluation                    ... done (   0.1 sec)
  promolecular density results
     # of electrons  =      9.998530649
     EX              =     -7.397600153
     EC              =     -0.305053130
     EX+EC           =     -7.702653283
Transforming the Hamiltonian                       ... done (   0.0 sec)
Diagonalizing the Hamiltonian                      ... done (   0.0 sec)
Back transforming the eigenvectors                 ... done (   0.0 sec)
Now organizing SCF variables                       ... done
                      ------------------
                      INITIAL GUESS DONE (   2.0 sec)
                      ------------------

--------------------
CPCM SOLVATION MODEL
--------------------
CPCM parameters:
  Epsilon                                         ...      78.3550
  Refrac                                          ...       1.0000
  Rsolv                                           ...       1.3000
  Surface type                                    ...    GEPOL SES
  Epsilon function type                           ...         CPCM
Solvent:                                     ... WATER
SMD-CDS solvent descriptors:
  Soln                                       ...    1.3328
  Soln25                                     ...    1.3323
  Sola                                       ...    0.0000
  Solb                                       ...    0.0000
  Solg                                       ...    0.0000
  Solc                                       ...    0.0000
  Solh                                       ...    0.0000
Radii:
 Radius for N  used is    3.5716 Bohr (=   1.8900 Ang.)
 Radius for H  used is    2.2677 Bohr (=   1.2000 Ang.)
Calculating surface                               ...        done! (  0.0s)
GEPOL surface points                              ...          131
GEPOL Volume                                      ...     206.7265
GEPOL Surface-area                                ...     171.5026
Calculating surface distance matrix               ...        done! (  0.0s)
Performing Cholesky decomposition & store         ...        done! (  0.0s)
Overall time for CPCM initialization              ...                 0.0s
--------------
SCF ITERATIONS
--------------
ITER       Energy         Delta-E        Max-DP      RMS-DP      [F,P]     Damp
               ***  Starting incremental Fock matrix formation  ***
  0    -56.4456544026   0.000000000000 0.03924445  0.00164124  0.3508945 0.7000
  1    -56.4965872220  -0.050932819393 0.02242139  0.00106365  0.1737167 0.7000
                               ***Turning on DIIS***
  2    -56.5175384068  -0.020951184801 0.02876674  0.00168258  0.0630012 0.0000
  3    -56.5472912189  -0.029752812055 0.01691506  0.00072211  0.0936842 0.0000
  4    -56.5553359354  -0.008044716526 0.00204248  0.00017491  0.0152280 0.0000
  5    -56.5556312315  -0.000295296160 0.00087440  0.00007180  0.0025952 0.0000
  6    -56.5556453546  -0.000014123028 0.00071236  0.00005047  0.0007469 0.0000
  7    -56.5556470321  -0.000001677525 0.00008737  0.00000595  0.0001043 0.0000
  8    -56.5556470775  -0.000000045354 0.00001376  0.00000082  0.0000143 0.0000
                 **** Energy Check signals convergence ****

               *****************************************************
               *                     SUCCESS                       *
               *           SCF CONVERGED AFTER   9 CYCLES          *
               *****************************************************


SMD CDS free energy correction energy :                 2.19144     Kcal/mol
Total Energy after SMD CDS correction =               -56.552154801 Eh

----------------
TOTAL SCF ENERGY
----------------

Total Energy       :          -56.55215480 Eh           -1538.86237 eV

Components:
Nuclear Repulsion  :           11.81696957 Eh             321.55609 eV
Electronic Energy  :          -68.36912438 Eh           -1860.41846 eV
One Electron Energy:          -99.41892902 Eh           -2705.32659 eV
Two Electron Energy:           31.04980464 Eh             844.90814 eV
CPCM Dielectric    :           -0.01172711 Eh              -0.31911 eV
SMD CDS (Gcds)     :            0.00349228 Eh               0.09503 eV

Virial components:
Potential Energy   :         -112.82619384 Eh           -3070.15682 eV
Kinetic Energy     :           56.27403904 Eh            1531.29445 eV
Virial Ratio       :            2.00494217


DFT components:
N(Alpha)           :        4.999999763964 electrons
N(Beta)            :        4.999999763964 electrons
N(Total)           :        9.999999527929 electrons
E(XC)              :       -3.851965057075 Eh       
DFET-embed. en.    :        0.000000000000 Eh       
CPCM Solvation Model Properties:
Surface-charge          :           -0.01984199
Charge-correction       :           -0.00012299 Eh              -0.00335 eV
Free-energy (cav+disp)  :            0.00262282 Eh               0.07137 eV
Corrected G(solv)       :          -56.54965497 Eh           -1538.79434 eV

---------------
SCF CONVERGENCE
---------------

  Last Energy change         ...   -1.6777e-09  Tolerance :   1.0000e-08
  Last MAX-Density change    ...    2.9808e-06  Tolerance :   1.0000e-07
  Last RMS-Density change    ...    1.8656e-07  Tolerance :   5.0000e-09
  Last DIIS Error            ...    3.0968e-06  Tolerance :   5.0000e-07

             **** THE GBW FILE WAS UPDATED (NH3.gbw) ****
             **** DENSITY FILE WAS UPDATED (NH3.scfp) ****
             **** ENERGY FILE WAS UPDATED (NH3.en.tmp) ****
----------------------
UHF SPIN CONTAMINATION
----------------------

Warning: in a DFT calculation there is little theoretical justification to 
         calculate <S**2> as in Hartree-Fock theory. We will do it anyways
         but you should keep in mind that the values have only limited relevance

Expectation value of <S**2>     :    -0.000000
Ideal value S*(S+1) for S=0.0   :     0.000000
Deviation                       :    -0.000000

             **** THE GBW FILE WAS UPDATED (NH3.gbw) ****
             **** DENSITY FILE WAS UPDATED (NH3.scfp) ****
----------------
ORBITAL ENERGIES
----------------
                 SPIN UP ORBITALS
  NO   OCC          E(Eh)            E(eV) 
   0   1.0000     -14.720474      -400.5645 
   1   1.0000      -0.945541       -25.7295 
   2   1.0000      -0.519006       -14.1229 
   3   1.0000      -0.518954       -14.1215 
   4   1.0000      -0.342804        -9.3282 
   5   0.0000       0.005035         0.1370 
   6   0.0000       0.042378         1.1532 
   7   0.0000       0.042386         1.1534 
   8   0.0000       0.125627         3.4185 
   9   0.0000       0.155643         4.2353 
  10   0.0000       0.155683         4.2363 
  11   0.0000       0.174601         4.7511 
  12   0.0000       0.241844         6.5809 
  13   0.0000       0.241859         6.5813 
  14   0.0000       0.257805         7.0152 
  15   0.0000       0.529911        14.4196 
  16   0.0000       0.529973        14.4213 
  17   0.0000       0.695922        18.9370 
  18   0.0000       0.819829        22.3087 
  19   0.0000       0.860784        23.4231 
  20   0.0000       0.860811        23.4239 
  21   0.0000       1.065904        29.0047 
  22   0.0000       1.169995        31.8372 
  23   0.0000       1.170055        31.8388 
  24   0.0000       1.584787        43.1242 
  25   0.0000       1.603582        43.6357 
  26   0.0000       1.734191        47.1897 
  27   0.0000       1.734302        47.1928 
  28   0.0000       1.958661        53.2979 
  29   0.0000       1.958739        53.3000 
  30   0.0000       2.346876        63.8618 
  31   0.0000       2.537855        69.0586 
  32   0.0000       2.537971        69.0617 
  33   0.0000       2.669136        72.6309 
  34   0.0000       2.683030        73.0090 
  35   0.0000       2.683101        73.0109 
  36   0.0000       2.884802        78.4994 
  37   0.0000       3.135684        85.3263 
  38   0.0000       3.135799        85.3294 
  39   0.0000       4.163140       113.2848 
  40   0.0000       4.771367       129.8355 
  41   0.0000       4.771570       129.8410 
  42   0.0000      35.699910       971.4439 

                 SPIN DOWN ORBITALS
  NO   OCC          E(Eh)            E(eV) 
   0   1.0000     -14.720474      -400.5645 
   1   1.0000      -0.945541       -25.7295 
   2   1.0000      -0.519006       -14.1229 
   3   1.0000      -0.518954       -14.1215 
   4   1.0000      -0.342804        -9.3282 
   5   0.0000       0.005035         0.1370 
   6   0.0000       0.042378         1.1532 
   7   0.0000       0.042386         1.1534 
   8   0.0000       0.125627         3.4185 
   9   0.0000       0.155643         4.2353 
  10   0.0000       0.155683         4.2363 
  11   0.0000       0.174601         4.7511 
  12   0.0000       0.241844         6.5809 
  13   0.0000       0.241859         6.5813 
  14   0.0000       0.257805         7.0152 
  15   0.0000       0.529911        14.4196 
  16   0.0000       0.529973        14.4213 
  17   0.0000       0.695922        18.9370 
  18   0.0000       0.819829        22.3087 
  19   0.0000       0.860784        23.4231 
  20   0.0000       0.860811        23.4239 
  21   0.0000       1.065904        29.0047 
  22   0.0000       1.169995        31.8372 
  23   0.0000       1.170055        31.8388 
  24   0.0000       1.584787        43.1242 
  25   0.0000       1.603582        43.6357 
  26   0.0000       1.734191        47.1897 
  27   0.0000       1.734302        47.1928 
  28   0.0000       1.958661        53.2979 
  29   0.0000       1.958739        53.3000 
  30   0.0000       2.346876        63.8618 
  31   0.0000       2.537855        69.0586 
  32   0.0000       2.537971        69.0617 
  33   0.0000       2.669136        72.6309 
  34   0.0000       2.683030        73.0090 
  35   0.0000       2.683101        73.0109 
  36   0.0000       2.884802        78.4994 
  37   0.0000       3.135684        85.3263 
  38   0.0000       3.135799        85.3294 
  39   0.0000       4.163140       113.2848 
  40   0.0000       4.771367       129.8355 
  41   0.0000       4.771570       129.8410 
  42   0.0000      35.699910       971.4439 
------------------
MOLECULAR ORBITALS
------------------
                      0         1         2         3         4         5   
                 -14.72047  -0.94554  -0.51901  -0.51895  -0.34280   0.00503
                   1.00000   1.00000   1.00000   1.00000   1.00000   0.00000
                  --------  --------  --------  --------  --------  --------
  0N   1s         0.558829  0.109057  0.000001 -0.000001  0.034101 -0.026109
  0N   2s         0.465872  0.177044  0.000002 -0.000002  0.056993 -0.044721
  0N   1pz       -0.001183  0.034468  0.023597  0.113879 -0.213324 -0.017324
  0N   1px        0.000465 -0.013548  0.190755  0.079904  0.083864  0.006827
  0N   1py       -0.000575  0.016754  0.105708 -0.169612 -0.103716 -0.008433
  0N   3s         0.009634 -0.479145 -0.000006  0.000004 -0.168685  0.159029
  0N   2pz       -0.000408  0.055181  0.034867  0.168280 -0.312213 -0.024569
  0N   2px        0.000160 -0.021687  0.281876  0.118072  0.122738  0.009690
  0N   2py       -0.000198  0.026822  0.156207 -0.250636 -0.151796 -0.011966
  0N   4s        -0.001193 -0.349846 -0.000008 -0.000002 -0.219420  0.086454
  0N   3pz       -0.000630  0.021471  0.024624  0.118801 -0.335415 -0.020571
  0N   3px        0.000248 -0.008437  0.199006  0.083354  0.131904  0.008113
  0N   3py       -0.000306  0.010439  0.110253 -0.176962 -0.163113 -0.010019
  0N   5s        -0.000327 -0.036319 -0.000008 -0.000064  0.042360  1.995083
  0N   4pz        0.000436  0.006253  0.001957  0.009356 -0.108457 -0.278103
  0N   4px       -0.000171 -0.002452  0.015697  0.006533  0.042686  0.109581
  0N   4py        0.000212  0.003035  0.008675 -0.013930 -0.052763 -0.135280
  0N   1dz2      -0.000237  0.003528 -0.003808 -0.021917  0.010346  0.002044
  0N   1dxz       0.000200 -0.002984 -0.011908 -0.006828 -0.008761 -0.001730
  0N   1dyz      -0.000248  0.003689 -0.007015  0.015489  0.010834  0.002139
  0N   1dx2y2     0.000021 -0.000312  0.022611 -0.002263 -0.000912 -0.000182
  0N   1dxy       0.000098 -0.001453 -0.007450  0.000664 -0.004257 -0.000844
  1H   1s         0.000169 -0.090474  0.156793  0.065668  0.044889 -0.004992
  1H   2s        -0.001607 -0.084329  0.209328  0.087704  0.055635  0.001382
  1H   3s         0.001125  0.012784  0.060598  0.025465 -0.010275 -0.312673
  1H   4s        -0.000239 -0.001249  0.009481  0.004000 -0.007482 -0.739725
  1H   1pz       -0.000017  0.000946  0.001489  0.008156 -0.018920 -0.000909
  1H   1px        0.001039  0.018378 -0.017634 -0.007388 -0.003539 -0.018657
  1H   1py       -0.000008  0.000476  0.007522 -0.012349 -0.009213 -0.000434
  2H   1s         0.000169 -0.090473 -0.135279  0.102939  0.044890 -0.004989
  2H   2s        -0.001607 -0.084317 -0.180626  0.137420  0.055656  0.001361
  2H   3s         0.001125  0.012794 -0.052279  0.039838 -0.010243 -0.312413
  2H   4s        -0.000239 -0.001249 -0.008198  0.006234 -0.007461 -0.739212
  2H   1pz       -0.000086 -0.000300  0.000097  0.009471 -0.018185  0.000375
  2H   1px       -0.000338 -0.006627  0.004665  0.012758  0.011101  0.006697
  2H   1py       -0.000979 -0.017168 -0.017842  0.007110  0.001121  0.017438
  3H   1s         0.000169 -0.090473 -0.021518 -0.168622  0.044888 -0.004989
  3H   2s        -0.001607 -0.084313 -0.028698 -0.225127  0.055707  0.001345
  3H   3s         0.001125  0.012808 -0.008296 -0.065211 -0.010220 -0.312292
  3H   4s        -0.000239 -0.001248 -0.001284 -0.010222 -0.007434 -0.738464
  3H   1pz       -0.000823 -0.013684 -0.001636 -0.017981 -0.010347  0.013944
  3H   1px       -0.000338 -0.006636  0.012353 -0.005648  0.011108  0.006684
  3H   1py        0.000537  0.010365  0.009957  0.005755 -0.015003 -0.010481
                      6         7         8         9        10        11   
                   0.04238   0.04239   0.12563   0.15564   0.15568   0.17460
                   0.00000   0.00000   0.00000   0.00000   0.00000   0.00000
                  --------  --------  --------  --------  --------  --------
  0N   1s        -0.000004 -0.000003 -0.005990 -0.000002  0.000017 -0.047845
  0N   2s        -0.000008 -0.000005 -0.008911 -0.000005  0.000028 -0.079157
  0N   1pz       -0.016648 -0.020365  0.097715  0.004865  0.000776 -0.009645
  0N   1px       -0.046625  0.003937 -0.038402  0.006177 -0.006469  0.003810
  0N   1py       -0.003444  0.045083  0.047494 -0.005324 -0.006850 -0.004695
  0N   3s         0.000031  0.000022  0.017246 -0.000005 -0.000066  0.170253
  0N   2pz       -0.030620 -0.037454  0.112306  0.001822  0.000301 -0.067909
  0N   2px       -0.085743  0.007244 -0.044134  0.002375 -0.002490  0.026721
  0N   2py       -0.006334  0.082910  0.054583 -0.002134 -0.002590 -0.033016
  0N   4s        -0.000018 -0.000011  0.109145  0.000292 -0.000399  1.338120
  0N   3pz       -0.000189 -0.000250  0.418456 -0.019163 -0.003184  0.043724
  0N   3px       -0.000651  0.000021 -0.164493 -0.023028  0.024374 -0.017066
  0N   3py       -0.000035  0.000614  0.203420  0.019110  0.025946  0.021263
  0N   5s         0.000566  0.000289  3.209095 -0.000663  0.004175 -7.247461
  0N   4pz       -0.161934 -0.198138 -1.578428  1.629888  0.260767  0.797088
  0N   4px       -0.452951  0.038218  0.622966  2.020849 -2.126687 -0.314091
  0N   4py       -0.033631  0.438163 -0.769832 -1.714852 -2.257300  0.386256
  0N   1dz2       0.000861  0.000939 -0.001366  0.025730  0.005809 -0.007651
  0N   1dxz       0.001698 -0.000968  0.001183  0.012416 -0.000674  0.006478
  0N   1dyz       0.000976 -0.001000 -0.001466 -0.019525 -0.009260 -0.008016
  0N   1dx2y2     0.000360  0.000554  0.000110 -0.013967  0.033666  0.000693
  0N   1dxy       0.001003  0.001610  0.000558 -0.009707 -0.015289  0.003147
  1H   1s        -0.016665  0.001411 -0.021301 -0.053521  0.056290 -0.010071
  1H   2s         0.011838 -0.000994  0.127930  0.075857 -0.079815 -0.194120
  1H   3s        -0.209349  0.017805 -1.112094 -1.791822  1.884534  1.261411
  1H   4s         3.004739 -0.253985 -0.295947 -1.536828  1.616381  1.104639
  1H   1pz       -0.001765 -0.001117 -0.007745  0.014188  0.001274 -0.000946
  1H   1px        0.014957 -0.001271 -0.001621 -0.012146  0.012793  0.007034
  1H   1py       -0.000592  0.002653 -0.003790 -0.013663 -0.018951 -0.000447
  2H   1s         0.007109 -0.015134 -0.021278 -0.022011 -0.074492 -0.010124
  2H   2s        -0.005039  0.010740  0.127926  0.031003  0.105833 -0.194035
  2H   3s         0.089121 -0.190079 -1.111309 -0.737137 -2.495503  1.259905
  2H   4s        -1.282411  2.729531 -0.295005 -0.630449 -2.140206  1.102573
  2H   1pz       -0.000130 -0.002970 -0.007430  0.014482  0.005951 -0.001372
  2H   1px       -0.000370 -0.004741  0.004623  0.020335 -0.004714 -0.001854
  2H   1py        0.006937 -0.012556  0.000607 -0.002944  0.019252 -0.006705
  3H   1s         0.009550  0.013720 -0.021181  0.075521  0.018200 -0.010081
  3H   2s        -0.006756 -0.009730  0.127863 -0.107283 -0.025860 -0.194117
  3H   3s         0.119901  0.172140 -1.107950  2.529150  0.608165  1.261465
  3H   4s        -1.722805 -2.475840 -0.292057  2.167945  0.522184  1.103672
  3H   1pz        0.007266  0.010645 -0.004130 -0.019115 -0.005688 -0.006132
  3H   1px        0.000426  0.004733  0.004611  0.003675 -0.020538 -0.001879
  3H   1py       -0.005236 -0.004614 -0.006234  0.006540 -0.013537  0.003055
                     12        13        14        15        16        17   
                   0.24184   0.24186   0.25780   0.52991   0.52997   0.69592
                   0.00000   0.00000   0.00000   0.00000   0.00000   0.00000
                  --------  --------  --------  --------  --------  --------
  0N   1s        -0.000048  0.000018  0.028788  0.000014 -0.000002 -0.040737
  0N   2s        -0.000077  0.000028  0.046231  0.000026 -0.000004 -0.074554
  0N   1pz        0.087285 -0.030725  0.071637 -0.039586  0.001068  0.008053
  0N   1px        0.133084  0.097268 -0.027889 -0.038234  0.059123 -0.003177
  0N   1py       -0.072291  0.141959  0.034521  0.050484  0.045615  0.003943
  0N   3s         0.000106 -0.000042 -0.072266 -0.000070  0.000023  0.189630
  0N   2pz        0.102377 -0.036023  0.063053 -0.091775  0.002493  0.027483
  0N   2px        0.155998  0.114037 -0.024487 -0.088597  0.137082 -0.010837
  0N   2py       -0.084732  0.166415  0.030307  0.117025  0.105740  0.013431
  0N   4s         0.002180 -0.000744 -1.235434 -0.000359 -0.000028  1.364626
  0N   3pz        0.468524 -0.164983  0.506237 -0.596303  0.016004 -0.900276
  0N   3px        0.714910  0.522357 -0.197527 -0.576640  0.891405  0.353291
  0N   3py       -0.388320  0.762512  0.244469  0.760976  0.687833 -0.437116
  0N   5s         0.020165 -0.005034-10.670040  0.001978 -0.000345 -6.781987
  0N   4pz       -0.432886  0.152507  1.716329  0.938094 -0.025151  1.418512
  0N   4px       -0.652794 -0.477293 -0.674851  0.907154 -1.402509 -0.556721
  0N   4py        0.353428 -0.697305  0.834234 -1.197198 -1.082121  0.688728
  0N   1dz2      -0.001464 -0.000089 -0.014672 -0.005056 -0.000981  0.016434
  0N   1dxz      -0.002214 -0.007764  0.012435 -0.003932 -0.008913 -0.013919
  0N   1dyz      -0.004168 -0.003989 -0.015386  0.008301 -0.004866  0.017214
  0N   1dx2y2    -0.005786 -0.003668  0.001286  0.006827 -0.015620 -0.001453
  0N   1dxy      -0.008561  0.006448  0.006025  0.015482  0.006918 -0.006768
  1H   1s        -0.041020 -0.029897  0.066579  0.062207 -0.096091 -0.080660
  1H   2s        -0.131247 -0.095964 -0.026977  0.983478 -1.519948 -1.773129
  1H   3s        -1.454945 -1.057240  4.135624 -1.694440  2.618671  3.186761
  1H   4s         2.095915  1.532466  0.552332 -0.074782  0.115549  0.252699
  1H   1pz        0.002824  0.000307  0.012214 -0.012989 -0.002845 -0.026772
  1H   1px       -0.014512 -0.010626  0.004426 -0.023794  0.036776  0.039052
  1H   1py       -0.000761  0.003130  0.005908  0.020305  0.015898 -0.013012
  2H   1s        -0.005580  0.050418  0.066598  0.052177  0.101879 -0.080659
  2H   2s        -0.017343  0.161737 -0.026947  0.825039  1.611318 -1.773350
  2H   3s        -0.200784  1.784959  4.136492 -1.421612 -2.775860  3.187023
  2H   4s         0.278483 -2.581963  0.551050 -0.062375 -0.122544  0.252926
  2H   1pz        0.001942 -0.003446  0.011562 -0.012868  0.004762 -0.028631
  2H   1px        0.003192 -0.004363 -0.007869 -0.012975  0.025822  0.001013
  2H   1py        0.000792 -0.017222 -0.002748  0.026733  0.031967 -0.039879
  3H   1s         0.046231 -0.020416  0.066774 -0.114287 -0.005797 -0.080709
  3H   2s         0.148814 -0.065767 -0.026540 -1.807108 -0.091449 -1.774351
  3H   3s         1.632566 -0.721551  4.142809  3.113307  0.157626  3.188567
  3H   4s        -2.377605  1.050130  0.545895  0.136946  0.007038  0.253295
  3H   1pz       -0.014391  0.006493  0.004912 -0.030952 -0.000398 -0.049060
  3H   1px       -0.003157  0.004344 -0.007862 -0.018218  0.022380  0.000960
  3H   1py        0.007856 -0.001394  0.010828  0.025499  0.017721  0.002116
                     18        19        20        21        22        23   
                   0.81983   0.86078   0.86081   1.06590   1.17000   1.17005
                   0.00000   0.00000   0.00000   0.00000   0.00000   0.00000
                  --------  --------  --------  --------  --------  --------
  0N   1s         0.018628  0.000008 -0.000007 -0.103432 -0.000017 -0.000033
  0N   2s         0.037043  0.000016 -0.000013 -0.213821 -0.000038 -0.000071
  0N   1pz        0.225554  0.058930 -0.128387  0.019796 -0.003478 -0.009375
  0N   1px       -0.088769  0.247399 -0.042666 -0.007770 -0.017254 -0.004323
  0N   1py        0.109736  0.079000  0.229382  0.009615 -0.006815  0.015751
  0N   3s        -0.349269 -0.000132  0.000138  1.792580  0.000329  0.000589
  0N   2pz        0.707618  0.181736 -0.395980  0.291201 -0.009879 -0.026666
  0N   2px       -0.278502  0.763028 -0.131634 -0.114393 -0.049169 -0.012329
  0N   2py        0.344277  0.243644  0.707494  0.141509 -0.019448  0.044859
  0N   4s         1.436542  0.000463 -0.000640 -4.533133 -0.000791 -0.001299
  0N   3pz       -1.522027 -0.488464  1.064527  0.174819 -0.073784 -0.200287
  0N   3px        0.599022 -2.051538  0.353875 -0.068498 -0.368003 -0.093120
  0N   3py       -0.740451 -0.655210 -1.901987  0.084705 -0.145546  0.336868
  0N   5s         2.148779  0.000900 -0.001045  3.547102  0.000315  0.000433
  0N   4pz        0.134190  0.260245 -0.567446 -0.241263  0.029046  0.078852
  0N   4px       -0.053349  1.094121 -0.188918  0.094743  0.144806  0.036634
  0N   4py        0.065746  0.349276  1.014500 -0.117158  0.057294 -0.132546
  0N   1dz2      -0.016979  0.010412 -0.028025 -0.008525 -0.042296 -0.087686
  0N   1dxz       0.014345  0.004872 -0.013587  0.007251 -0.187164  0.049693
  0N   1dyz      -0.017736 -0.006751  0.024960 -0.008949 -0.128870  0.037214
  0N   1dx2y2     0.001507 -0.045033 -0.007385  0.000776 -0.061014 -0.059835
  0N   1dxy       0.006994  0.007797  0.024872  0.003564 -0.032455 -0.207594
  1H   1s         0.044870 -0.035370  0.006070 -0.017907 -0.020660 -0.005241
  1H   2s        -0.118509  0.277310 -0.047756  0.938791  0.315984  0.079989
  1H   3s        -1.233948  0.878405 -0.151062 -0.429452 -0.163337 -0.041111
  1H   4s         0.021878 -1.638071  0.282820 -0.475304 -0.064969 -0.016590
  1H   1pz        0.008020  0.011511 -0.014951  0.084164 -0.477543  0.104961
  1H   1px        0.118692 -0.157070  0.027040 -0.239307 -0.054527 -0.013719
  1H   1py        0.003863  0.011132  0.024693  0.041054 -0.096001 -0.487990
  2H   1s         0.044857  0.022992  0.027580 -0.017916  0.014896 -0.015287
  2H   2s        -0.118465 -0.180199 -0.216034  0.938854 -0.226879  0.233850
  2H   3s        -1.233777 -0.571225 -0.684808 -0.429474  0.117462 -0.120712
  2H   4s         0.021449  1.063819  1.277342 -0.475282  0.046607 -0.048190
  2H   1pz       -0.000118 -0.004754 -0.027597  0.097887  0.465651 -0.136030
  2H   1px       -0.043753 -0.011085 -0.050463  0.035538  0.119985  0.462267
  2H   1py       -0.110664 -0.104287 -0.110334  0.234919 -0.117378 -0.111349
  3H   1s         0.044819  0.012442 -0.033709 -0.017923  0.005800  0.020550
  3H   2s        -0.118436 -0.097120  0.264101  0.939181 -0.088640 -0.313205
  3H   3s        -1.233538 -0.308646  0.837444 -0.429675  0.045950  0.162114
  3H   4s         0.020606  0.574234 -1.560105 -0.475266  0.018179  0.064480
  3H   1pz       -0.087044 -0.045255  0.126348  0.245121  0.090474  0.243920
  3H   1px       -0.043740  0.006600  0.051237  0.035736  0.325112 -0.350000
  3H   1py        0.068228  0.041582 -0.064146 -0.068176  0.367928  0.242086
                     24        25        26        27        28        29   
                   1.58479   1.60358   1.73419   1.73430   1.95866   1.95874
                   0.00000   0.00000   0.00000   0.00000   0.00000   0.00000
                  --------  --------  --------  --------  --------  --------
  0N   1s        -0.000002  0.037292 -0.000002 -0.000001 -0.000004  0.000000
  0N   2s        -0.000003  0.085469 -0.000003 -0.000001 -0.000011  0.000000
  0N   1pz       -0.000011 -0.043123 -0.002484 -0.009170 -0.075130 -0.007875
  0N   1px        0.000015  0.016959 -0.015916 -0.005555 -0.064006 -0.118143
  0N   1py        0.000007 -0.020966 -0.007768  0.014322  0.102773 -0.079332
  0N   3s        -0.000004 -0.819501 -0.000003 -0.000048  0.000101  0.000007
  0N   2pz        0.000006  0.015489  0.009166  0.033848 -0.246181 -0.025774
  0N   2px       -0.000142 -0.006140  0.059027  0.020638 -0.209726 -0.387020
  0N   2py       -0.000133  0.007576  0.028866 -0.053025  0.336671 -0.259932
  0N   4s         0.000052  2.241902  0.000144  0.000460 -0.000046 -0.000023
  0N   3pz       -0.000022 -1.080923 -0.174857 -0.646371  0.068697  0.007175
  0N   3px        0.000836  0.424946 -1.123786 -0.393371  0.058472  0.107894
  0N   3py        0.000666 -0.525647 -0.549218  1.010844 -0.093838  0.072524
  0N   5s         0.000147 -0.385358  0.000016 -0.000212 -0.000338 -0.000057
  0N   4pz       -0.000026  0.170905  0.078224  0.289300 -0.233702 -0.024465
  0N   4px       -0.000291 -0.067244  0.502997  0.176138 -0.199199 -0.367598
  0N   4py       -0.000258  0.083218  0.245833 -0.452463  0.319745 -0.246893
  0N   1dz2       0.000011 -0.202490  0.001859  0.039539 -0.325789 -0.017516
  0N   1dxz       0.000046  0.171362 -0.059008  0.045361 -0.134612 -0.093931
  0N   1dyz       0.000033 -0.211917 -0.050986 -0.053194  0.244403 -0.078396
  0N   1dx2y2     0.000043  0.017842 -0.128683 -0.022647  0.035247  0.402000
  0N   1dxy      -0.000032  0.083365  0.023678 -0.127506  0.099071 -0.134872
  1H   1s        -0.000040  0.023983 -0.139828 -0.049073  0.243831  0.449815
  1H   2s        -0.000500 -0.943405  0.949212  0.332253 -0.397198 -0.732630
  1H   3s         0.000135  0.120365 -0.585458 -0.205093  0.609901  1.125042
  1H   4s         0.000196  0.041375 -0.232169 -0.081250 -0.075620 -0.139472
  1H   1pz        0.270032  0.486183  0.469969  0.458145  0.184433  0.147766
  1H   1px       -0.000101 -0.037369  0.129934  0.045583 -0.285812 -0.527429
  1H   1py       -0.556394  0.236565  0.460840 -0.442300 -0.115639  0.182997
  2H   1s        -0.000037  0.024016  0.112311 -0.096632  0.267703 -0.436020
  2H   2s         0.000584 -0.943522 -0.762625  0.655558 -0.436052  0.710211
  2H   3s        -0.000316  0.120428  0.470306 -0.404387  0.669558 -1.090552
  2H   4s        -0.000221  0.041386  0.186516 -0.160352 -0.083052  0.135189
  2H   1pz       -0.295308  0.475855 -0.234591  0.601584  0.217482 -0.162415
  2H   1px       -0.505190 -0.242540  0.608171  0.159206  0.191006  0.016505
  2H   1py        0.199965  0.091788 -0.087928 -0.194775  0.250438 -0.537964
  3H   1s        -0.000045  0.023962  0.027464  0.145693 -0.511352 -0.013774
  3H   2s        -0.000029 -0.943270 -0.186739 -0.988554  0.832942  0.022402
  3H   3s        -0.000065  0.120167  0.115090  0.609748 -1.278941 -0.034406
  3H   4s         0.000021  0.041303  0.045666  0.241644  0.158697  0.004287
  3H   1pz        0.025324  0.365992 -0.031031 -0.304150 -0.619421 -0.008090
  3H   1px        0.504383 -0.242445  0.575286  0.255108 -0.090433  0.169070
  3H   1py        0.355712  0.317664  0.268857 -0.544648  0.162447  0.125282
                     30        31        32        33        34        35   
                   2.34688   2.53786   2.53797   2.66914   2.68303   2.68310
                   0.00000   0.00000   0.00000   0.00000   0.00000   0.00000
                  --------  --------  --------  --------  --------  --------
  0N   1s         0.032435  0.000001  0.000003 -0.002373  0.000015  0.000002
  0N   2s         0.060021 -0.000003 -0.000002  0.010616 -0.000101 -0.000010
  0N   1pz        0.141078  0.005559  0.024363 -0.043890  0.016142  0.001723
  0N   1px       -0.055474  0.041182  0.016292  0.017387  0.013243  0.024790
  0N   1py        0.068587  0.021940 -0.036751 -0.021505 -0.021389  0.016628
  0N   3s        -0.191472  0.000060  0.000077 -0.160555  0.001457  0.000151
  0N   2pz        0.069196 -0.130026 -0.571402  0.164791  0.100343  0.010677
  0N   2px       -0.026892 -0.968917 -0.383836 -0.063802  0.086951  0.159766
  0N   2py        0.033349 -0.516132  0.864659  0.078836 -0.140088  0.106804
  0N   4s        -0.553098  0.000117  0.000350 -1.187988  0.009714  0.001025
  0N   3pz        0.406963 -0.089676 -0.393894  0.709464  0.366197  0.038933
  0N   3px       -0.159979 -0.668436 -0.264532 -0.274831  0.318251  0.585253
  0N   3py        0.197838 -0.356090  0.596111  0.339840 -0.512173  0.391439
  0N   5s        -3.062609 -0.000647 -0.001580  2.324845 -0.018858 -0.002010
  0N   4pz        0.466458  0.077932  0.342245 -0.496798 -0.158868 -0.016902
  0N   4px       -0.183298  0.580155  0.229662  0.193458 -0.139953 -0.256332
  0N   4py        0.226699  0.309125 -0.517470 -0.239226  0.225063 -0.171284
  0N   1dz2      -0.280032  0.028703  0.245108 -0.446849 -0.510223 -0.093287
  0N   1dxz       0.237002 -0.074860  0.152783  0.373706 -0.024219 -0.911126
  0N   1dyz      -0.293042 -0.079669 -0.243888 -0.463298  0.081536 -0.633165
  0N   1dx2y2     0.024741 -0.474248 -0.052984  0.036196 -0.327076 -0.110293
  0N   1dxy       0.115381  0.122627 -0.327314  0.174525 -0.938277  0.057669
  1H   1s         0.621817 -0.952860 -0.377320 -0.683121  0.093505  0.162985
  1H   2s        -0.773620  2.660161  1.053344  1.580819 -0.398383 -0.714319
  1H   3s         1.645851 -1.521448 -0.602167 -1.294487  0.173608  0.302793
  1H   4s         0.067679  0.059770  0.023832 -0.048990  0.069325  0.127693
  1H   1pz       -0.317713  0.138647  0.038502 -0.360874 -0.102883  0.356166
  1H   1px       -0.336519 -1.094469 -0.433662 -0.153817  0.129025  0.236352
  1H   1py       -0.154676  0.053150  0.054836 -0.171059  0.536540 -0.143641
  2H   1s         0.621694  0.803716 -0.636146 -0.683211  0.102769 -0.156420
  2H   2s        -0.773356 -2.243664  1.775861  1.581402 -0.438745  0.688222
  2H   3s         1.645717  1.283540 -1.015432 -1.294722  0.190768 -0.290620
  2H   4s         0.067746 -0.050331  0.040096 -0.049166  0.076437 -0.123493
  2H   1pz       -0.286804 -0.181407  0.122246 -0.341734 -0.116683 -0.352730
  2H   1px        0.278944 -0.266425  0.174675  0.236232 -0.538025 -0.063408
  2H   1py        0.279528 -0.874023  0.706570  0.104334  0.047585  0.290413
  3H   1s         0.621321  0.149570  1.014492 -0.685199 -0.179161 -0.004717
  3H   2s        -0.772477 -0.417377 -2.831382  1.590145  0.797945  0.021912
  3H   3s         1.645291  0.238921  1.620078 -1.298543 -0.332645 -0.008776
  3H   4s         0.067922 -0.009382 -0.063794 -0.050822 -0.144604 -0.004081
  3H   1pz        0.043139 -0.149873 -1.007498 -0.128875  0.029590 -0.023588
  3H   1px        0.278932 -0.074374 -0.309827  0.241964  0.239293 -0.483032
  3H   1py       -0.398427  0.056338  0.519731 -0.334521 -0.311812 -0.354093
                     36        37        38        39        40        41   
                   2.88480   3.13568   3.13580   4.16314   4.77137   4.77157
                   0.00000   0.00000   0.00000   0.00000   0.00000   0.00000
                  --------  --------  --------  --------  --------  --------
  0N   1s        -0.070498 -0.000002  0.000010  0.033088  0.000007  0.000001
  0N   2s        -0.168657 -0.000004  0.000022  0.067853  0.000010  0.000003
  0N   1pz       -0.221684  0.053315 -0.306771 -1.099062 -0.665848 -0.068400
  0N   1px        0.087089  0.503625 -0.230342  0.432140 -0.569164 -1.045310
  0N   1py       -0.107716  0.297548  0.444843 -0.534432  0.909044 -0.704576
  0N   3s         0.934444  0.000018 -0.000130 -0.333121 -0.000030 -0.000019
  0N   2pz       -0.485757  0.002167 -0.012513  1.646506  1.323319  0.135953
  0N   2px        0.190920  0.020652 -0.009439 -0.647395  1.131181  2.077615
  0N   2py       -0.236133  0.012221  0.018208  0.800652 -1.806676  1.400393
  0N   4s         4.311136  0.000107 -0.000383 -1.904117 -0.000350 -0.000051
  0N   3pz       -1.156516  0.105117 -0.604885 -0.192372 -0.086222 -0.008848
  0N   3px        0.454319  0.993096 -0.454139  0.075716 -0.073751 -0.135304
  0N   3py       -0.561913  0.586756  0.877059 -0.093629  0.117792 -0.091205
  0N   5s        -3.136316 -0.000174  0.000463  1.581276  0.000335  0.000060
  0N   4pz        0.601302 -0.041265  0.237578 -0.053052  0.059532  0.006107
  0N   4px       -0.236224 -0.390110  0.178444  0.020778  0.050946  0.093474
  0N   4py        0.292170 -0.230481 -0.344580 -0.025707 -0.081367  0.063003
  0N   1dz2      -0.396959 -0.090545  0.821077  0.105243 -0.690795 -0.031633
  0N   1dxz       0.336185 -0.150123  0.359572 -0.089023 -0.297769 -0.150251
  0N   1dyz      -0.415702 -0.078114 -0.671250  0.110046  0.537414 -0.134959
  0N   1dx2y2     0.035077  1.135182 -0.069105 -0.009342  0.100790  0.899174
  0N   1dxy       0.163694 -0.352826 -0.437427 -0.043446  0.278959 -0.303650
  1H   1s         0.323403 -0.514872  0.235427  0.065162 -0.267190 -0.490811
  1H   2s        -2.639413 -0.568138  0.260078  0.954948 -0.432192 -0.793955
  1H   3s         1.202331 -0.271900  0.124163 -0.528777  0.122043  0.224267
  1H   4s         0.211985  0.552591 -0.252757 -0.112523 -0.103586 -0.190098
  1H   1pz        0.007359 -0.033643  0.006166 -0.104519 -0.100734 -0.053913
  1H   1px        1.136556  0.756953 -0.346340 -0.509849  0.510951  0.938522
  1H   1py        0.003728 -0.007279  0.022485 -0.050892  0.091062 -0.102278
  2H   1s         0.323343  0.461366  0.328150  0.065171 -0.291338  0.476896
  2H   2s        -2.639408  0.508988  0.362331  0.954931 -0.471292  0.771432
  2H   3s         1.202298  0.243735  0.173166 -0.528776  0.133095 -0.217924
  2H   4s         0.212039 -0.495127 -0.352260 -0.112541 -0.112957  0.184689
  2H   1pz       -0.068960  0.077038  0.043551 -0.067629 -0.144318  0.104678
  2H   1px       -0.382863  0.221206  0.137995  0.224810 -0.259543  0.200366
  2H   1py       -1.067940  0.637295  0.461188  0.467257 -0.490167  0.891177
  3H   1s         0.323139  0.053553 -0.563553  0.065145  0.558657  0.013953
  3H   2s        -2.639354  0.058918 -0.621807  0.954773  0.903905  0.022584
  3H   3s         1.202148  0.028372 -0.297764 -0.528747 -0.255424 -0.006392
  3H   4s         0.212245 -0.057431  0.604901 -0.112619  0.216455  0.005393
  3H   1pz       -0.882468  0.064359 -0.669840  0.325572  0.900640  0.016611
  3H   1px       -0.382734  0.040250 -0.257462  0.224693  0.309038 -0.109372
  3H   1py        0.605424 -0.028319  0.415805 -0.341723 -0.496008 -0.094975
                     42   
                  35.69991
                   0.00000
                  --------
  0N   1s         2.149094
  0N   2s        -2.284709
  0N   1pz        0.023723
  0N   1px       -0.009321
  0N   1py        0.011529
  0N   3s         0.437102
  0N   2pz       -0.108717
  0N   2px        0.042719
  0N   2py       -0.052840
  0N   4s         0.060675
  0N   3pz       -0.063156
  0N   3px        0.024812
  0N   3py       -0.030689
  0N   5s        -0.147182
  0N   4pz        0.047205
  0N   4px       -0.018541
  0N   4py        0.022934
  0N   1dz2      -0.024164
  0N   1dxz       0.020456
  0N   1dyz      -0.025292
  0N   1dx2y2     0.002136
  0N   1dxy       0.009965
  1H   1s         0.006177
  1H   2s        -0.208635
  1H   3s         0.128280
  1H   4s        -0.009769
  1H   1pz        0.004292
  1H   1px        0.125421
  1H   1py        0.002105
  2H   1s         0.006174
  2H   2s        -0.208642
  2H   3s         0.128284
  2H   4s        -0.009765
  2H   1pz       -0.004221
  2H   1px       -0.044076
  2H   1py       -0.117447
  3H   1s         0.006169
  3H   2s        -0.208641
  3H   3s         0.128286
  3H   4s        -0.009747
  3H   1pz       -0.094973
  3H   1px       -0.044060
  3H   1py        0.069223

                      0         1         2         3         4         5   
                 -14.72047  -0.94554  -0.51901  -0.51895  -0.34280   0.00503
                   1.00000   1.00000   1.00000   1.00000   1.00000   0.00000
                  --------  --------  --------  --------  --------  --------
  0N   1s         0.558829  0.109057  0.000001 -0.000001  0.034101 -0.026109
  0N   2s         0.465872  0.177044  0.000002 -0.000002  0.056993 -0.044721
  0N   1pz       -0.001183  0.034468  0.023597  0.113879 -0.213324 -0.017324
  0N   1px        0.000465 -0.013548  0.190755  0.079904  0.083864  0.006827
  0N   1py       -0.000575  0.016754  0.105708 -0.169612 -0.103716 -0.008433
  0N   3s         0.009634 -0.479145 -0.000006  0.000004 -0.168685  0.159029
  0N   2pz       -0.000408  0.055181  0.034867  0.168280 -0.312213 -0.024569
  0N   2px        0.000160 -0.021687  0.281876  0.118072  0.122738  0.009690
  0N   2py       -0.000198  0.026822  0.156207 -0.250636 -0.151796 -0.011966
  0N   4s        -0.001193 -0.349846 -0.000008 -0.000002 -0.219420  0.086454
  0N   3pz       -0.000630  0.021471  0.024624  0.118801 -0.335415 -0.020571
  0N   3px        0.000248 -0.008437  0.199006  0.083354  0.131904  0.008113
  0N   3py       -0.000306  0.010439  0.110253 -0.176962 -0.163113 -0.010019
  0N   5s        -0.000327 -0.036319 -0.000008 -0.000064  0.042360  1.995083
  0N   4pz        0.000436  0.006253  0.001957  0.009356 -0.108457 -0.278103
  0N   4px       -0.000171 -0.002452  0.015697  0.006533  0.042686  0.109581
  0N   4py        0.000212  0.003035  0.008675 -0.013930 -0.052763 -0.135280
  0N   1dz2      -0.000237  0.003528 -0.003808 -0.021917  0.010346  0.002044
  0N   1dxz       0.000200 -0.002984 -0.011908 -0.006828 -0.008761 -0.001730
  0N   1dyz      -0.000248  0.003689 -0.007015  0.015489  0.010834  0.002139
  0N   1dx2y2     0.000021 -0.000312  0.022611 -0.002263 -0.000912 -0.000182
  0N   1dxy       0.000098 -0.001453 -0.007450  0.000664 -0.004257 -0.000844
  1H   1s         0.000169 -0.090474  0.156793  0.065668  0.044889 -0.004992
  1H   2s        -0.001607 -0.084329  0.209328  0.087704  0.055635  0.001382
  1H   3s         0.001125  0.012784  0.060598  0.025465 -0.010275 -0.312673
  1H   4s        -0.000239 -0.001249  0.009481  0.004000 -0.007482 -0.739725
  1H   1pz       -0.000017  0.000946  0.001489  0.008156 -0.018920 -0.000909
  1H   1px        0.001039  0.018378 -0.017634 -0.007388 -0.003539 -0.018657
  1H   1py       -0.000008  0.000476  0.007522 -0.012349 -0.009213 -0.000434
  2H   1s         0.000169 -0.090473 -0.135279  0.102939  0.044890 -0.004989
  2H   2s        -0.001607 -0.084317 -0.180626  0.137420  0.055656  0.001361
  2H   3s         0.001125  0.012794 -0.052279  0.039838 -0.010243 -0.312413
  2H   4s        -0.000239 -0.001249 -0.008198  0.006234 -0.007461 -0.739212
  2H   1pz       -0.000086 -0.000300  0.000097  0.009471 -0.018185  0.000375
  2H   1px       -0.000338 -0.006627  0.004665  0.012758  0.011101  0.006697
  2H   1py       -0.000979 -0.017168 -0.017842  0.007110  0.001121  0.017438
  3H   1s         0.000169 -0.090473 -0.021518 -0.168622  0.044888 -0.004989
  3H   2s        -0.001607 -0.084313 -0.028698 -0.225127  0.055707  0.001345
  3H   3s         0.001125  0.012808 -0.008296 -0.065211 -0.010220 -0.312292
  3H   4s        -0.000239 -0.001248 -0.001284 -0.010222 -0.007434 -0.738464
  3H   1pz       -0.000823 -0.013684 -0.001636 -0.017981 -0.010347  0.013944
  3H   1px       -0.000338 -0.006636  0.012353 -0.005648  0.011108  0.006684
  3H   1py        0.000537  0.010365  0.009957  0.005755 -0.015003 -0.010481
                      6         7         8         9        10        11   
                   0.04238   0.04239   0.12563   0.15564   0.15568   0.17460
                   0.00000   0.00000   0.00000   0.00000   0.00000   0.00000
                  --------  --------  --------  --------  --------  --------
  0N   1s        -0.000004 -0.000003 -0.005990 -0.000002  0.000017 -0.047845
  0N   2s        -0.000008 -0.000005 -0.008911 -0.000005  0.000028 -0.079157
  0N   1pz       -0.016648 -0.020365  0.097715  0.004865  0.000776 -0.009645
  0N   1px       -0.046625  0.003937 -0.038402  0.006177 -0.006469  0.003810
  0N   1py       -0.003444  0.045083  0.047494 -0.005324 -0.006850 -0.004695
  0N   3s         0.000031  0.000022  0.017246 -0.000005 -0.000066  0.170253
  0N   2pz       -0.030620 -0.037454  0.112306  0.001822  0.000301 -0.067909
  0N   2px       -0.085743  0.007244 -0.044134  0.002375 -0.002490  0.026721
  0N   2py       -0.006334  0.082910  0.054583 -0.002134 -0.002590 -0.033016
  0N   4s        -0.000018 -0.000011  0.109145  0.000292 -0.000399  1.338120
  0N   3pz       -0.000189 -0.000250  0.418456 -0.019163 -0.003184  0.043724
  0N   3px       -0.000651  0.000021 -0.164493 -0.023028  0.024374 -0.017066
  0N   3py       -0.000035  0.000614  0.203420  0.019110  0.025946  0.021263
  0N   5s         0.000566  0.000289  3.209095 -0.000663  0.004175 -7.247461
  0N   4pz       -0.161934 -0.198138 -1.578428  1.629888  0.260767  0.797088
  0N   4px       -0.452951  0.038218  0.622966  2.020849 -2.126687 -0.314091
  0N   4py       -0.033631  0.438163 -0.769832 -1.714852 -2.257300  0.386256
  0N   1dz2       0.000861  0.000939 -0.001366  0.025730  0.005809 -0.007651
  0N   1dxz       0.001698 -0.000968  0.001183  0.012416 -0.000674  0.006478
  0N   1dyz       0.000976 -0.001000 -0.001466 -0.019525 -0.009260 -0.008016
  0N   1dx2y2     0.000360  0.000554  0.000110 -0.013967  0.033666  0.000693
  0N   1dxy       0.001003  0.001610  0.000558 -0.009707 -0.015289  0.003147
  1H   1s        -0.016665  0.001411 -0.021301 -0.053521  0.056290 -0.010071
  1H   2s         0.011838 -0.000994  0.127930  0.075857 -0.079815 -0.194120
  1H   3s        -0.209349  0.017805 -1.112094 -1.791822  1.884534  1.261411
  1H   4s         3.004739 -0.253985 -0.295947 -1.536828  1.616381  1.104639
  1H   1pz       -0.001765 -0.001117 -0.007745  0.014188  0.001274 -0.000946
  1H   1px        0.014957 -0.001271 -0.001621 -0.012146  0.012793  0.007034
  1H   1py       -0.000592  0.002653 -0.003790 -0.013663 -0.018951 -0.000447
  2H   1s         0.007109 -0.015134 -0.021278 -0.022011 -0.074492 -0.010124
  2H   2s        -0.005039  0.010740  0.127926  0.031003  0.105833 -0.194035
  2H   3s         0.089121 -0.190079 -1.111309 -0.737137 -2.495503  1.259905
  2H   4s        -1.282411  2.729531 -0.295005 -0.630449 -2.140206  1.102573
  2H   1pz       -0.000130 -0.002970 -0.007430  0.014482  0.005951 -0.001372
  2H   1px       -0.000370 -0.004741  0.004623  0.020335 -0.004714 -0.001854
  2H   1py        0.006937 -0.012556  0.000607 -0.002944  0.019252 -0.006705
  3H   1s         0.009550  0.013720 -0.021181  0.075521  0.018200 -0.010081
  3H   2s        -0.006756 -0.009730  0.127863 -0.107283 -0.025860 -0.194117
  3H   3s         0.119901  0.172140 -1.107950  2.529150  0.608165  1.261465
  3H   4s        -1.722805 -2.475840 -0.292057  2.167945  0.522184  1.103672
  3H   1pz        0.007266  0.010645 -0.004130 -0.019115 -0.005688 -0.006132
  3H   1px        0.000426  0.004733  0.004611  0.003675 -0.020538 -0.001879
  3H   1py       -0.005236 -0.004614 -0.006234  0.006540 -0.013537  0.003055
                     12        13        14        15        16        17   
                   0.24184   0.24186   0.25780   0.52991   0.52997   0.69592
                   0.00000   0.00000   0.00000   0.00000   0.00000   0.00000
                  --------  --------  --------  --------  --------  --------
  0N   1s        -0.000048  0.000018  0.028788  0.000014 -0.000002 -0.040737
  0N   2s        -0.000077  0.000028  0.046231  0.000026 -0.000004 -0.074554
  0N   1pz        0.087285 -0.030725  0.071637 -0.039586  0.001068  0.008053
  0N   1px        0.133084  0.097268 -0.027889 -0.038234  0.059123 -0.003177
  0N   1py       -0.072291  0.141959  0.034521  0.050484  0.045615  0.003943
  0N   3s         0.000106 -0.000042 -0.072266 -0.000070  0.000023  0.189630
  0N   2pz        0.102377 -0.036023  0.063053 -0.091775  0.002493  0.027483
  0N   2px        0.155998  0.114037 -0.024487 -0.088597  0.137082 -0.010837
  0N   2py       -0.084732  0.166415  0.030307  0.117025  0.105740  0.013431
  0N   4s         0.002180 -0.000744 -1.235434 -0.000359 -0.000028  1.364626
  0N   3pz        0.468524 -0.164983  0.506237 -0.596303  0.016004 -0.900276
  0N   3px        0.714910  0.522357 -0.197527 -0.576640  0.891405  0.353291
  0N   3py       -0.388320  0.762512  0.244469  0.760976  0.687833 -0.437116
  0N   5s         0.020165 -0.005034-10.670040  0.001978 -0.000345 -6.781987
  0N   4pz       -0.432886  0.152507  1.716329  0.938094 -0.025151  1.418512
  0N   4px       -0.652794 -0.477293 -0.674851  0.907154 -1.402509 -0.556721
  0N   4py        0.353428 -0.697305  0.834234 -1.197198 -1.082121  0.688728
  0N   1dz2      -0.001464 -0.000089 -0.014672 -0.005056 -0.000981  0.016434
  0N   1dxz      -0.002214 -0.007764  0.012435 -0.003932 -0.008913 -0.013919
  0N   1dyz      -0.004168 -0.003989 -0.015386  0.008301 -0.004866  0.017214
  0N   1dx2y2    -0.005786 -0.003668  0.001286  0.006827 -0.015620 -0.001453
  0N   1dxy      -0.008561  0.006448  0.006025  0.015482  0.006918 -0.006768
  1H   1s        -0.041020 -0.029897  0.066579  0.062207 -0.096091 -0.080660
  1H   2s        -0.131247 -0.095964 -0.026977  0.983478 -1.519948 -1.773129
  1H   3s        -1.454945 -1.057240  4.135624 -1.694440  2.618671  3.186761
  1H   4s         2.095915  1.532466  0.552332 -0.074782  0.115549  0.252699
  1H   1pz        0.002824  0.000307  0.012214 -0.012989 -0.002845 -0.026772
  1H   1px       -0.014512 -0.010626  0.004426 -0.023794  0.036776  0.039052
  1H   1py       -0.000761  0.003130  0.005908  0.020305  0.015898 -0.013012
  2H   1s        -0.005580  0.050418  0.066598  0.052177  0.101879 -0.080659
  2H   2s        -0.017343  0.161737 -0.026947  0.825039  1.611318 -1.773350
  2H   3s        -0.200784  1.784959  4.136492 -1.421612 -2.775860  3.187023
  2H   4s         0.278483 -2.581963  0.551050 -0.062375 -0.122544  0.252926
  2H   1pz        0.001942 -0.003446  0.011562 -0.012868  0.004762 -0.028631
  2H   1px        0.003192 -0.004363 -0.007869 -0.012975  0.025822  0.001013
  2H   1py        0.000792 -0.017222 -0.002748  0.026733  0.031967 -0.039879
  3H   1s         0.046231 -0.020416  0.066774 -0.114287 -0.005797 -0.080709
  3H   2s         0.148814 -0.065767 -0.026540 -1.807108 -0.091449 -1.774351
  3H   3s         1.632566 -0.721551  4.142809  3.113307  0.157626  3.188567
  3H   4s        -2.377605  1.050130  0.545895  0.136946  0.007038  0.253295
  3H   1pz       -0.014391  0.006493  0.004912 -0.030952 -0.000398 -0.049060
  3H   1px       -0.003157  0.004344 -0.007862 -0.018218  0.022380  0.000960
  3H   1py        0.007856 -0.001394  0.010828  0.025499  0.017721  0.002116
                     18        19        20        21        22        23   
                   0.81983   0.86078   0.86081   1.06590   1.17000   1.17005
                   0.00000   0.00000   0.00000   0.00000   0.00000   0.00000
                  --------  --------  --------  --------  --------  --------
  0N   1s         0.018628  0.000008 -0.000007 -0.103432 -0.000017 -0.000033
  0N   2s         0.037043  0.000016 -0.000013 -0.213821 -0.000038 -0.000071
  0N   1pz        0.225554  0.058930 -0.128387  0.019796 -0.003478 -0.009375
  0N   1px       -0.088769  0.247399 -0.042666 -0.007770 -0.017254 -0.004323
  0N   1py        0.109736  0.079000  0.229382  0.009615 -0.006815  0.015751
  0N   3s        -0.349269 -0.000132  0.000138  1.792580  0.000329  0.000589
  0N   2pz        0.707618  0.181736 -0.395980  0.291201 -0.009879 -0.026666
  0N   2px       -0.278502  0.763028 -0.131634 -0.114393 -0.049169 -0.012329
  0N   2py        0.344277  0.243644  0.707494  0.141509 -0.019448  0.044859
  0N   4s         1.436542  0.000463 -0.000640 -4.533133 -0.000791 -0.001299
  0N   3pz       -1.522027 -0.488464  1.064527  0.174819 -0.073784 -0.200287
  0N   3px        0.599022 -2.051538  0.353875 -0.068498 -0.368003 -0.093120
  0N   3py       -0.740451 -0.655210 -1.901987  0.084705 -0.145546  0.336868
  0N   5s         2.148779  0.000900 -0.001045  3.547102  0.000315  0.000433
  0N   4pz        0.134190  0.260245 -0.567446 -0.241263  0.029046  0.078852
  0N   4px       -0.053349  1.094121 -0.188918  0.094743  0.144806  0.036634
  0N   4py        0.065746  0.349276  1.014500 -0.117158  0.057294 -0.132546
  0N   1dz2      -0.016979  0.010412 -0.028025 -0.008525 -0.042296 -0.087686
  0N   1dxz       0.014345  0.004872 -0.013587  0.007251 -0.187164  0.049693
  0N   1dyz      -0.017736 -0.006751  0.024960 -0.008949 -0.128870  0.037214
  0N   1dx2y2     0.001507 -0.045033 -0.007385  0.000776 -0.061014 -0.059835
  0N   1dxy       0.006994  0.007797  0.024872  0.003564 -0.032455 -0.207594
  1H   1s         0.044870 -0.035370  0.006070 -0.017907 -0.020660 -0.005241
  1H   2s        -0.118509  0.277310 -0.047756  0.938791  0.315984  0.079989
  1H   3s        -1.233948  0.878405 -0.151062 -0.429452 -0.163337 -0.041111
  1H   4s         0.021878 -1.638071  0.282820 -0.475304 -0.064969 -0.016590
  1H   1pz        0.008020  0.011511 -0.014951  0.084164 -0.477543  0.104961
  1H   1px        0.118692 -0.157070  0.027040 -0.239307 -0.054527 -0.013719
  1H   1py        0.003863  0.011132  0.024693  0.041054 -0.096001 -0.487990
  2H   1s         0.044857  0.022992  0.027580 -0.017916  0.014896 -0.015287
  2H   2s        -0.118465 -0.180199 -0.216034  0.938854 -0.226879  0.233850
  2H   3s        -1.233777 -0.571225 -0.684808 -0.429474  0.117462 -0.120712
  2H   4s         0.021449  1.063819  1.277342 -0.475282  0.046607 -0.048190
  2H   1pz       -0.000118 -0.004754 -0.027597  0.097887  0.465651 -0.136030
  2H   1px       -0.043753 -0.011085 -0.050463  0.035538  0.119985  0.462267
  2H   1py       -0.110664 -0.104287 -0.110334  0.234919 -0.117378 -0.111349
  3H   1s         0.044819  0.012442 -0.033709 -0.017923  0.005800  0.020550
  3H   2s        -0.118436 -0.097120  0.264101  0.939181 -0.088640 -0.313205
  3H   3s        -1.233538 -0.308646  0.837444 -0.429675  0.045950  0.162114
  3H   4s         0.020606  0.574234 -1.560105 -0.475266  0.018179  0.064480
  3H   1pz       -0.087044 -0.045255  0.126348  0.245121  0.090474  0.243920
  3H   1px       -0.043740  0.006600  0.051237  0.035736  0.325112 -0.350000
  3H   1py        0.068228  0.041582 -0.064146 -0.068176  0.367928  0.242086
                     24        25        26        27        28        29   
                   1.58479   1.60358   1.73419   1.73430   1.95866   1.95874
                   0.00000   0.00000   0.00000   0.00000   0.00000   0.00000
                  --------  --------  --------  --------  --------  --------
  0N   1s        -0.000002  0.037292 -0.000002 -0.000001 -0.000004  0.000000
  0N   2s        -0.000003  0.085469 -0.000003 -0.000001 -0.000011  0.000000
  0N   1pz       -0.000011 -0.043123 -0.002484 -0.009170 -0.075130 -0.007875
  0N   1px        0.000015  0.016959 -0.015916 -0.005555 -0.064006 -0.118143
  0N   1py        0.000007 -0.020966 -0.007768  0.014322  0.102773 -0.079332
  0N   3s        -0.000004 -0.819501 -0.000003 -0.000048  0.000101  0.000007
  0N   2pz        0.000006  0.015489  0.009166  0.033848 -0.246181 -0.025774
  0N   2px       -0.000142 -0.006140  0.059027  0.020638 -0.209726 -0.387020
  0N   2py       -0.000133  0.007576  0.028866 -0.053025  0.336671 -0.259932
  0N   4s         0.000052  2.241902  0.000144  0.000460 -0.000046 -0.000023
  0N   3pz       -0.000022 -1.080923 -0.174857 -0.646371  0.068697  0.007175
  0N   3px        0.000836  0.424946 -1.123786 -0.393371  0.058472  0.107894
  0N   3py        0.000666 -0.525647 -0.549218  1.010844 -0.093838  0.072524
  0N   5s         0.000147 -0.385358  0.000016 -0.000212 -0.000338 -0.000057
  0N   4pz       -0.000026  0.170905  0.078224  0.289300 -0.233702 -0.024465
  0N   4px       -0.000291 -0.067244  0.502997  0.176138 -0.199199 -0.367598
  0N   4py       -0.000258  0.083218  0.245833 -0.452463  0.319745 -0.246893
  0N   1dz2       0.000011 -0.202490  0.001859  0.039539 -0.325789 -0.017516
  0N   1dxz       0.000046  0.171362 -0.059008  0.045361 -0.134612 -0.093931
  0N   1dyz       0.000033 -0.211917 -0.050986 -0.053194  0.244403 -0.078396
  0N   1dx2y2     0.000043  0.017842 -0.128683 -0.022647  0.035247  0.402000
  0N   1dxy      -0.000032  0.083365  0.023678 -0.127506  0.099071 -0.134872
  1H   1s        -0.000040  0.023983 -0.139828 -0.049073  0.243831  0.449815
  1H   2s        -0.000500 -0.943405  0.949212  0.332253 -0.397198 -0.732630
  1H   3s         0.000135  0.120365 -0.585458 -0.205093  0.609901  1.125042
  1H   4s         0.000196  0.041375 -0.232169 -0.081250 -0.075620 -0.139472
  1H   1pz        0.270032  0.486183  0.469969  0.458145  0.184433  0.147766
  1H   1px       -0.000101 -0.037369  0.129934  0.045583 -0.285812 -0.527429
  1H   1py       -0.556394  0.236565  0.460840 -0.442300 -0.115639  0.182997
  2H   1s        -0.000037  0.024016  0.112311 -0.096632  0.267703 -0.436020
  2H   2s         0.000584 -0.943522 -0.762625  0.655558 -0.436052  0.710211
  2H   3s        -0.000316  0.120428  0.470306 -0.404387  0.669558 -1.090552
  2H   4s        -0.000221  0.041386  0.186516 -0.160352 -0.083052  0.135189
  2H   1pz       -0.295308  0.475855 -0.234591  0.601584  0.217482 -0.162415
  2H   1px       -0.505190 -0.242540  0.608171  0.159206  0.191006  0.016505
  2H   1py        0.199965  0.091788 -0.087928 -0.194775  0.250438 -0.537964
  3H   1s        -0.000045  0.023962  0.027464  0.145693 -0.511352 -0.013774
  3H   2s        -0.000029 -0.943270 -0.186739 -0.988554  0.832942  0.022402
  3H   3s        -0.000065  0.120167  0.115090  0.609748 -1.278941 -0.034406
  3H   4s         0.000021  0.041303  0.045666  0.241644  0.158697  0.004287
  3H   1pz        0.025324  0.365992 -0.031031 -0.304150 -0.619421 -0.008090
  3H   1px        0.504383 -0.242445  0.575286  0.255108 -0.090433  0.169070
  3H   1py        0.355712  0.317664  0.268857 -0.544648  0.162447  0.125282
                     30        31        32        33        34        35   
                   2.34688   2.53786   2.53797   2.66914   2.68303   2.68310
                   0.00000   0.00000   0.00000   0.00000   0.00000   0.00000
                  --------  --------  --------  --------  --------  --------
  0N   1s         0.032435  0.000001  0.000003 -0.002373  0.000015  0.000002
  0N   2s         0.060021 -0.000003 -0.000002  0.010616 -0.000101 -0.000010
  0N   1pz        0.141078  0.005559  0.024363 -0.043890  0.016142  0.001723
  0N   1px       -0.055474  0.041182  0.016292  0.017387  0.013243  0.024790
  0N   1py        0.068587  0.021940 -0.036751 -0.021505 -0.021389  0.016628
  0N   3s        -0.191472  0.000060  0.000077 -0.160555  0.001457  0.000151
  0N   2pz        0.069196 -0.130026 -0.571402  0.164791  0.100343  0.010677
  0N   2px       -0.026892 -0.968917 -0.383836 -0.063802  0.086951  0.159766
  0N   2py        0.033349 -0.516132  0.864659  0.078836 -0.140088  0.106804
  0N   4s        -0.553098  0.000117  0.000350 -1.187988  0.009714  0.001025
  0N   3pz        0.406963 -0.089676 -0.393894  0.709464  0.366197  0.038933
  0N   3px       -0.159979 -0.668436 -0.264532 -0.274831  0.318251  0.585253
  0N   3py        0.197838 -0.356090  0.596111  0.339840 -0.512173  0.391439
  0N   5s        -3.062609 -0.000647 -0.001580  2.324845 -0.018858 -0.002010
  0N   4pz        0.466458  0.077932  0.342245 -0.496798 -0.158868 -0.016902
  0N   4px       -0.183298  0.580155  0.229662  0.193458 -0.139953 -0.256332
  0N   4py        0.226699  0.309125 -0.517470 -0.239226  0.225063 -0.171284
  0N   1dz2      -0.280032  0.028703  0.245108 -0.446849 -0.510223 -0.093287
  0N   1dxz       0.237002 -0.074860  0.152783  0.373706 -0.024219 -0.911126
  0N   1dyz      -0.293042 -0.079669 -0.243888 -0.463298  0.081536 -0.633165
  0N   1dx2y2     0.024741 -0.474248 -0.052984  0.036196 -0.327076 -0.110293
  0N   1dxy       0.115381  0.122627 -0.327314  0.174525 -0.938277  0.057669
  1H   1s         0.621817 -0.952860 -0.377320 -0.683121  0.093505  0.162985
  1H   2s        -0.773620  2.660161  1.053344  1.580819 -0.398383 -0.714319
  1H   3s         1.645851 -1.521448 -0.602167 -1.294487  0.173608  0.302793
  1H   4s         0.067679  0.059770  0.023832 -0.048990  0.069325  0.127693
  1H   1pz       -0.317713  0.138647  0.038502 -0.360874 -0.102883  0.356166
  1H   1px       -0.336519 -1.094469 -0.433662 -0.153817  0.129025  0.236352
  1H   1py       -0.154676  0.053150  0.054836 -0.171059  0.536540 -0.143641
  2H   1s         0.621694  0.803716 -0.636146 -0.683211  0.102769 -0.156420
  2H   2s        -0.773356 -2.243664  1.775861  1.581402 -0.438745  0.688222
  2H   3s         1.645717  1.283540 -1.015432 -1.294722  0.190768 -0.290620
  2H   4s         0.067746 -0.050331  0.040096 -0.049166  0.076437 -0.123493
  2H   1pz       -0.286804 -0.181407  0.122246 -0.341734 -0.116683 -0.352730
  2H   1px        0.278944 -0.266425  0.174675  0.236232 -0.538025 -0.063408
  2H   1py        0.279528 -0.874023  0.706570  0.104334  0.047585  0.290413
  3H   1s         0.621321  0.149570  1.014492 -0.685199 -0.179161 -0.004717
  3H   2s        -0.772477 -0.417377 -2.831382  1.590145  0.797945  0.021912
  3H   3s         1.645291  0.238921  1.620078 -1.298543 -0.332645 -0.008776
  3H   4s         0.067922 -0.009382 -0.063794 -0.050822 -0.144604 -0.004081
  3H   1pz        0.043139 -0.149873 -1.007498 -0.128875  0.029590 -0.023588
  3H   1px        0.278932 -0.074374 -0.309827  0.241964  0.239293 -0.483032
  3H   1py       -0.398427  0.056338  0.519731 -0.334521 -0.311812 -0.354093
                     36        37        38        39        40        41   
                   2.88480   3.13568   3.13580   4.16314   4.77137   4.77157
                   0.00000   0.00000   0.00000   0.00000   0.00000   0.00000
                  --------  --------  --------  --------  --------  --------
  0N   1s        -0.070498 -0.000002  0.000010  0.033088  0.000007  0.000001
[...]
      Donor (L) NBO              Acceptor (NL) NBO      kcal/mol   a.u.    a.u.
 ===============================================================================

 within unit  1
    2. LP ( 1) N  1            26. RY ( 1) H  2            0.49    2.10   0.041
    2. LP ( 1) N  1            32. RY ( 1) H  3            0.49    2.10   0.041
    2. LP ( 1) N  1            38. RY ( 1) H  4            0.49    2.10   0.041


 NATURAL BOND ORBITALS (Summary):

                                                     Principal Delocalizations
           NBO                 Occupancy    Energy   (geminal,vicinal,remote)
 ===============================================================================
 Molecular unit  1  (H3N)
 ------ Lewis --------------------------------------
    1. CR ( 1) N  1             1.00000   -14.71720
    2. LP ( 1) N  1             0.99910    -0.37732  26(v),32(v),38(v)
    3. BD ( 1) N  1- H  2       0.99989    -0.65231
    4. BD ( 1) N  1- H  3       0.99989    -0.65232
    5. BD ( 1) N  1- H  4       0.99989    -0.65231
 ------ non-Lewis ----------------------------------
    6. BD*( 1) N  1- H  2       0.00001     0.53193
    7. BD*( 1) N  1- H  3       0.00001     0.53197
    8. BD*( 1) N  1- H  4       0.00001     0.53196
    9. RY ( 1) N  1             0.00000     3.10116
   10. RY ( 2) N  1             0.00000    23.50450
   11. RY ( 3) N  1             0.00000     0.73248
   12. RY ( 4) N  1             0.00000     2.03062
   13. RY ( 5) N  1             0.00000     2.04744
   14. RY ( 6) N  1             0.00000     1.33357
   15. RY ( 7) N  1             0.00000     2.65325
   16. RY ( 8) N  1             0.00000     0.72959
   17. RY ( 9) N  1             0.00000     1.37426
   18. RY (10) N  1             0.00000     2.69304
   19. RY (11) N  1             0.00000     1.57953
   20. RY (12) N  1             0.00000     3.20039
   21. RY (13) N  1             0.00000     2.33877
   22. RY (14) N  1             0.00000     2.29209
   23. RY (15) N  1             0.00000     2.39952
   24. RY (16) N  1             0.00000     2.64669
   25. RY (17) N  1             0.00000     2.46757
   26. RY ( 1) H  2             0.00030     1.72318
   27. RY ( 2) H  2             0.00008     1.72203
   28. RY ( 3) H  2             0.00003     2.18059
   29. RY ( 4) H  2             0.00000     2.32780
   30. RY ( 5) H  2             0.00000     1.71817
   31. RY ( 6) H  2             0.00000     2.07519
   32. RY ( 1) H  3             0.00030     1.72274
   33. RY ( 2) H  3             0.00008     1.72201
   34. RY ( 3) H  3             0.00003     2.18067
   35. RY ( 4) H  3             0.00000     1.71224
   36. RY ( 5) H  3             0.00000     2.32790
   37. RY ( 6) H  3             0.00000     2.08162
   38. RY ( 1) H  4             0.00030     1.72244
   39. RY ( 2) H  4             0.00008     1.72205
   40. RY ( 3) H  4             0.00003     2.18051
   41. RY ( 4) H  4             0.00000     2.32824
   42. RY ( 5) H  4             0.00000     1.71379
   43. RY ( 6) H  4             0.00000     2.07980
          -------------------------------
                 Total Lewis    4.99877  ( 99.9755%)
           Valence non-Lewis    0.00002  (  0.0004%)
           Rydberg non-Lewis    0.00121  (  0.0241%)
          -------------------------------
               Total unit  1    5.00000  (100.0000%)
              Charge unit  1    0.00000

 $CHOOSE
  ALPHA
   LONE 1 1 END
   BOND S 1 2 S 1 3 S 1 4 END
  END
  BETA
   LONE 1 1 END
   BOND S 1 2 S 1 3 S 1 4 END
  END
 $END

 NBO analysis completed in 0.08 CPU seconds (1 wall second)
 Maximum scratch memory used by NBO was 323800 words (2.47 MB)
Stopping NBO...Storing NBOs: NH3.nbo

                                *** returned from  NBO  program ***

-------
TIMINGS
-------

Total SCF time: 0 days 0 hours 0 min 10 sec 

Total time                  ....      10.637 sec
Sum of individual times     ....       9.845 sec  ( 92.6%)

Fock matrix formation       ....       7.405 sec  ( 69.6%)
  XC integration            ....       1.783 sec  ( 24.1% of F)
    Basis function eval.    ....       0.081 sec  (  4.6% of XC)
    Density eval.           ....       0.398 sec  ( 22.3% of XC)
    XC-Functional eval.     ....       0.281 sec  ( 15.8% of XC)
    XC-Potential eval.      ....       0.254 sec  ( 14.3% of XC)
Diagonalization             ....       0.121 sec  (  1.1%)
Density matrix formation    ....       0.029 sec  (  0.3%)
Population analysis         ....       0.545 sec  (  5.1%)
Initial guess               ....       0.004 sec  (  0.0%)
Orbital Transformation      ....       0.000 sec  (  0.0%)
Orbital Orthonormalization  ....       0.001 sec  (  0.0%)
DIIS solution               ....       0.049 sec  (  0.5%)
Grid generation             ....       1.693 sec  ( 15.9%)


-------------------------------------------------------------------------------
                          DFT DISPERSION CORRECTION                            
                                                                               
                              DFTD3 V3.1  Rev 1                                
                              USING zero damping                               
-------------------------------------------------------------------------------
The M062X functional is recognized
Active option DFTDOPT                   ...         3   

molecular C6(AA) [au] = 84.665804 


            DFT-D V3
 parameters
 s6 scaling factor         :     1.0000 
 rs6 scaling factor        :     1.6190 
 s8 scaling factor         :     0.0000 
 rs8 scaling factor        :     1.0000 
 Damping factor alpha6     :    14.0000 
 Damping factor alpha8     :    16.0000 
 ad hoc parameters k1-k3   :    16.0000     1.3333    -4.0000 

 Edisp/kcal,au: -0.000023010191  -0.000000036669 
 E6   /kcal   :  -0.000023010 
 E8   /kcal   :  -0.000000000 
 % E8         :   0.000000000 

-------------------------   ----------------
Dispersion correction           -0.000000037
-------------------------   ----------------


-------------------------   --------------------
FINAL SINGLE POINT ENERGY       -56.552316786849
-------------------------   --------------------

                                *** OPTIMIZATION RUN DONE ***

                            ***************************************
                            *     ORCA property calculations      *
                            ***************************************

                                    ---------------------
                                    Active property flags
                                    ---------------------
   (+) Dipole Moment


------------------------------------------------------------------------------
                       ORCA ELECTRIC PROPERTIES CALCULATION
------------------------------------------------------------------------------

Dipole Moment Calculation                       ... on
Quadrupole Moment Calculation                   ... off
Polarizability Calculation                      ... off
GBWName                                         ... NH3.gbw
Electron density file                           ... NH3.scfp
The origin for moment calculation is the CENTER OF MASS  = (-7.727504, -0.980485 -0.063307)

-------------
DIPOLE MOMENT
-------------
                                X             Y             Z
Electronic contribution:     -0.00139       0.00173       0.00373
Nuclear contribution   :      0.29035      -0.35902      -0.73854
                        -----------------------------------------
Total Dipole Moment    :      0.28897      -0.35729      -0.73481
                        -----------------------------------------
Magnitude (a.u.)       :      0.86667
Magnitude (Debye)      :      2.20289



--------------------
Rotational spectrum 
--------------------
 
Rotational constants in cm-1:     9.950851     9.950213     6.282113 
Rotational constants in MHz : 298318.993440 298299.874367 188333.019754 

 Dipole components along the rotational axes: 
x,y,z [a.u.] :     0.000060    -0.000075    -0.866666 
x,y,z [Debye]:     0.000152    -0.000191    -2.202889 

 

----------------------------------------------------------------------------
                           ORCA NUMERICAL FREQUENCIES
                              (12-process run)
----------------------------------------------------------------------------

Number of atoms                ... 4
Central differences            ... used
Number of displacements        ... 24
Numerical increment            ... 5.000e-03 bohr
IR-spectrum generation         ... on
Raman-spectrum generation      ... off
Surface Crossing Hessian       ... off

The output will be reduced. Please look at the following files:
SCF program output             ... >NH3.lastscf
Integral program output        ... >NH3.lastint
Gradient program output        ... >NH3.lastgrad
Dipole moment program output   ... >NH3.lastmom
AutoCI program output          ... >NH3.lastautoci


         <<< Energy and Gradient at the input geometry >>>

        <<< Energy and Gradient at displaced geometries >>>
             <<<Displacing   3/coordinate 1 (+)>>>
             <<<Displacing   2/coordinate 3 (+)>>>
             <<<Displacing   2/coordinate 1 (+)>>>
             <<<Displacing   1/coordinate 3 (+)>>>
             <<<Displacing   3/coordinate 2 (+)>>>
             <<<Displacing   4/coordinate 2 (+)>>>
             <<<Displacing   4/coordinate 1 (+)>>>
             <<<Displacing   3/coordinate 3 (+)>>>
             <<<Displacing   1/coordinate 1 (+)>>>
             <<<Displacing   2/coordinate 2 (+)>>>
             <<<Displacing   1/coordinate 2 (+)>>>
             <<<Displacing   4/coordinate 3 (+)>>>
             <<<Displacing   2/coordinate 3 (-)>>>
             <<<Displacing   2/coordinate 1 (-)>>>
             <<<Displacing   4/coordinate 2 (-)>>>
             <<<Displacing   3/coordinate 1 (-)>>>
             <<<Displacing   1/coordinate 3 (-)>>>
             <<<Displacing   2/coordinate 2 (-)>>>
             <<<Displacing   3/coordinate 2 (-)>>>
             <<<Displacing   4/coordinate 3 (-)>>>
             <<<Displacing   4/coordinate 1 (-)>>>
             <<<Displacing   1/coordinate 2 (-)>>>
             <<<Displacing   3/coordinate 3 (-)>>>
             <<<Displacing   1/coordinate 1 (-)>>>

-----------------------
VIBRATIONAL FREQUENCIES
-----------------------

Scaling factor for frequencies =  1.000000000 (already applied!)

   0:         0.00 cm**-1
   1:         0.00 cm**-1
   2:         0.00 cm**-1
   3:         0.00 cm**-1
   4:         0.00 cm**-1
   5:         0.00 cm**-1
   6:      1031.35 cm**-1
   7:      1609.72 cm**-1
   8:      1618.95 cm**-1
   9:      3509.42 cm**-1
  10:      3632.95 cm**-1
  11:      3633.13 cm**-1


------------
NORMAL MODES
------------

These modes are the cartesian displacements weighted by the diagonal matrix
M(i,i)=1/sqrt(m[i]) where m[i] is the mass of the displaced atom
Thus, these vectors are normalized but *not* orthogonal

                  0          1          2          3          4          5    
      0       0.000000   0.000000   0.000000   0.000000   0.000000   0.000000
      1       0.000000   0.000000   0.000000   0.000000   0.000000   0.000000
      2       0.000000   0.000000   0.000000   0.000000   0.000000   0.000000
      3       0.000000   0.000000   0.000000   0.000000   0.000000   0.000000
      4       0.000000   0.000000   0.000000   0.000000   0.000000   0.000000
      5       0.000000   0.000000   0.000000   0.000000   0.000000   0.000000
      6       0.000000   0.000000   0.000000   0.000000   0.000000   0.000000
      7       0.000000   0.000000   0.000000   0.000000   0.000000   0.000000
      8       0.000000   0.000000   0.000000   0.000000   0.000000   0.000000
      9       0.000000   0.000000   0.000000   0.000000   0.000000   0.000000
     10       0.000000   0.000000   0.000000   0.000000   0.000000   0.000000
     11       0.000000   0.000000   0.000000   0.000000   0.000000   0.000000
                  6          7          8          9         10         11    
      0       0.038074  -0.060482   0.017747  -0.012979   0.017507   0.073353
      1      -0.047002  -0.026011  -0.055239   0.016250   0.072621  -0.005373
      2      -0.097609  -0.010959   0.033018   0.033242  -0.028478   0.031397
      3       0.024835  -0.051500   0.015849   0.575908  -0.188943  -0.791709
      4       0.245980   0.073266   0.694495   0.004894   0.018033   0.008151
      5       0.516514  -0.336512  -0.246525   0.010242  -0.001802   0.024656
      6      -0.274289   0.322498  -0.555255  -0.197922  -0.252048  -0.060643
      7       0.035220  -0.186399   0.164176  -0.542256  -0.733130  -0.224222
      8       0.501299   0.426862  -0.092456  -0.028896  -0.076924  -0.014209
      9      -0.279614   0.569445   0.292797  -0.197627   0.197717  -0.166944
     10       0.371933   0.474575  -0.091075   0.311553  -0.294034   0.290738
     11       0.338543   0.061935  -0.119827  -0.443275   0.474454  -0.446736


-----------
IR SPECTRUM  
-----------

 Mode    freq (cm**-1)   T**2         TX         TY         TZ
-------------------------------------------------------------------
   6:      1031.35  303.688859  ( -5.770128   7.117093  14.823679)
   7:      1609.72   43.393144  (  5.958903   2.594540   1.073771)
   8:      1618.95   43.948469  ( -1.784075   5.480803  -3.275110)
   9:      3509.42    1.076594  (  0.360961  -0.412769  -0.880865)
  10:      3632.95   30.941380  ( -1.211143  -5.045081   2.005411)
  11:      3633.13   30.999095  ( -5.100705   0.376309  -2.200067)

The first frequency considered to be a vibration is 6
The total number of vibrations considered is 6


--------------------------
THERMOCHEMISTRY AT 298.15K
--------------------------

Temperature         ... 298.15 K
Pressure            ... 1.00 atm
Total Mass          ... 17.03 AMU

Throughout the following assumptions are being made:
  (1) The electronic state is orbitally nondegenerate
  (2) There are no thermally accessible electronically excited states
  (3) Hindered rotations indicated by low frequency modes are not
      treated as such but are treated as vibrations and this may
      cause some error
  (4) All equations used are the standard statistical mechanics
      equations for an ideal gas
  (5) All vibrations are strictly harmonic

freq.    1031.35  E(vib)   ...       0.02 
freq.    1609.72  E(vib)   ...       0.00 
freq.    1618.95  E(vib)   ...       0.00 
freq.    3509.42  E(vib)   ...       0.00 
freq.    3632.95  E(vib)   ...       0.00 
freq.    3633.13  E(vib)   ...       0.00 

------------
INNER ENERGY
------------

The inner energy is: U= E(el) + E(ZPE) + E(vib) + E(rot) + E(trans)
    E(el)   - is the total energy from the electronic structure calculation
              = E(kin-el) + E(nuc-el) + E(el-el) + E(nuc-nuc)
    E(ZPE)  - the the zero temperature vibrational energy from the frequency calculation
    E(vib)  - the the finite temperature correction to E(ZPE) due to population
              of excited vibrational states
    E(rot)  - is the rotational thermal energy
    E(trans)- is the translational thermal energy

Summary of contributions to the inner energy U:
Electronic energy                ...    -56.55231679 Eh
Zero point energy                ...      0.03425345 Eh      21.49 kcal/mol
Thermal vibrational correction   ...      0.00003872 Eh       0.02 kcal/mol
Thermal rotational correction    ...      0.00141627 Eh       0.89 kcal/mol
Thermal translational correction ...      0.00141627 Eh       0.89 kcal/mol
-----------------------------------------------------------------------
Total thermal energy                    -56.51519208 Eh


Summary of corrections to the electronic energy:
(perhaps to be used in another calculation)
Total thermal correction                  0.00287127 Eh       1.80 kcal/mol
Non-thermal (ZPE) correction              0.03425345 Eh      21.49 kcal/mol
-----------------------------------------------------------------------
Total correction                          0.03712471 Eh      23.30 kcal/mol


--------
ENTHALPY
--------

The enthalpy is H = U + kB*T
                kB is Boltzmann's constant
Total free energy                 ...    -56.51519208 Eh 
Thermal Enthalpy correction       ...      0.00094421 Eh       0.59 kcal/mol
-----------------------------------------------------------------------
Total Enthalpy                    ...    -56.51424787 Eh


Note: Only C1 symmetry has been detected, increase convergence thresholds 
      if your molecule has a higher symmetry. Symmetry factor of 1.0 is   
      used for the rotational entropy correction. 
 

Note: Rotational entropy computed according to Herzberg 
Infrared and Raman Spectra, Chapter V,1, Van Nostrand Reinhold, 1945 
Point Group:  C1, Symmetry Number:   1  
Rotational constants in cm-1:     9.950851     9.950213     6.282113 

Vibrational entropy computed according to the QRRHO of S. Grimme
Chem.Eur.J. 2012 18 9955


-------
ENTROPY
-------

The entropy contributions are T*S = T*(S(el)+S(vib)+S(rot)+S(trans))
     S(el)   - electronic entropy
     S(vib)  - vibrational entropy
     S(rot)  - rotational entropy
     S(trans)- translational entropy
The entropies will be listed as mutliplied by the temperature to get
units of energy

Electronic entropy                ...      0.00000000 Eh      0.00 kcal/mol
Vibrational entropy               ...      0.00004606 Eh      0.03 kcal/mol
Rotational entropy                ...      0.00647387 Eh      4.06 kcal/mol
Translational entropy             ...      0.01636425 Eh     10.27 kcal/mol
-----------------------------------------------------------------------
Final entropy term                ...      0.02288418 Eh     14.36 kcal/mol

In case the symmetry of your molecule has not been determined correctly
or in case you have a reason to use a different symmetry number we print 
out the resulting rotational entropy values for sn=1,12 :
 --------------------------------------------------------
|  sn= 1 | S(rot)=       0.00647387 Eh      4.06 kcal/mol|
|  sn= 2 | S(rot)=       0.00581942 Eh      3.65 kcal/mol|
|  sn= 3 | S(rot)=       0.00543658 Eh      3.41 kcal/mol|
|  sn= 4 | S(rot)=       0.00516496 Eh      3.24 kcal/mol|
|  sn= 5 | S(rot)=       0.00495427 Eh      3.11 kcal/mol|
|  sn= 6 | S(rot)=       0.00478213 Eh      3.00 kcal/mol|
|  sn= 7 | S(rot)=       0.00463658 Eh      2.91 kcal/mol|
|  sn= 8 | S(rot)=       0.00451050 Eh      2.83 kcal/mol|
|  sn= 9 | S(rot)=       0.00439929 Eh      2.76 kcal/mol|
|  sn=10 | S(rot)=       0.00429981 Eh      2.70 kcal/mol|
|  sn=11 | S(rot)=       0.00420982 Eh      2.64 kcal/mol|
|  sn=12 | S(rot)=       0.00412767 Eh      2.59 kcal/mol|
 --------------------------------------------------------


-------------------
GIBBS FREE ENERGY
-------------------

The Gibbs free energy is G = H - T*S

Total enthalpy                    ...    -56.51424787 Eh 
Total entropy correction          ...     -0.02288418 Eh    -14.36 kcal/mol
-----------------------------------------------------------------------
Final Gibbs free energy         ...    -56.53713205 Eh

For completeness - the Gibbs free energy minus the electronic energy
G-E(el)                           ...      0.01518474 Eh      9.53 kcal/mol


Total Time for Numerical Frequencies  :        74.325 sec

Timings for individual modules:

Sum of individual times         ...       95.652 sec (=   1.594 min)
GTO integral calculation        ...       10.128 sec (=   0.169 min)  10.6 %
SCF iterations                  ...       74.249 sec (=   1.237 min)  77.6 %
SCF Gradient evaluation         ...       11.194 sec (=   0.187 min)  11.7 %
Geometry relaxation             ...        0.080 sec (=   0.001 min)   0.1 %
                             ****ORCA TERMINATED NORMALLY****
TOTAL RUN TIME: 0 days 0 hours 2 minutes 41 seconds 201 msec
