
                                 *****************
                                 * O   R   C   A *
                                 *****************

           --- An Ab Initio, DFT and Semiempirical electronic structure package ---

                  #######################################################
                  #                        -***-                        #
                  #          Department of theory and spectroscopy      #
                  #               Directorship: Frank Neese             #
                  #        Max Planck Institute fuer Kohlenforschung    #
                  #                Kaiser Wilhelm Platz 1               #
                  #                 D-45470 Muelheim/Ruhr               #
                  #                      Germany                        #
                  #                                                     #
                  #                  All rights reserved                #
                  #                        -***-                        #
                  #######################################################


                         Program Version 4.2.1 -  RELEASE  -


 With contributions from (in alphabetic order):
   Daniel Aravena         : Magnetic Suceptibility
   Michael Atanasov       : Ab Initio Ligand Field Theory (pilot matlab implementation)
   Alexander A. Auer      : GIAO ZORA, VPT2
   Ute Becker             : Parallelization
   Giovanni Bistoni       : ED, misc. LED, open-shell LED, HFLD
   Martin Brehm           : Molecular dynamics
   Dmytro Bykov           : SCF Hessian
   Vijay G. Chilkuri      : MRCI spin determinant printing, contributions to CSF-ICE
   Dipayan Datta          : RHF DLPNO-CCSD density
   Achintya Kumar Dutta   : EOM-CC, STEOM-CC
   Dmitry Ganyushin       : Spin-Orbit,Spin-Spin,Magnetic field MRCI
   Miquel Garcia          : C-PCM Hessian, Gaussian charge scheme
   Yang Guo               : DLPNO-NEVPT2, CIM, IAO-localization
   Andreas Hansen         : Spin unrestricted coupled pair/coupled cluster methods
   Benjamin Helmich-Paris : CASSCF linear response (MC-RPA)
   Lee Huntington         : MR-EOM, pCC
   Robert Izsak           : Overlap fitted RIJCOSX, COSX-SCS-MP3, EOM
   Christian Kollmar      : KDIIS, OOCD, Brueckner-CCSD(T), CCSD density
   Simone Kossmann        : Meta GGA functionals, TD-DFT gradient, OOMP2, MP2 Hessian
   Martin Krupicka        : AUTO-CI
   Lucas Lang             : DCDCAS
   Dagmar Lenk            : GEPOL surface, SMD
   Dimitrios Liakos       : Extrapolation schemes; Compound Job, initial MDCI parallelization
   Dimitrios Manganas     : Further ROCIS development; embedding schemes
   Dimitrios Pantazis     : SARC Basis sets
   Taras Petrenko         : DFT Hessian,TD-DFT gradient, ASA, ECA, R-Raman, ABS, FL, XAS/XES, NRVS
   Peter Pinski           : DLPNO-MP2, DLPNO-MP2 Gradient
   Christoph Reimann      : Effective Core Potentials
   Marius Retegan         : Local ZFS, SOC
   Christoph Riplinger    : Optimizer, TS searches, QM/MM, DLPNO-CCSD(T), (RO)-DLPNO pert. Triples
   Tobias Risthaus        : Range-separated hybrids, TD-DFT gradient, RPA, STAB
   Michael Roemelt        : Original ROCIS implementation
   Masaaki Saitow         : Open-shell DLPNO-CCSD energy and density
   Barbara Sandhoefer     : DKH picture change effects
   Avijit Sen             : IP-ROCIS
   Kantharuban Sivalingam : CASSCF convergence, NEVPT2, FIC-MRCI
   Bernardo de Souza      : ESD, SOC TD-DFT
   Georgi Stoychev        : AutoAux, RI-MP2 NMR
   Willem Van den Heuvel  : Paramagnetic NMR
   Boris Wezisla          : Elementary symmetry handling
   Frank Wennmohs         : Technical directorship


 We gratefully acknowledge several colleagues who have allowed us to
 interface, adapt or use parts of their codes:
   Stefan Grimme, W. Hujo, H. Kruse,             : VdW corrections, initial TS optimization,
                  C. Bannwarth                     DFT functionals, gCP, sTDA/sTD-DF
   Ed Valeev, F. Pavosevic, A. Kumar             : LibInt (2-el integral package), F12 methods
   Garnet Chan, S. Sharma, J. Yang, R. Olivares  : DMRG
   Ulf Ekstrom                                   : XCFun DFT Library
   Mihaly Kallay                                 : mrcc  (arbitrary order and MRCC methods)
   Andreas Klamt, Michael Diedenhofen            : otool_cosmo (COSMO solvation model)
   Jiri Pittner, Ondrej Demel                    : Mk-CCSD
   Frank Weinhold                                : gennbo (NPA and NBO analysis)
   Christopher J. Cramer and Donald G. Truhlar   : smd solvation model
   Lars Goerigk                                  : TD-DFT with DH, B97 family of functionals
   V. Asgeirsson, H. Jonsson                     : NEB implementation
   FAccTs GmbH                                   : IRC, NEB, NEB-TS, Multilevel, MM, QM/MM, CI optimization
   S Lehtola, MJT Oliveira, MAL Marques          : LibXC Library


 Your calculation uses the libint2 library for the computation of 2-el integrals
 For citations please refer to: http://libint.valeyev.net

 Your ORCA version has been built with support for libXC version: 4.2.3
 For citations please refer to: https://tddft.org/programs/libxc/

 This ORCA versions uses:
   CBLAS   interface :  Fast vector & matrix operations
   LAPACKE interface :  Fast linear algebra routines
   SCALAPACK package :  Parallel linear algebra routines




***************************************
The coordinates will be read from file: NH3·OH.xyz
***************************************


Your calculation utilizes the atom-pairwise dispersion correction
with the zero-damping scheme (D30)
Cite in your paper:
S.Grimme, J.Antony, S.Ehrlich and H.Krieg, J.Chem.Phys., 132, (2010), 154104 
   

Your calculation utilizes the SMD solvation module
Please cite in your paper:
A.V. Marenich, C.J. Cramer, D.G. Truhlar J. Phys. Chem. B, 113, (2009), 6378 

XCFun DFT library Copyright 2009-2010 Ulf Ekstrom and contributors.
See http://admol.org/xcfun for more information. This is free soft-
ware; see the source code for copying conditions. There is ABSOLUTELY
NO WARRANTY; not even for MERCHANTABILITY or FITNESS FOR A PARTICULAR
PURPOSE. For details see the documentation. Scientific users of this 
library should cite U. Ekstrom, L. Visscher, R. Bast, A. J. Thorvald-
sen and K. Ruud; J.Chem.Theor.Comp. 2010, DOI: 10.1021/ct100117s
XCFun Version 0.99 
----- Orbital basis set information -----
Your calculation utilizes the basis: 6-311++G(d,p)
   H, Li - Ne  : R. Krishnan, J. S. Binkley, R. Seeger and J. A. Pople, J. Chem. Phys. 72, 650 (1980).
   Na - Ar     : A. D. McLean and G. S. Chandler J. Chem. Phys. 72, 5639, (1980).
   K  - Ca     : J.-P. Blaudeau, M. P. McGrath, L. A. Curtiss and L. Radom, J. Chem. Phys. 107, 5016 (1997).
   Ga - Kr     : L. A. Curtiss, M. P. McGrath, J.-P. Blandeau, N. E. Davis, R. C. Binning and L. Radom, J. Chem. Phys. 103, 6104 (1995).
   Pol./Diff.
   H, Li - Cl  : T. Clark, J. Chandrasekhar and P. v. R. Schleyer, J. Comp. Chem. 4, 294 (1983).
   H - Ne      : M. J. Frisch, J. A. Pople and J. S. Binkley, J. Chem. Phys. 80, 3265 (1984).

================================================================================
                                        WARNINGS
                       Please study these warnings very carefully!
================================================================================


WARNING: The environment variable RSH_COMMAND is not set!
  ===> : All Displacements for the Numerical Hessian calculation
         will be started on localhost

WARNING: Geometry Optimization
  ===> : Switching off AutoStart
         For restart on a previous wavefunction, please use MOREAD

INFO   : the flag for use of LIBINT has been found!

================================================================================
                                       INPUT FILE
================================================================================
NAME = NH3·OH.inp
|  1> ! UHF M062X D3Zero 6-311++G(d,p) OptTS NumFreq IRC TightOpt TightSCF Grid6 NoFinalGrid PrintBasis PrintMOs NBO
|  2> 
|  3> %geom
|  4>  ts_mode
|  5>   {B 1 4}
|  6>  end
|  7>  ts_active_atoms
|  8>   {0 1 4}
|  9>  end
| 10> end
| 11> 
| 12> %geom
| 13>  inhess read
| 14>  inhessname "freq.hess"
| 15> end
| 16> 
| 17> %irc
| 18>  maxiter 1000
| 19>  de_init_displ 0.25
| 20>  TolMAXG 1e-3
| 21>  TolRMSG 2e-4
| 22> end
| 23> 
| 24> %pal
| 25>  nprocs 12
| 26> end
| 27> 
| 28> %cpcm
| 29>  smd true
| 30>  smdsolvent "water"
| 31> end
| 32> 
| 33> *xyzfile 0 2 NH3·OH.xyz
| 34> 
| 35>                          ****END OF INPUT****
================================================================================

                       *****************************
                       * Geometry Optimization Run *
                       *****************************

Geometry optimization settings:
Update method            Update   .... Bofill
Choice of coordinates    CoordSys .... Z-matrix Internals
Initial Hessian          InHess   .... Read

Convergence Tolerances:
Energy Change            TolE     ....  1.0000e-06 Eh
Max. Gradient            TolMAXG  ....  1.0000e-04 Eh/bohr
RMS Gradient             TolRMSG  ....  3.0000e-05 Eh/bohr
Max. Displacement        TolMAXD  ....  1.0000e-03 bohr
RMS Displacement         TolRMSD  ....  6.0000e-04 bohr
Strict Convergence                ....  False
------------------------------------------------------------------------------
                        ORCA OPTIMIZATION COORDINATE SETUP
------------------------------------------------------------------------------

The optimization will be done in new redundant internal coordinates
Making redundant internal coordinates   ...  (new redundants) done
Following TS mode number                ...    internal coordinate number:  5
TS-active-atoms for coordinate setup... 0 1 4 
Evaluating the initial hessian          ... (Reading Exact Hessian)...  
InHessName: freq.hess	The file <freq.hess> is opened as a .hess file
done
done
Diagonalizing the Hessian               .... done
Dimension of the hessian                .... 14
Lowest eigenvalues of the non projected Hessian:
 -0.017056221 -0.000002826  0.000000218  0.002159490  0.004006391
done
Evaluating the coordinates              ...  done
Calculating the B-matrix                .... done
Calculating the G-matrix                .... done
Diagonalizing the G-matrix              .... done
The first mode is                       ....    2
The number of degrees of freedom        ....   12

    -----------------------------------------------------------------
                    Redundant Internal Coordinates


    -----------------------------------------------------------------
         Definition                    Initial Value    d2E/dq (diagonal element)
    -----------------------------------------------------------------
      1. B(H   1,N   0)                  1.1703         0.032393   
      2. B(H   2,N   0)                  1.0277         0.408980   
      3. B(H   3,N   0)                  1.0280         0.408146   
      4. B(O   4,N   0)                  2.4022         0.044548   
      5. B(O   4,H   1)                  1.2916        -0.003655   
      6. B(H   5,O   4)                  0.9796         0.467620   
      7. A(H   1,N   0,H   3)          111.6945         0.068479   
      8. A(H   2,N   0,H   3)          107.5111         0.060657   
      9. A(H   1,N   0,H   2)          111.9930         0.065357   
     10. A(N   0,H   1,O   4)          154.6832         0.041759   
     11. A(H   1,O   4,H   5)          104.4104         0.071209   
     12. D(O   4,H   1,N   0,H   3)    -64.6160         0.016224   
     13. D(O   4,H   1,N   0,H   2)     56.0426         0.014625   
     14. D(H   5,O   4,H   1,N   0)     63.5285         0.003663   
    -----------------------------------------------------------------

Number of atoms                         .... 6
Number of degrees of freedom            .... 14

         *************************************************************
         *                GEOMETRY OPTIMIZATION CYCLE   1            *
         *************************************************************
---------------------------------
CARTESIAN COORDINATES (ANGSTROEM)
---------------------------------
  N     -0.926854    0.214460    0.158631
  H      0.215665    0.327008    0.385715
  H     -1.308923   -0.663236    0.532529
  H     -1.116745    0.228946   -0.851596
  O      1.452666   -0.044039    0.363207
  H      1.684190   -0.063139   -0.588486

----------------------------
CARTESIAN COORDINATES (A.U.)
----------------------------
  NO LB      ZA    FRAG     MASS         X           Y           Z
   0 N     7.0000    0    14.007   -1.751499    0.405272    0.299770
   1 H     1.0000    0     1.008    0.407548    0.617955    0.728895
   2 H     1.0000    0     1.008   -2.473506   -1.253335    1.006334
   3 H     1.0000    0     1.008   -2.110342    0.432645   -1.609283
   4 O     8.0000    0    15.999    2.745142   -0.083222    0.686363
   5 H     1.0000    0     1.008    3.182658   -0.119315   -1.112078

--------------------------------
INTERNAL COORDINATES (ANGSTROEM)
--------------------------------
 N      0   0   0     0.000000000000     0.00000000     0.00000000
 H      1   0   0     1.170291713538     0.00000000     0.00000000
 H      1   2   0     1.027681133074   111.99300686     0.00000000
 H      1   2   3     1.028021280216   111.69451508   239.34135370
 O      2   1   3     1.291647904773   154.68317146    56.04263291
 H      5   2   1     0.979637250666   104.41042276    63.52854347

---------------------------
INTERNAL COORDINATES (A.U.)
---------------------------
 N      0   0   0     0.000000000000     0.00000000     0.00000000
 H      1   0   0     2.211530835384     0.00000000     0.00000000
 H      1   2   0     1.942035894508   111.99300686     0.00000000
 H      1   2   3     1.942678679452   111.69451508   239.34135370
 O      2   1   3     2.440860801474   154.68317146    56.04263291
 H      5   2   1     1.851246114346   104.41042276    63.52854347

---------------------
BASIS SET INFORMATION
---------------------
There are 3 groups of distinct atoms

 Group   1 Type N   : 12s6p1d contracted to 5s4p1d pattern {63111/3111/1}
 Group   2 Type H   : 6s1p contracted to 4s1p pattern {3111/1}
 Group   3 Type O   : 12s6p1d contracted to 5s4p1d pattern {63111/3111/1}

Atom   0N    basis set group =>   1
Atom   1H    basis set group =>   2
Atom   2H    basis set group =>   2
Atom   3H    basis set group =>   2
Atom   4O    basis set group =>   3
Atom   5H    basis set group =>   2

-------------------------
BASIS SET IN INPUT FORMAT
-------------------------

 # Basis set for element : H 
 NewGTO H 
 S 3 
   1      33.8650000000      0.0254938145
   2       5.0947900000      0.1903731086
   3       1.1587900000      0.8521614860
 S 1 
   1       0.3258400000      1.0000000000
 S 1 
   1       0.1027410000      1.0000000000
 S 1 
   1       0.0360000000      1.0000000000
 P 1 
   1       0.7500000000      1.0000000000
  end;

 # Basis set for element : N 
 NewGTO N 
 S 6 
   1    6293.4800000000      0.0019697881
   2     949.0440000000      0.0149612859
   3     218.7760000000      0.0735005308
   4      63.6916000000      0.2489367658
   5      18.8282000000      0.6024594331
   6       2.7202300000      0.2562017589
 S 3 
   1      30.6331000000      0.1119060795
   2       7.0261400000      0.9216666549
   3       2.1120500000     -0.0025691918
 P 3 
   1      30.6331000000      0.0383119186
   2       7.0261400000      0.2374031155
   3       2.1120500000      0.8175923978
 S 1 
   1       0.6840090000      1.0000000000
 P 1 
   1       0.6840090000      1.0000000000
 S 1 
   1       0.2008780000      1.0000000000
 P 1 
   1       0.2008780000      1.0000000000
 S 1 
   1       0.0639000000      1.0000000000
 P 1 
   1       0.0639000000      1.0000000000
 D 1 
   1       0.9130000000      1.0000000000
  end;

 # Basis set for element : O 
 NewGTO O 
 S 6 
   1    8588.5000000000      0.0018951501
   2    1297.2300000000      0.0143859006
   3     299.2960000000      0.0707320031
   4      87.3771000000      0.2400010105
   5      25.6789000000      0.5947970261
   6       3.7400400000      0.2808020123
 S 3 
   1      42.1175000000      0.1138890124
   2       9.6283700000      0.9208111006
   3       2.8533200000     -0.0032744704
 P 3 
   1      42.1175000000      0.0365113974
   2       9.6283700000      0.2371529830
   3       2.8533200000      0.8197019412
 S 1 
   1       0.9056610000      1.0000000000
 P 1 
   1       0.9056610000      1.0000000000
 S 1 
   1       0.2556110000      1.0000000000
 P 1 
   1       0.2556110000      1.0000000000
 S 1 
   1       0.0845000000      1.0000000000
 P 1 
   1       0.0845000000      1.0000000000
 D 1 
   1       1.2920000000      1.0000000000
  end;



           ************************************************************
           *        Program running with 12 parallel MPI-processes    *
           *              working on a common directory               *
           ************************************************************
------------------------------------------------------------------------------
                           ORCA GTO INTEGRAL CALCULATION
------------------------------------------------------------------------------

                         BASIS SET STATISTICS AND STARTUP INFO

 # of primitive gaussian shells          ...   66
 # of primitive gaussian functions       ...  106
 # of contracted shells                  ...   40
 # of contracted basis functions         ...   72
 Highest angular momentum                ...    2
 Maximum contraction depth               ...    6
 Integral package used                   ... LIBINT
 Integral threshhold            Thresh   ...  2.500e-11
 Primitive cut-off              TCut     ...  2.500e-12


------------------------------ INTEGRAL EVALUATION ----------------------------


 * One electron integrals 
 Pre-screening matrix                    ... done
 Shell pair data                         ... done (   0.000 sec)



           ************************************************************
           *        Program running with 12 parallel MPI-processes    *
           *              working on a common directory               *
           ************************************************************
-------------------------------------------------------------------------------
                                 ORCA SCF
-------------------------------------------------------------------------------

------------
SCF SETTINGS
------------
Hamiltonian:
 Density Functional     Method          .... DFT(GTOs)
 Exchange Functional    Exchange        .... M062X
 Correlation Functional Correlation     .... M062X
 Gradients option       PostSCFGGA      .... off
 Hybrid DFT is turned on
   Fraction HF Exchange ScalHFX         ....  0.540000
   Scaling of DF-GGA-X  ScalDFX         ....  0.460000
   Scaling of DF-GGA-C  ScalDFC         ....  1.000000
   Scaling of DF-LDA-C  ScalLDAC        ....  1.000000
   Perturbative correction              ....  0.000000
   Density functional embedding theory  .... OFF


General Settings:
 Integral files         IntName         .... NH3·OH
 Hartree-Fock type      HFTyp           .... UHF
 Total Charge           Charge          ....    0
 Multiplicity           Mult            ....    2
 Number of Electrons    NEL             ....   19
 Basis Dimension        Dim             ....   72
 Nuclear Repulsion      ENuc            ....     36.1834913850 Eh

Convergence Acceleration:
 DIIS                   CNVDIIS         .... on
   Start iteration      DIISMaxIt       ....    12
   Startup error        DIISStart       ....  0.200000
   # of expansion vecs  DIISMaxEq       ....     5
   Bias factor          DIISBfac        ....   1.050
   Max. coefficient     DIISMaxC        ....  10.000
 Newton-Raphson         CNVNR           .... off
 SOSCF                  CNVSOSCF        .... off
 Level Shifting         CNVShift        .... on
   Level shift para.    LevelShift      ....    0.2500
   Turn off err/grad.   ShiftErr        ....    0.0010
 Zerner damping         CNVZerner       .... off
 Static damping         CNVDamp         .... on
   Fraction old density DampFac         ....    0.7000
   Max. Damping (<1)    DampMax         ....    0.9800
   Min. Damping (>=0)   DampMin         ....    0.0000
   Turn off err/grad.   DampErr         ....    0.1000
 Fernandez-Rico         CNVRico         .... off

SCF Procedure:
 Maximum # iterations   MaxIter         ....   125
 SCF integral mode      SCFMode         .... Direct
   Integral package                     .... LIBINT
 Reset frequency        DirectResetFreq ....    20
 Integral Threshold     Thresh          ....  2.500e-11 Eh
 Primitive CutOff       TCut            ....  2.500e-12 Eh

Convergence Tolerance:
 Convergence Check Mode ConvCheckMode   .... Total+1el-Energy
 Convergence forced     ConvForced      .... 0
 Energy Change          TolE            ....  1.000e-08 Eh
 1-El. energy change                    ....  1.000e-05 Eh
 DIIS Error             TolErr          ....  5.000e-07


Diagonalization of the overlap matrix:
Smallest eigenvalue                        ... 2.039e-03
Time for diagonalization                   ...    0.010 sec
Threshold for overlap eigenvalues          ... 1.000e-08
Number of eigenvalues below threshold      ... 0
Time for construction of square roots      ...    0.038 sec
Total time needed                          ...    0.048 sec

-------------------
DFT GRID GENERATION
-------------------

General Integration Accuracy     IntAcc      ...  5.340
Radial Grid Type                 RadialGrid  ... Gauss-Chebyshev
Angular Grid (max. acc.)         AngularGrid ... Lebedev-590
Angular grid pruning method      GridPruning ... 3 (G Style)
Weight generation scheme         WeightScheme... Becke
Basis function cutoff            BFCut       ...    1.0000e-11
Integration weight cutoff        WCut        ...    1.0000e-14
Grids for H and He will be reduced by one unit

# of grid points (after initial pruning)     ...  77072 (   0.0 sec)
# of grid points (after weights+screening)   ...  74611 (   0.2 sec)
nearest neighbour list constructed           ...    0.0 sec
Grid point re-assignment to atoms done       ...    0.0 sec
Grid point division into batches done        ...    2.4 sec
Reduced shell lists constructed in    2.5 sec

Total number of grid points                  ...    74611
Total number of batches                      ...     1169
Average number of points per batch           ...       63
Average number of grid points per atom       ...    12435
Average number of shells per batch           ...    32.46 (81.16%)
Average number of basis functions per batch  ...    57.47 (79.83%)
Average number of large shells per batch     ...    29.31 (90.29%)
Average number of large basis fcns per batch ...    50.57 (87.98%)
Maximum spatial batch extension              ...  13.17, 13.40, 13.28 au
Average spatial batch extension              ...   0.14,  0.15,  0.14 au

Time for grid setup =    2.705 sec

------------------------------
INITIAL GUESS: MODEL POTENTIAL
------------------------------
Loading Hartree-Fock densities                     ... done
Calculating cut-offs                               ... done
Setting up the integral package                    ... done
Initializing the effective Hamiltonian             ... done
Starting the Coulomb interaction                   ... done (   0.0 sec)
Reading the grid                                   ... done
Mapping shells                                     ... done
Starting the XC term evaluation                    ... done (   0.1 sec)
  promolecular density results
     # of electrons  =     18.998042831
     EX              =    -15.788997324
     EC              =     -0.598343360
     EX+EC           =    -16.387340684
Transforming the Hamiltonian                       ... done (   0.0 sec)
Diagonalizing the Hamiltonian                      ... done (   0.0 sec)
Back transforming the eigenvectors                 ... done (   0.0 sec)
Now organizing SCF variables                       ... done
                      ------------------
                      INITIAL GUESS DONE (   3.0 sec)
                      ------------------

--------------------
CPCM SOLVATION MODEL
--------------------
CPCM parameters:
  Epsilon                                         ...      78.3550
  Refrac                                          ...       1.0000
  Rsolv                                           ...       1.3000
  Surface type                                    ...    GEPOL SES
  Epsilon function type                           ...         CPCM
Solvent:                                     ... WATER
SMD-CDS solvent descriptors:
  Soln                                       ...    1.3328
  Soln25                                     ...    1.3323
  Sola                                       ...    0.0000
  Solb                                       ...    0.0000
  Solg                                       ...    0.0000
  Solc                                       ...    0.0000
  Solh                                       ...    0.0000
Radii:
 Radius for N  used is    3.5716 Bohr (=   1.8900 Ang.)
 Radius for H  used is    2.2677 Bohr (=   1.2000 Ang.)
 Radius for O  used is    2.8724 Bohr (=   1.5200 Ang.)
Calculating surface                               ...        done! (  0.0s)
GEPOL surface points                              ...          243
GEPOL Volume                                      ...     306.0073
GEPOL Surface-area                                ...     243.0637
Calculating surface distance matrix               ...        done! (  0.0s)
Performing Cholesky decomposition & store         ...        done! (  0.0s)
Overall time for CPCM initialization              ...                 0.0s
--------------
SCF ITERATIONS
--------------
ITER       Energy         Delta-E        Max-DP      RMS-DP      [F,P]     Damp
               ***  Starting incremental Fock matrix formation  ***
  0   -132.1775435687   0.000000000000 0.03333324  0.00109633  0.3329313 0.7000
  1   -132.2268547210  -0.049311152276 0.01705005  0.00068960  0.1508344 0.7000
                               ***Turning on DIIS***
  2   -132.2472224131  -0.020367692103 0.02377601  0.00106748  0.0499277 0.0000
  3   -132.2800356571  -0.032813244061 0.01408099  0.00050252  0.0797867 0.0000
  4   -132.2868049622  -0.006769305089 0.00456636  0.00015830  0.0135816 0.0000
  5   -132.2872022963  -0.000397334111 0.00142556  0.00008069  0.0033402 0.0000
  6   -132.2873409702  -0.000138673837 0.00125303  0.00006917  0.0018823 0.0000
  7   -132.2874220839  -0.000081113734 0.00106377  0.00006165  0.0012562 0.0000
  8   -132.2874702483  -0.000048164434 0.00135318  0.00007278  0.0009084 0.0000
  9   -132.2875069075  -0.000036659118 0.00072551  0.00003350  0.0004767 0.0000
 10   -132.2875168208  -0.000009913356 0.00055155  0.00002440  0.0002785 0.0000
 11   -132.2875204359  -0.000003615046 0.00026523  0.00001197  0.0001060 0.0000
 12   -132.2875211175  -0.000000681671 0.00005778  0.00000296  0.0001101 0.0000
 13   -132.2875212127  -0.000000095197 0.00007810  0.00000355  0.0000441 0.0000
 14   -132.2875212985  -0.000000085739 0.00010724  0.00000430  0.0000410 0.0000
 15   -132.2875213797  -0.000000081267 0.00011906  0.00000483  0.0000267 0.0000
 16   -132.2875214232  -0.000000043459 0.00001824  0.00000080  0.0000156 0.0000
 17   -132.2875214279  -0.000000004671 0.00005374  0.00000221  0.0000166 0.0000
                 **** Energy Check signals convergence ****

               *****************************************************
               *                     SUCCESS                       *
               *           SCF CONVERGED AFTER  18 CYCLES          *
               *****************************************************


SMD CDS free energy correction energy :                 2.36023     Kcal/mol
Total Energy after SMD CDS correction =              -132.283760176 Eh

----------------
TOTAL SCF ENERGY
----------------

Total Energy       :         -132.28376018 Eh           -3599.62412 eV

Components:
Nuclear Repulsion  :           36.18349138 Eh             984.60286 eV
Electronic Energy  :         -168.46725156 Eh           -4584.22697 eV
One Electron Energy:         -252.22839633 Eh           -6863.48360 eV
Two Electron Energy:           83.76114477 Eh            2279.25662 eV
CPCM Dielectric    :           -0.03084055 Eh              -0.83921 eV
SMD CDS (Gcds)     :            0.00376126 Eh               0.10235 eV

Virial components:
Potential Energy   :         -264.05173946 Eh           -7185.21312 eV
Kinetic Energy     :          131.76797928 Eh            3585.58900 eV
Virial Ratio       :            2.00391431


DFT components:
N(Alpha)           :       10.000000466262 electrons
N(Beta)            :        9.000000525859 electrons
N(Total)           :       19.000000992122 electrons
E(XC)              :       -8.114496986237 Eh       
DFET-embed. en.    :        0.000000000000 Eh       
CPCM Solvation Model Properties:
Surface-charge          :           -0.03009348
Charge-correction       :           -0.00023463 Eh              -0.00638 eV
Free-energy (cav+disp)  :            0.00283882 Eh               0.07725 eV
Corrected G(solv)       :         -132.28115599 Eh           -3599.55325 eV

---------------
SCF CONVERGENCE
---------------

  Last Energy change         ...   -6.2649e-09  Tolerance :   1.0000e-08
  Last MAX-Density change    ...    7.3224e-06  Tolerance :   1.0000e-07
  Last RMS-Density change    ...    3.7575e-07  Tolerance :   5.0000e-09
  Last DIIS Error            ...    2.5628e-06  Tolerance :   5.0000e-07

             **** THE GBW FILE WAS UPDATED (NH3·OH.gbw) ****
             **** DENSITY FILE WAS UPDATED (NH3·OH.scfp) ****
             **** ENERGY FILE WAS UPDATED (NH3·OH.en.tmp) ****
----------------------
UHF SPIN CONTAMINATION
----------------------

Warning: in a DFT calculation there is little theoretical justification to 
         calculate <S**2> as in Hartree-Fock theory. We will do it anyways
         but you should keep in mind that the values have only limited relevance

Expectation value of <S**2>     :     0.760107
Ideal value S*(S+1) for S=0.5   :     0.750000
Deviation                       :     0.010107

             **** THE GBW FILE WAS UPDATED (NH3·OH.gbw) ****
             **** DENSITY FILE WAS UPDATED (NH3·OH.scfp) ****
----------------
ORBITAL ENERGIES
----------------
                 SPIN UP ORBITALS
  NO   OCC          E(Eh)            E(eV) 
   0   1.0000     -19.612390      -533.6803 
   1   1.0000     -14.795678      -402.6109 
   2   1.0000      -1.087994       -29.6058 
   3   1.0000      -0.991833       -26.9892 
   4   1.0000      -0.600792       -16.3484 
   5   1.0000      -0.575238       -15.6530 
   6   1.0000      -0.499035       -13.5794 
   7   1.0000      -0.433041       -11.7837 
   8   1.0000      -0.385770       -10.4973 
   9   1.0000      -0.374984       -10.2038 
  10   0.0000       0.002016         0.0549 
  11   0.0000       0.032889         0.8950 
  12   0.0000       0.041290         1.1235 
  13   0.0000       0.052154         1.4192 
  14   0.0000       0.130135         3.5412 
  15   0.0000       0.149553         4.0695 
  16   0.0000       0.158333         4.3085 
  17   0.0000       0.174932         4.7601 
  18   0.0000       0.198210         5.3936 
  19   0.0000       0.204340         5.5604 
  20   0.0000       0.216174         5.8824 
  21   0.0000       0.227745         6.1973 
  22   0.0000       0.248584         6.7643 
  23   0.0000       0.266188         7.2433 
  24   0.0000       0.316213         8.6046 
  25   0.0000       0.343832         9.3561 
  26   0.0000       0.503743        13.7075 
  27   0.0000       0.513868        13.9831 
  28   0.0000       0.593201        16.1418 
  29   0.0000       0.634250        17.2588 
  30   0.0000       0.763413        20.7735 
  31   0.0000       0.814801        22.1719 
  32   0.0000       0.830773        22.6065 
  33   0.0000       1.000217        27.2173 
  34   0.0000       1.067683        29.0531 
  35   0.0000       1.106495        30.1093 
  36   0.0000       1.135659        30.9028 
  37   0.0000       1.192332        32.4450 
  38   0.0000       1.252281        34.0763 
  39   0.0000       1.409707        38.3601 
  40   0.0000       1.413548        38.4646 
  41   0.0000       1.525341        41.5066 
  42   0.0000       1.585378        43.1403 
  43   0.0000       1.656890        45.0863 
  44   0.0000       1.697013        46.1781 
  45   0.0000       1.701425        46.2981 
  46   0.0000       1.944724        52.9186 
  47   0.0000       1.966189        53.5027 
  48   0.0000       2.132531        58.0291 
  49   0.0000       2.149545        58.4921 
  50   0.0000       2.466019        67.1038 
  51   0.0000       2.517322        68.4998 
  52   0.0000       2.535173        68.9856 
  53   0.0000       2.595761        70.6342 
  54   0.0000       2.618407        71.2505 
  55   0.0000       2.693240        73.2868 
  56   0.0000       2.823019        76.8183 
  57   0.0000       2.936057        79.8942 
  58   0.0000       3.035660        82.6045 
  59   0.0000       3.078085        83.7589 
  60   0.0000       3.198314        87.0305 
  61   0.0000       3.253617        88.5354 
  62   0.0000       3.630706        98.7965 
  63   0.0000       3.890652       105.8700 
  64   0.0000       3.992379       108.6382 
  65   0.0000       4.597389       125.1013 
  66   0.0000       4.690003       127.6215 
  67   0.0000       5.095837       138.6648 
  68   0.0000       5.370419       146.1365 
  69   0.0000       5.629031       153.1737 
  70   0.0000      35.581702       968.2273 
  71   0.0000      49.980663      1360.0430 

                 SPIN DOWN ORBITALS
  NO   OCC          E(Eh)            E(eV) 
   0   1.0000     -19.605527      -533.4935 
   1   1.0000     -14.787126      -402.3781 
   2   1.0000      -1.061670       -28.8895 
   3   1.0000      -0.947951       -25.7950 
   4   1.0000      -0.569697       -15.5022 
   5   1.0000      -0.558560       -15.1992 
   6   1.0000      -0.481140       -13.0925 
   7   1.0000      -0.371877       -10.1193 
   8   1.0000      -0.348684        -9.4882 
   9   0.0000      -0.120310        -3.2738 
  10   0.0000       0.004405         0.1199 
  11   0.0000       0.035617         0.9692 
  12   0.0000       0.042594         1.1590 
  13   0.0000       0.053280         1.4498 
  14   0.0000       0.134911         3.6711 
  15   0.0000       0.150190         4.0869 
  16   0.0000       0.159275         4.3341 
  17   0.0000       0.170754         4.6464 
  18   0.0000       0.201447         5.4817 
  19   0.0000       0.208861         5.6834 
  20   0.0000       0.221037         6.0147 
  21   0.0000       0.234469         6.3802 
  22   0.0000       0.249331         6.7846 
  23   0.0000       0.267101         7.2682 
  24   0.0000       0.321582         8.7507 
  25   0.0000       0.358360         9.7515 
  26   0.0000       0.506607        13.7855 
  27   0.0000       0.523276        14.2391 
  28   0.0000       0.597858        16.2685 
  29   0.0000       0.639538        17.4027 
  30   0.0000       0.803524        21.8650 
  31   0.0000       0.828551        22.5460 
  32   0.0000       0.843831        22.9618 
  33   0.0000       1.019096        27.7310 
  34   0.0000       1.073760        29.2185 
  35   0.0000       1.118136        30.4260 
  36   0.0000       1.156183        31.4613 
  37   0.0000       1.210366        32.9357 
  38   0.0000       1.264816        34.4174 
  39   0.0000       1.414620        38.4938 
  40   0.0000       1.416923        38.5564 
  41   0.0000       1.529051        41.6076 
  42   0.0000       1.591768        43.3142 
  43   0.0000       1.660496        45.1844 
  44   0.0000       1.700053        46.2608 
  45   0.0000       1.712659        46.6038 
  46   0.0000       1.952826        53.1391 
  47   0.0000       1.985456        54.0270 
  48   0.0000       2.138823        58.2003 
  49   0.0000       2.163978        58.8848 
  50   0.0000       2.481509        67.5253 
  51   0.0000       2.510776        68.3217 
  52   0.0000       2.541589        69.1602 
  53   0.0000       2.606176        70.9177 
  54   0.0000       2.630144        71.5699 
  55   0.0000       2.686130        73.0933 
  56   0.0000       2.838188        77.2310 
  57   0.0000       2.953320        80.3639 
  58   0.0000       3.061138        83.2978 
  59   0.0000       3.103571        84.4525 
  60   0.0000       3.206643        87.2572 
  61   0.0000       3.270333        88.9903 
  62   0.0000       3.642032        99.1047 
  63   0.0000       3.904067       106.2351 
  64   0.0000       4.044262       110.0500 
  65   0.0000       4.617569       125.6504 
  66   0.0000       4.705073       128.0316 
  67   0.0000       5.111211       139.0831 
  68   0.0000       5.392795       146.7454 
  69   0.0000       5.642194       153.5319 
  70   0.0000      35.581810       968.2303 
  71   0.0000      49.970748      1359.7732 
------------------
MOLECULAR ORBITALS
------------------
                      0         1         2         3         4         5   
                 -19.61239 -14.79568  -1.08799  -0.99183  -0.60079  -0.57524
                   1.00000   1.00000   1.00000   1.00000   1.00000   1.00000
                  --------  --------  --------  --------  --------  --------
  0N   1s        -0.000001  0.558760 -0.026216 -0.110118 -0.002388  0.000135
  0N   2s        -0.000001  0.465852 -0.042915 -0.180262 -0.003648  0.000246
  0N   1pz       -0.000002 -0.000650 -0.002584 -0.019422 -0.064103  0.184895
  0N   1px       -0.000038 -0.000263  0.010018 -0.003032 -0.154953 -0.045242
  0N   1py        0.000003 -0.000944 -0.005778 -0.029277 -0.035706 -0.128479
  0N   3s        -0.000041  0.009916  0.117915  0.501778  0.010129 -0.000576
  0N   2pz        0.000017 -0.000124 -0.002475 -0.031278 -0.097556  0.277522
  0N   2px        0.000161  0.000148  0.020555 -0.004103 -0.238789 -0.068222
  0N   2py        0.000003 -0.000221 -0.007848 -0.047267 -0.054899 -0.192927
  0N   4s         0.000281 -0.003120  0.083651  0.374117 -0.003128 -0.003315
  0N   3pz        0.000086 -0.000412 -0.001042 -0.012694 -0.066918  0.189287
  0N   3px        0.000246 -0.000663  0.009140  0.000261 -0.168647 -0.048332
  0N   3py        0.000086 -0.000508 -0.002580 -0.018807 -0.036878 -0.131396
  0N   5s         0.001098  0.000605  0.030910  0.016349 -0.011470 -0.000781
  0N   4pz       -0.000432  0.000069 -0.005321  0.000333 -0.006619  0.004611
  0N   4px        0.000033 -0.000015  0.004937  0.003150 -0.014136 -0.001981
  0N   4py       -0.000421  0.000135 -0.005790 -0.001475 -0.008147 -0.003133
  0N   1dz2      -0.000045  0.000120 -0.002205  0.001142  0.010114 -0.020984
  0N   1dxz       0.000019  0.000069  0.001304  0.000468  0.000653 -0.004424
  0N   1dyz       0.000005 -0.000201 -0.000172 -0.002978  0.000993 -0.009881
  0N   1dx2y2     0.000081  0.000018  0.004363  0.001232 -0.012896 -0.012194
  0N   1dxy      -0.000002  0.000180  0.000339  0.001377  0.006404  0.007482
  1H   1s        -0.000019  0.000194  0.052095  0.045002 -0.142482 -0.014494
  1H   2s        -0.000775 -0.000359  0.049544  0.048671 -0.194094 -0.019948
  1H   3s         0.000755  0.003149 -0.016595 -0.035660  0.024725 -0.000622
  1H   4s         0.001347 -0.000665  0.011798 -0.001420  0.000696 -0.003381
  1H   1pz        0.000043  0.000097 -0.002660 -0.003784  0.001509  0.011243
  1H   1px       -0.000008  0.000581  0.012455 -0.017559 -0.001286 -0.000360
  1H   1py        0.000071  0.000013 -0.005666 -0.002080  0.008241 -0.005952
  2H   1s        -0.000021  0.000171  0.017473  0.089457  0.049587  0.149884
  2H   2s         0.000135 -0.001232  0.016770  0.076784  0.058443  0.189693
  2H   3s        -0.000475  0.000636 -0.011270 -0.011190  0.003503  0.037532
  2H   4s        -0.000256 -0.000174 -0.002121  0.004290  0.001569  0.015671
  2H   1pz       -0.000020  0.000385 -0.001912 -0.007882 -0.007889 -0.000617
  2H   1px        0.000013 -0.000329  0.002453  0.007095 -0.006461  0.008955
  2H   1py        0.000036 -0.000812  0.003912  0.015088  0.005763  0.017542
  3H   1s        -0.000025  0.000173  0.017618  0.089529  0.069644 -0.136325
  3H   2s         0.000150 -0.001233  0.016898  0.076546  0.084771 -0.172498
  3H   3s        -0.000669  0.000655 -0.013202 -0.010550  0.008392 -0.034960
  3H   4s        -0.000493 -0.000320 -0.005452  0.006569  0.004457 -0.014154
  3H   1pz        0.000034 -0.000942  0.004751  0.018018  0.009647 -0.015662
  3H   1px       -0.000005 -0.000146  0.001651  0.003528 -0.006897 -0.008383
  3H   1py       -0.000006  0.000046 -0.000455 -0.001670 -0.003013 -0.006655
  4O   1s        -0.552866  0.000004 -0.112565  0.031988 -0.005377 -0.003935
  4O   2s        -0.469502  0.000004 -0.185444  0.052797 -0.008819 -0.006569
  4O   1pz        0.001062 -0.000001 -0.035811  0.012505 -0.076065  0.014621
  4O   1px        0.000179 -0.000033 -0.009066 -0.010785  0.130816  0.009866
  4O   1py       -0.000082  0.000007  0.002983  0.001243 -0.028059 -0.009570
  4O   3s        -0.008698  0.000060  0.534861 -0.153811  0.026396  0.019779
  4O   2pz       -0.000131  0.000009 -0.058595  0.020236 -0.111020  0.020765
  4O   2px       -0.000003  0.000113 -0.016541 -0.016817  0.194348  0.014697
  4O   2py        0.000001 -0.000013  0.005677  0.001910 -0.041949 -0.014028
  4O   4s         0.004116 -0.000320  0.418315 -0.126643  0.010147  0.024135
  4O   3pz        0.000084 -0.000109 -0.022099  0.008643 -0.071939  0.016980
  4O   3px       -0.000464  0.000226 -0.011711 -0.007426  0.147218  0.011749
  4O   3py        0.000120 -0.000128  0.003571  0.001003 -0.032854 -0.012245
  4O   5s        -0.004284 -0.001443 -0.017788  0.017645 -0.027665  0.006030
  4O   4pz        0.000539  0.000097  0.006377 -0.001858 -0.007296  0.003649
  4O   4px        0.000733  0.000588  0.004962 -0.007734  0.027308  0.001787
  4O   4py       -0.000151 -0.000245  0.000516  0.003227 -0.007054 -0.003460
  4O   1dz2      -0.000077  0.000057  0.006281 -0.003569  0.011119 -0.000465
  4O   1dxz       0.000024  0.000013 -0.002001  0.001258 -0.005954 -0.001065
  4O   1dyz      -0.000009  0.000001  0.000136 -0.000135  0.000938  0.000551
  4O   1dx2y2    -0.000043 -0.000053  0.006322  0.000149 -0.005255 -0.000234
  4O   1dxy      -0.000028  0.000065 -0.001878 -0.000607  0.003675  0.000822
  5H   1s        -0.000087  0.000004  0.093821 -0.031158  0.083799 -0.005917
  5H   2s        -0.000098 -0.000074  0.069449 -0.024406  0.107029 -0.007869
  5H   3s         0.001243  0.000121  0.009820 -0.003645  0.019043 -0.007163
  5H   4s         0.000025  0.000289  0.002806 -0.003742  0.003045  0.003254
  5H   1pz        0.000365 -0.000029  0.020857 -0.006743  0.016930 -0.000531
  5H   1px       -0.000033  0.000010 -0.006501  0.000813  0.004540  0.002685
  5H   1py       -0.000008  0.000022  0.000732 -0.000180 -0.001731 -0.001146
                      6         7         8         9        10        11   
                  -0.49904  -0.43304  -0.38577  -0.37498   0.00202   0.03289
                   1.00000   1.00000   1.00000   1.00000   0.00000   0.00000
                  --------  --------  --------  --------  --------  --------
  0N   1s        -0.006631 -0.031717  0.010413  0.005558  0.022993 -0.009222
  0N   2s        -0.011046 -0.053208  0.017303  0.009366  0.039874 -0.016214
  0N   1pz        0.048820  0.123118 -0.020758  0.027137  0.014173  0.008178
  0N   1px        0.085273 -0.047424 -0.051795 -0.183327  0.008145 -0.036215
  0N   1py        0.011174  0.199304 -0.038522  0.082845  0.015245 -0.018219
  0N   3s         0.031546  0.162090 -0.049525 -0.028327 -0.144335  0.064132
  0N   2pz        0.073426  0.183837 -0.028391  0.042625  0.022376  0.014320
  0N   2px        0.125528 -0.071879 -0.072372 -0.275231  0.011504 -0.061274
  0N   2py        0.015109  0.297901 -0.056761  0.127131  0.024647 -0.032229
  0N   4s         0.058065  0.191636 -0.095277 -0.046137 -0.121674  0.001497
  0N   3pz        0.049713  0.169525 -0.030744  0.040389  0.015840 -0.000466
  0N   3px        0.110906 -0.086906 -0.078334 -0.272990  0.002644 -0.042268
  0N   3py        0.013776  0.278348 -0.043033  0.123635  0.020130 -0.009377
  0N   5s         0.033020 -0.105955 -0.069283 -0.044130 -1.569639  0.802150
  0N   4pz        0.004837  0.032594 -0.014158  0.003775  0.132289  0.047103
  0N   4px        0.017558 -0.032305 -0.018285 -0.042906 -0.062701 -0.205365
  0N   4py        0.011220  0.054089 -0.001528  0.023249  0.174663 -0.221465
  0N   1dz2      -0.004585 -0.001579 -0.001209  0.000141  0.002950 -0.000938
  0N   1dxz      -0.003468  0.000194  0.002063  0.005133  0.000503  0.000495
  0N   1dyz      -0.001819 -0.008796  0.001484 -0.002913 -0.002484  0.001605
  0N   1dx2y2     0.002462  0.009882 -0.000243  0.004820 -0.001811  0.000582
  0N   1dxy      -0.003558 -0.000785  0.005244  0.006449  0.002590 -0.000676
  1H   1s         0.037193 -0.005454  0.007184 -0.012310  0.008604 -0.003900
  1H   2s         0.049102  0.004784  0.013863 -0.005170 -0.004996  0.010525
  1H   3s        -0.051408  0.063117  0.062412  0.019583  0.337265 -0.078162
  1H   4s        -0.029062  0.029404  0.024890  0.002596  0.336908  0.197730
  1H   1pz       -0.012600  0.008275 -0.001476  0.002557  0.003966  0.001276
  1H   1px       -0.017154 -0.018948  0.024587  0.034810  0.002556  0.003225
  1H   1py        0.000895  0.017445  0.009041 -0.003278  0.004619 -0.002026
  2H   1s        -0.010963 -0.053489  0.026908  0.002372  0.008643  0.001104
  2H   2s        -0.015807 -0.070918  0.045436  0.009966  0.022627 -0.018593
  2H   3s         0.000866  0.017165  0.029090  0.010438  0.232650 -0.066959
  2H   4s         0.007773  0.001681  0.003783  0.009073  0.687478 -1.587908
  2H   1pz        0.005092  0.014615 -0.005343  0.002342  0.007520 -0.005694
  2H   1px        0.003545 -0.007968 -0.002279 -0.012159 -0.004765  0.004817
  2H   1py       -0.001724  0.004465  0.003574  0.007141 -0.012729  0.013016
  3H   1s        -0.043869 -0.055197  0.012957  0.003685  0.008403 -0.004384
  3H   2s        -0.065116 -0.071446  0.024113  0.009620  0.015746 -0.019180
  3H   3s        -0.010592  0.015179  0.007056  0.009074  0.264419 -0.076693
  3H   4s        -0.006198  0.004919  0.000410  0.008389  0.668891 -0.254242
  3H   1pz       -0.006760 -0.003302  0.003293  0.003059 -0.016610  0.004930
  3H   1px        0.004952 -0.005399 -0.002443 -0.012600 -0.001547  0.000449
  3H   1py        0.001312  0.016111 -0.004077  0.006609  0.001624 -0.001627
  4O   1s         0.036032 -0.002680  0.001052 -0.003221  0.014930  0.010191
  4O   2s         0.060316 -0.004464  0.001708 -0.005587  0.025733  0.017848
  4O   1pz       -0.231347  0.026169 -0.016242 -0.055519  0.021098  0.029677
  4O   1px       -0.001068  0.115025 -0.028224 -0.226368 -0.001160 -0.031679
  4O   1py        0.006009  0.043860  0.282944 -0.042312 -0.000554 -0.004274
  4O   3s        -0.181750  0.013269 -0.004930  0.019289 -0.090303 -0.068546
  4O   2pz       -0.332652  0.038008 -0.023658 -0.081193  0.033509  0.046818
  4O   2px       -0.001120  0.166933 -0.042240 -0.331253 -0.002968 -0.051016
  4O   2py        0.008311  0.064254  0.412424 -0.060695 -0.001558 -0.006160
  4O   4s        -0.255154  0.005646 -0.003422  0.030335 -0.091356 -0.012476
  4O   3pz       -0.269679  0.038582 -0.024362 -0.083845  0.034040  0.043172
  4O   3px       -0.011156  0.161449 -0.036214 -0.326318  0.008524 -0.033552
  4O   3py        0.009288  0.061255  0.406886 -0.062085  0.000597 -0.007985
  4O   5s        -0.024378  0.005413 -0.026782 -0.004345 -0.392692 -0.391916
  4O   4pz       -0.040404  0.001097 -0.007795 -0.014692  0.017267  0.083631
  4O   4px       -0.022238  0.025102  0.000817 -0.075271 -0.006272 -0.119963
  4O   4py        0.008103  0.008995  0.101406 -0.016248 -0.041092  0.012003
  4O   1dz2       0.015380 -0.000494 -0.000019  0.002368 -0.000031 -0.000289
  4O   1dxz       0.000382 -0.005648  0.001288  0.009232 -0.000862  0.000399
  4O   1dyz      -0.001271 -0.001656 -0.011769  0.001509  0.000093  0.000465
  4O   1dx2y2    -0.000053 -0.001509 -0.001368  0.001373 -0.001218 -0.000670
  4O   1dxy      -0.000643 -0.000857 -0.003563 -0.000796 -0.000137  0.000124
  5H   1s         0.143850  0.004164  0.000308 -0.000585  0.006000 -0.001152
  5H   2s         0.198914  0.005321 -0.002249 -0.009816  0.057438  0.074844
  5H   3s         0.052977 -0.003574  0.003389  0.010098 -0.046245 -0.137778
  5H   4s         0.013411 -0.000101 -0.009599 -0.011693  0.596753  1.513365
  5H   1pz        0.021455  0.003657 -0.001273 -0.004756 -0.013217 -0.017059
  5H   1px       -0.012616  0.011433 -0.002903 -0.020465  0.002442  0.002853
  5H   1py        0.001963  0.004406  0.028135 -0.004152 -0.000251 -0.000650
                     12        13        14        15        16        17   
                   0.04129   0.05215   0.13014   0.14955   0.15833   0.17493
                   0.00000   0.00000   0.00000   0.00000   0.00000   0.00000
                  --------  --------  --------  --------  --------  --------
  0N   1s         0.000115 -0.007122 -0.005132  0.004542  0.003148  0.040125
  0N   2s         0.000166 -0.012623 -0.008793  0.007759  0.005172  0.067537
  0N   1pz        0.046958 -0.003536 -0.052714 -0.013280 -0.024210  0.012182
  0N   1px        0.011238 -0.000863  0.039218 -0.003605  0.000059  0.036033
  0N   1py       -0.011033  0.039207 -0.072296  0.013540 -0.033534  0.014756
  0N   3s        -0.000743  0.051193  0.013618 -0.023344 -0.018208 -0.170014
  0N   2pz        0.084938 -0.008699 -0.063723 -0.017304 -0.033582  0.034831
  0N   2px        0.021909  0.010495  0.037556 -0.013781 -0.018890  0.029230
  0N   2py       -0.019907  0.066565 -0.082137  0.014747 -0.037130  0.053375
  0N   4s         0.011010  0.002386  0.205970 -0.040128  0.025848 -1.032248
  0N   3pz        0.020081  0.003149 -0.207737 -0.009423 -0.110354  0.054488
  0N   3px        0.000069 -0.062815  0.172075  0.038763  0.090595  0.256166
  0N   3py       -0.003121  0.039309 -0.308705  0.044072 -0.151680  0.035430
  0N   5s         0.433334  1.610290 -3.067033  0.419512 -0.397722  5.659415
  0N   4pz        0.502192 -0.088954  0.304346 -1.379566  2.584211 -0.487920
  0N   4px        0.368083  0.665821 -1.418172  1.418523  1.440558 -0.651025
  0N   4py       -0.042209  0.268052  1.277827  1.860197  0.757500 -0.706193
  0N   1dz2      -0.000030 -0.001467 -0.010031 -0.016567  0.026630 -0.007398
  0N   1dxz       0.000571 -0.002029  0.000532 -0.015885 -0.000248 -0.003427
  0N   1dyz      -0.001385 -0.000839  0.000596 -0.013002  0.000869  0.006310
  0N   1dx2y2     0.000508  0.002909  0.007504 -0.020991 -0.008537  0.006393
  0N   1dxy      -0.001473 -0.000934  0.003609  0.010742 -0.004878 -0.006754
  1H   1s         0.002117  0.004666  0.034248 -0.037170 -0.046175  0.026033
  1H   2s         0.033968  0.067213 -0.078214  0.068914  0.071549  0.076766
  1H   3s        -0.416267 -0.592748  1.393115 -2.266237 -2.764072 -0.877700
  1H   4s        -2.445689 -4.725437 -0.380747 -1.282850 -3.225749 -0.504271
  1H   1pz        0.001497 -0.004319 -0.004260 -0.016526  0.015454  0.003551
  1H   1px       -0.001178  0.000123  0.011495  0.004381  0.001351 -0.002989
  1H   1py       -0.003692 -0.003520  0.000019  0.013925  0.000162  0.005060
  2H   1s         0.003151 -0.010517  0.006149  0.073430 -0.008082  0.012724
  2H   2s        -0.015312  0.010508 -0.107789 -0.051875 -0.050929  0.202336
  2H   3s         0.069271 -0.211021  0.900063  2.365094  0.113859 -1.036890
  2H   4s        -1.154817  2.455534  0.708931  1.800106  0.461745 -1.117816
  2H   1pz       -0.000703  0.001526  0.000268 -0.001601  0.020031 -0.005213
  2H   1px        0.003436 -0.002976 -0.012368 -0.001354  0.008412 -0.008693
  2H   1py        0.006528 -0.003760  0.003633 -0.014618  0.006182  0.007174
  3H   1s        -0.009077 -0.006341 -0.016189 -0.042873  0.057646  0.010226
  3H   2s         0.018221 -0.024521 -0.111225  0.031740 -0.127690  0.195858
  3H   3s        -0.092781 -0.128628  0.369696 -1.201418  2.397622 -0.954372
  3H   4s         2.890692 -0.683867 -0.099849 -1.123412  1.488138 -1.462925
  3H   1pz       -0.013768  0.006564  0.005496  0.006107 -0.008969  0.007479
  3H   1px       -0.003051  0.003195 -0.007907  0.016300  0.009771 -0.003811
  3H   1py       -0.000172  0.000469  0.006987  0.014722  0.003864 -0.002563
  4O   1s        -0.008492 -0.002126 -0.006793 -0.008371 -0.004838  0.016212
  4O   2s        -0.014964 -0.004000 -0.011847 -0.014211 -0.008117  0.027181
  4O   1pz        0.016402  0.019899 -0.010191  0.039143  0.040591  0.054669
  4O   1px        0.012049 -0.006880 -0.013264  0.016420  0.013738  0.014014
  4O   1py       -0.002744  0.027294 -0.029268 -0.024525  0.009605 -0.023391
  4O   3s         0.059213  0.020252  0.044306  0.047294  0.024761 -0.076452
  4O   2pz        0.025463  0.037558 -0.017228  0.042647  0.045622  0.073943
  4O   2px        0.016076 -0.015757 -0.023749  0.017325  0.009655  0.024583
  4O   2py       -0.001173  0.042450 -0.033911 -0.030305  0.011458 -0.024046
  4O   4s        -0.004240 -0.033481  0.007102  0.071393  0.071612 -0.302257
  4O   3pz        0.014508 -0.011755  0.000948  0.155545  0.133876  0.157033
  4O   3px        0.030709  0.018639 -0.012107  0.053563  0.061923  0.006721
  4O   3py       -0.017540  0.034299 -0.091018 -0.071467  0.029971 -0.093997
  4O   5s         0.657992  0.485405  0.887043  1.705696  0.679594  0.038441
  4O   4pz        0.031633  0.262247 -0.589194 -0.677715  0.014798  0.266484
  4O   4px       -0.118841 -0.227884 -0.098676 -0.633999 -1.075191 -0.101341
  4O   4py        0.092497  0.152099 -0.048766  0.226831  0.223726  0.365577
  4O   1dz2      -0.001215 -0.001104 -0.005527 -0.004912  0.005150 -0.000649
  4O   1dxz       0.000021 -0.000002  0.001133  0.003669 -0.005943 -0.001815
  4O   1dyz       0.000150 -0.001236  0.000845 -0.000448  0.000018  0.001515
  4O   1dx2y2     0.001084  0.001117  0.002739 -0.004834 -0.002165  0.001776
  4O   1dxy       0.000055  0.000223 -0.003181  0.001071  0.002317  0.000603
  5H   1s        -0.007397 -0.008250 -0.021350 -0.023864  0.030890  0.035583
  5H   2s        -0.035938 -0.001315  0.012606  0.009370 -0.027402 -0.004904
  5H   3s        -0.038304 -0.026305 -0.996592 -1.074926  0.835667  1.139865
  5H   4s         0.187323  2.119017  0.911505  0.329528  0.888369 -0.087324
  5H   1pz        0.001668 -0.006278  0.008992  0.001736 -0.006090 -0.008970
  5H   1px       -0.000901  0.003870  0.005463 -0.006345 -0.001180  0.003435
  5H   1py        0.000154  0.000714  0.000509  0.003975  0.000996 -0.000684
                     18        19        20        21        22        23   
                   0.19821   0.20434   0.21617   0.22774   0.24858   0.26619
                   0.00000   0.00000   0.00000   0.00000   0.00000   0.00000
                  --------  --------  --------  --------  --------  --------
  0N   1s         0.002177  0.019622 -0.024994 -0.000646  0.003896 -0.004604
  0N   2s         0.003695  0.032808 -0.040904 -0.000931  0.006452 -0.006874
  0N   1pz        0.008350 -0.012311 -0.044007  0.144515  0.003183 -0.035700
  0N   1px       -0.006050  0.043211  0.003427  0.005939  0.059506 -0.015452
  0N   1py       -0.041380  0.051738  0.008562 -0.076509  0.044085 -0.058596
  0N   3s        -0.008509 -0.076133  0.085412  0.000771 -0.013343 -0.002924
  0N   2pz        0.019100 -0.007127 -0.055934  0.180563  0.000560 -0.037898
  0N   2px       -0.012973  0.050983  0.007005  0.007114  0.076412 -0.034924
  0N   2py       -0.039006  0.077735  0.010624 -0.092805  0.046177 -0.062889
  0N   4s        -0.048855 -0.598216  0.872769  0.024332 -0.171485  0.373485
  0N   3pz        0.027083 -0.089079 -0.234204  0.748935  0.047377 -0.183859
  0N   3px       -0.021055  0.207119  0.009418  0.010427  0.270000  0.021497
  0N   3py       -0.229257  0.255089  0.037085 -0.402985  0.279935 -0.330650
  0N   5s         1.982629  1.552867  3.433590  0.558892 -4.069307  8.788663
  0N   4pz       -0.755627  1.093538 -0.282808 -0.579007 -0.975174 -0.832065
  0N   4px        0.120794 -0.003103 -1.454193 -0.406953 -1.460138  1.353907
  0N   4py        0.748167 -0.640866 -1.943331 -0.052041  0.827022 -0.106998
  0N   1dz2      -0.008076  0.010338 -0.010333  0.005066 -0.004848 -0.006170
  0N   1dxz      -0.002623 -0.002881 -0.006376  0.003724  0.003608 -0.001141
  0N   1dyz       0.001748  0.001627  0.015683  0.002686 -0.011490  0.010506
  0N   1dx2y2    -0.005258 -0.004150  0.010182  0.001009  0.003074 -0.009224
  0N   1dxy      -0.010502 -0.005872 -0.013683 -0.007217  0.005030 -0.009938
  1H   1s        -0.007189 -0.017065 -0.025905 -0.014844  0.000041 -0.035330
  1H   2s         0.005273  0.029935 -0.015395 -0.010703 -0.055475  0.047341
  1H   3s        -0.372808 -1.044165 -1.020526 -0.436512  0.929852 -3.662892
  1H   4s        -0.212149 -0.017193  2.993414  0.820469  1.579375 -4.951632
  1H   1pz       -0.001339 -0.005351 -0.007538 -0.000697  0.003321  0.007702
  1H   1px       -0.004411 -0.001769  0.007997  0.001291  0.002908 -0.000036
  1H   1py       -0.003051 -0.002223 -0.010239 -0.005303 -0.004008  0.004583
  2H   1s        -0.016119  0.020849 -0.066785 -0.059487  0.043803 -0.038777
  2H   2s        -0.042512  0.173722  0.074656 -0.145010  0.043508 -0.026344
  2H   3s        -0.302737 -0.029507 -2.748802 -1.823373  2.338524 -2.290388
  2H   4s         0.305241 -1.761831 -1.925713  1.563325 -0.232913  1.054508
  2H   1pz       -0.002314  0.005476 -0.014390 -0.002284  0.001941 -0.008651
  2H   1px        0.011593  0.005631 -0.000750  0.003457 -0.003587  0.006785
  2H   1py        0.001289 -0.001460 -0.000980  0.010826 -0.005171 -0.002012
  3H   1s        -0.017610  0.028110 -0.077658  0.053125  0.005976 -0.041171
  3H   2s         0.055266  0.037144 -0.052372  0.209164  0.028363  0.029020
  3H   3s        -0.999755  0.548388 -2.491017  1.305635  0.545366 -3.037644
  3H   4s        -0.669774  0.495528 -0.091814 -2.537751 -1.108447 -0.335298
  3H   1pz        0.003317 -0.001813  0.007735 -0.012790  0.002797  0.005097
  3H   1px       -0.000305 -0.001086  0.002491 -0.002329 -0.005430 -0.003704
  3H   1py        0.005268 -0.001003 -0.018216 -0.006419  0.009370 -0.003433
  4O   1s         0.007360 -0.022615 -0.008308 -0.016444 -0.015457  0.001889
  4O   2s         0.012104 -0.037907 -0.013900 -0.027277 -0.025359  0.003221
  4O   1pz        0.000615 -0.086829  0.053787 -0.002470 -0.013920 -0.086636
  4O   1px        0.005914  0.026255  0.030125  0.019526  0.048547  0.020520
  4O   1py        0.114608  0.024425  0.019324 -0.013507  0.018313 -0.034988
  4O   3s        -0.029690  0.108650  0.041815  0.071267  0.053952 -0.013926
  4O   2pz        0.008719 -0.125302  0.051409 -0.018152 -0.017882 -0.087704
  4O   2px        0.008176  0.030903  0.020839  0.016393  0.032732  0.033576
  4O   2py        0.106411  0.026355  0.028631 -0.010145  0.017957 -0.032698
  4O   4s        -0.179619  0.426483  0.124895  0.379207  0.506623  0.035010
  4O   3pz       -0.025388 -0.172977  0.263445  0.051761 -0.161202 -0.452451
  4O   3px        0.008585  0.074307  0.175732  0.097105  0.319696  0.039917
  4O   3py        0.513469  0.095027  0.035943 -0.073400  0.078691 -0.170118
  4O   5s         0.377021  2.240932  0.736808  0.141050 -3.212413  0.547303
  4O   4pz        0.166300 -1.473243 -1.156726 -0.588494  1.970803  1.906373
  4O   4px       -0.032657  0.078974 -0.788407 -0.374722 -1.704461 -0.830275
  4O   4py       -1.281435 -0.107277  0.198564  0.250269 -0.291806  0.937142
  4O   1dz2      -0.000551 -0.010596 -0.002902 -0.002293  0.017760  0.012293
  4O   1dxz       0.001144  0.005072  0.000309  0.001473 -0.008007  0.001030
  4O   1dyz      -0.004949 -0.001601  0.000376  0.000734 -0.000835  0.001114
  4O   1dx2y2    -0.001315 -0.000632 -0.005129 -0.000920 -0.000826 -0.002974
  4O   1dxy      -0.002816  0.001683  0.005622  0.001606 -0.001271  0.005499
  5H   1s         0.004812 -0.096503 -0.006435 -0.034012  0.031609 -0.007615
  5H   2s         0.004827  0.059893  0.038042 -0.003250 -0.136461 -0.067369
  5H   3s         0.066637 -3.845912 -0.978853 -1.021217  3.102962  0.671188
  5H   4s        -0.182844  1.122371 -0.562882  0.576763  0.974385  1.920510
  5H   1pz       -0.000958  0.029900 -0.001781  0.004244 -0.019650 -0.001994
  5H   1px       -0.001374 -0.007316 -0.006784 -0.007407 -0.003589 -0.008589
  5H   1py       -0.009035 -0.001031 -0.001085  0.001742  0.000380  0.004857
                     24        25        26        27        28        29   
                   0.31621   0.34383   0.50374   0.51387   0.59320   0.63425
                   0.00000   0.00000   0.00000   0.00000   0.00000   0.00000
                  --------  --------  --------  --------  --------  --------
  0N   1s        -0.009663 -0.027307 -0.001139 -0.001129 -0.003982  0.029846
  0N   2s        -0.017364 -0.044694 -0.002733 -0.002693 -0.008213  0.054956
  0N   1pz       -0.019204  0.046759  0.048945 -0.007483 -0.037854  0.008707
  0N   1px        0.043948  0.126537  0.017438  0.056000  0.018503  0.008711
  0N   1py       -0.007648  0.042395 -0.027763  0.031802 -0.009571  0.015547
  0N   3s         0.070935  0.063189  0.046028  0.065602  0.052645 -0.154744
  0N   2pz       -0.008794  0.046140  0.132804 -0.009260 -0.102415  0.026757
  0N   2px        0.058870  0.113241  0.049342  0.142590  0.049116  0.039416
  0N   2py        0.016803  0.043462 -0.059345  0.097394 -0.024194  0.045012
  0N   4s        -0.051850  1.346405 -0.418293 -0.789570  0.026929 -0.518266
  0N   3pz       -0.236630  0.283076  0.889645 -0.099490 -0.248087  0.396036
  0N   3px        0.074118  1.119600 -0.062180  0.373135 -0.312295  0.152581
  0N   3py       -0.199877  0.144031 -0.379825  0.584097  0.034685  0.584936
  0N   5s         6.801883  1.131234 -0.062884 -1.038839  0.492590  7.469363
  0N   4pz       -1.140005  0.577432 -1.838243 -0.031165  0.949464 -0.620716
  0N   4px        1.118502  0.692608 -0.492449 -1.999579  0.794138  0.564348
  0N   4py       -1.158179  0.851443  0.374107 -1.472428  0.032638 -1.103411
  0N   1dz2       0.002536  0.011851  0.014952  0.010363 -0.011647  0.007276
  0N   1dxz      -0.009223 -0.017631  0.014641 -0.012492  0.009421  0.012773
  0N   1dyz       0.007681 -0.016459  0.003496 -0.003641  0.003799 -0.020398
  0N   1dx2y2    -0.022133 -0.012884 -0.009889 -0.025740 -0.002286  0.010017
  0N   1dxy      -0.004050 -0.020122 -0.008524  0.005218  0.001841  0.023161
  1H   1s        -0.045150 -0.148742 -0.044703 -0.123569  0.027709  0.090769
  1H   2s        -0.081894 -0.499138 -0.509064 -1.500035  0.699984  1.387219
  1H   3s         1.223503 -7.429595  2.777207  6.108927 -2.351607 -5.250471
  1H   4s         1.055036 -1.530973  0.978765  1.642878 -0.894259 -0.538725
  1H   1pz       -0.004153 -0.003543  0.050625 -0.003025  0.003624  0.015185
  1H   1px       -0.028330  0.007886 -0.003375  0.020436 -0.026133  0.011678
  1H   1py        0.001245 -0.015217 -0.017594  0.029318 -0.008697  0.017818
  2H   1s         0.000695  0.006465 -0.072344  0.080103  0.002936  0.094898
  2H   2s         0.044274 -0.119981 -1.020417  1.499622  0.056569  1.654607
  2H   3s        -2.026306  1.068802  1.730176 -2.841263 -0.296086 -3.453769
  2H   4s        -0.426045  0.203490 -0.198658 -0.529766  0.136821 -0.221321
  2H   1pz       -0.005028  0.029238  0.014650 -0.019629 -0.026587  0.000083
  2H   1px       -0.004738  0.002174  0.013960  0.044490  0.000499  0.002749
  2H   1py       -0.008328 -0.013579 -0.022878  0.040055 -0.008431  0.038557
  3H   1s        -0.029035  0.013053  0.100832  0.000682 -0.040940  0.091411
  3H   2s        -0.051964 -0.054404  1.688997  0.187047 -0.757603  1.617546
  3H   3s        -2.802571  0.987808 -3.297098 -0.223916  1.639651 -3.370431
  3H   4s        -0.681830  0.151680 -0.237807 -0.185693  0.071725 -0.224742
  3H   1pz       -0.002694 -0.021336  0.057836  0.015537 -0.009813  0.035655
  3H   1px        0.004591  0.005587  0.004076  0.036120 -0.029962 -0.003404
  3H   1py       -0.004153  0.021669 -0.015046  0.004814 -0.001372  0.018385
  4O   1s        -0.027069 -0.008022  0.002013 -0.008099  0.022986  0.005916
  4O   2s        -0.042404 -0.014506  0.003017 -0.015389  0.040586  0.009543
  4O   1pz        0.022503  0.004141  0.030253  0.038080  0.117616 -0.013625
  4O   1px       -0.066934 -0.121229 -0.029080 -0.057386 -0.009705  0.004714
  4O   1py        0.010766  0.036863  0.016690  0.007026 -0.007095 -0.028781
  4O   3s         0.044062  0.062233  0.010601  0.088516 -0.124570 -0.011811
  4O   2pz        0.006797  0.020612  0.037782  0.065723  0.216603 -0.030317
  4O   2px       -0.065402 -0.132667 -0.055073 -0.113122 -0.012001 -0.019439
  4O   2py        0.018213  0.054099  0.033893  0.004296 -0.013805 -0.061055
  4O   4s         1.374625 -0.088417 -0.239490 -0.279569 -0.610761 -0.120967
  4O   3pz        0.067947 -0.084042  0.398304  0.246236  0.822857  0.070091
  4O   3px       -0.366901 -0.605251 -0.071391 -0.013302 -0.183036  0.151627
  4O   3py        0.027186  0.103728  0.002163  0.061772 -0.000557  0.006007
  4O   5s        -7.673634  5.239832 -0.843762 -1.430530  3.466252  1.780340
  4O   4pz        1.782681 -0.047447 -0.356527 -0.738125 -1.553918  0.050555
  4O   4px        2.488819 -1.449537  0.651467  0.889699 -0.026325 -0.684133
  4O   4py       -0.268652  0.742289 -0.299017 -0.422765  0.192619  0.484063
  4O   1dz2       0.008735  0.008324  0.002746  0.008240  0.009376 -0.006339
  4O   1dxz      -0.001205  0.009665 -0.009892  0.002116 -0.008633 -0.004454
  4O   1dyz       0.000762 -0.003067  0.000928  0.000746  0.001631  0.002723
  4O   1dx2y2     0.012568 -0.008068 -0.003998 -0.016593  0.003494  0.004455
  4O   1dxy      -0.002437  0.015138  0.004284  0.000305 -0.001835 -0.009497
  5H   1s         0.003835  0.013844  0.061380  0.029766  0.137317  0.009572
  5H   2s        -0.086439 -0.051868  0.794251  0.507182  2.282010  0.101914
  5H   3s         3.618849 -0.603294 -1.056149 -1.247440 -4.744860 -0.276908
  5H   4s        -0.654571  0.121719 -0.131282 -0.109740  0.919775 -0.028823
  5H   1pz       -0.025690 -0.006342  0.026086  0.008607  0.029931  0.014901
  5H   1px        0.007736 -0.006019  0.016362 -0.028683 -0.009426  0.015395
  5H   1py       -0.001712  0.013562  0.003045 -0.008506  0.000754 -0.018203
                     30        31        32        33        34        35   
                   0.76341   0.81480   0.83077   1.00022   1.06768   1.10650
                   0.00000   0.00000   0.00000   0.00000   0.00000   0.00000
                  --------  --------  --------  --------  --------  --------
  0N   1s         0.014076  0.000974  0.023256 -0.074680 -0.024992 -0.014958
  0N   2s         0.030515  0.001983  0.045747 -0.155865 -0.052281 -0.032327
  0N   1pz        0.072313  0.225836  0.106809  0.034002 -0.009982 -0.004587
  0N   1px       -0.171222 -0.028136  0.175819 -0.026342  0.002273 -0.015752
  0N   1py        0.169178 -0.131491  0.143557  0.036492  0.031532  0.015610
  0N   3s        -0.314561 -0.017362 -0.336995  1.280819  0.433962  0.282134
  0N   2pz        0.217830  0.688532  0.330050  0.220989 -0.027673  0.021865
  0N   2px       -0.595086 -0.088770  0.569992 -0.065900  0.007655 -0.000308
  0N   2py        0.522422 -0.398988  0.436288  0.272084  0.156740  0.108502
  0N   4s         1.222221  0.053815  0.729495 -3.031283 -0.994865 -0.922358
  0N   3pz       -0.446205 -1.843865 -0.981620 -0.295681  0.318917  0.064504
  0N   3px        1.431965  0.227817 -1.866694  0.058621 -0.061368 -0.106646
  0N   3py       -1.093465  1.071272 -1.271317 -0.121637 -0.368302 -0.170821
  0N   5s         1.825679  0.263160  0.218757  1.457316  0.770619  0.608832
  0N   4pz        0.079377  0.922749  0.241256  0.265798 -0.365805 -0.226223
  0N   4px       -0.189815 -0.065101  0.940343 -0.201035  0.074974 -0.183831
  0N   4py        0.418117 -0.599750  0.298365  0.005880  0.433988  0.106760
  0N   1dz2       0.004039  0.033671  0.018520 -0.026982  0.021582 -0.008785
  0N   1dxz       0.003550  0.011333  0.005923  0.041056 -0.031061  0.004719
  0N   1dyz      -0.018807  0.013743 -0.004051  0.044425  0.028946  0.022303
  0N   1dx2y2     0.002054  0.013628 -0.024029 -0.005417  0.021650  0.015054
  0N   1dxy       0.001430 -0.011006  0.024466  0.032561  0.019232  0.029585
  1H   1s         0.088468  0.000610 -0.053970 -0.052386 -0.013490 -0.029705
  1H   2s        -0.436944  0.019234  0.282706  0.667849  0.082698  0.698335
  1H   3s        -1.699673 -0.013485  2.351797  0.442982  0.100403  0.170957
  1H   4s        -0.670231 -0.109169 -1.300121 -0.062895 -0.664604 -1.030269
  1H   1pz        0.022291 -0.026211 -0.009700  0.107341 -0.121282 -0.024926
  1H   1px        0.063722  0.002853 -0.103044 -0.073888 -0.039985  0.181260
  1H   1py       -0.004559  0.016028  0.006355  0.105364  0.112523 -0.018472
  2H   1s         0.031796 -0.034896  0.029812 -0.031122 -0.034002 -0.005215
  2H   2s        -0.115181  0.186012 -0.336352  0.529296 -0.075356  0.107041
  2H   3s        -0.619646  0.750430 -0.975054 -0.087245  0.296525 -0.161373
  2H   4s         0.241457 -1.416892  0.876613 -0.429027  0.104826  0.316946
  2H   1pz        0.043927 -0.032047  0.020137 -0.172458  0.028008 -0.035625
  2H   1px       -0.026400  0.046078 -0.058254  0.045530 -0.007254 -0.004108
  2H   1py       -0.065489  0.108266 -0.129240  0.121411  0.055780  0.041550
  3H   1s         0.027442  0.040647  0.027969 -0.048519  0.009788 -0.012985
  3H   2s        -0.150458 -0.206795 -0.303436  0.361647  0.327485  0.189991
  3H   3s        -0.582442 -0.966232 -0.973222  0.191046 -0.247386 -0.158527
  3H   4s        -0.170939  1.457617  0.712365 -0.344105 -0.258582 -0.388061
  3H   1pz       -0.071554 -0.132379 -0.126262  0.170159  0.063384  0.053615
  3H   1px       -0.019150 -0.029758 -0.029352 -0.004433  0.018833  0.016018
  3H   1py        0.026195 -0.013282 -0.030670 -0.077151 -0.076384 -0.046246
  4O   1s         0.012276  0.001861 -0.003449 -0.001008 -0.001152  0.017703
  4O   2s         0.024653  0.003854 -0.006623 -0.004400 -0.000558  0.033659
  4O   1pz        0.033325  0.037101 -0.012771 -0.133251  0.140914  0.085385
  4O   1px        0.068692 -0.006332 -0.028877 -0.069657 -0.047754 -0.150561
  4O   1py        0.011645 -0.011902  0.003215 -0.039447 -0.186193  0.146541
  4O   3s        -0.166946 -0.031143  0.040440  0.108541 -0.067273 -0.212700
  4O   2pz        0.070534  0.099483 -0.026422 -0.381555  0.417664  0.246973
  4O   2px        0.175684 -0.016683 -0.069461 -0.256838 -0.148758 -0.560449
  4O   2py        0.036257 -0.036928  0.014061 -0.116838 -0.599938  0.500879
  4O   4s         0.403100  0.091612 -0.144602 -0.703333  0.570178  0.452213
  4O   3pz       -0.033201 -0.185280  0.004617  1.120478 -1.349811 -1.022718
  4O   3px       -0.359671  0.038271  0.152337  0.533350  0.449491  1.611775
  4O   3py       -0.038386  0.068683 -0.064339  0.196670  1.109525 -1.078900
  4O   5s         0.158839 -0.243848 -1.469255  0.402759 -0.740780 -0.544608
  4O   4pz        0.320222  0.191585  0.140140 -0.800466  0.988334  0.774404
  4O   4px       -0.016515  0.023230  0.643219 -0.074319 -0.326203 -1.042721
  4O   4py        0.202158 -0.033343 -0.166025 -0.234357 -0.598591  0.563102
  4O   1dz2       0.000546  0.006686  0.003804 -0.009012  0.004363 -0.012396
  4O   1dxz       0.002004  0.007487  0.001669 -0.007227  0.009245 -0.006367
  4O   1dyz      -0.000532 -0.001174  0.001079  0.005767 -0.000435  0.001939
  4O   1dx2y2     0.024029 -0.001574 -0.008844 -0.007770 -0.008616  0.016755
  4O   1dxy       0.006486 -0.005792  0.002734 -0.014566 -0.004952 -0.019867
  5H   1s         0.012970  0.002421 -0.001289  0.012227 -0.021753 -0.018678
  5H   2s         0.265441  0.040059 -0.060553  0.559470 -0.736733 -0.579678
  5H   3s        -0.057060  0.074576  0.289137 -0.681778  0.764294  0.375485
  5H   4s         0.462786  0.064158  0.068605  0.050169  0.465427  0.974588
  5H   1pz       -0.024632 -0.034701  0.006641  0.161099 -0.191344 -0.160474
  5H   1px        0.015354 -0.015491 -0.012903 -0.025395 -0.007812  0.099141
  5H   1py        0.015029 -0.008048  0.002723 -0.033957  0.018001 -0.056652
                     36        37        38        39        40        41   
                   1.13566   1.19233   1.25228   1.40971   1.41355   1.52534
                   0.00000   0.00000   0.00000   0.00000   0.00000   0.00000
                  --------  --------  --------  --------  --------  --------
  0N   1s         0.056632  0.014696 -0.011481 -0.006347  0.001555 -0.010398
  0N   2s         0.122201  0.031845 -0.025669 -0.013637  0.004675 -0.022425
  0N   1pz       -0.007354  0.004613  0.006323  0.004074 -0.000800  0.007410
  0N   1px       -0.033543 -0.012005  0.002366 -0.006281 -0.007636  0.039542
  0N   1py       -0.007799 -0.006608  0.001466  0.004291  0.004114 -0.001500
  0N   3s        -1.122135 -0.293862  0.253255  0.120302 -0.095447  0.183452
  0N   2pz       -0.069454 -0.043035  0.053103  0.062054  0.025390  0.028158
  0N   2px       -0.127885 -0.049504  0.061223  0.048784  0.056451  0.014744
  0N   2py       -0.114261 -0.016946  0.041273  0.003832  0.043506 -0.096729
  0N   4s         2.781501  0.761053 -0.835393 -0.250800  0.460593 -0.194219
  0N   3pz       -0.063096  0.284887 -0.442996 -0.119944 -0.170461  0.134271
  0N   3px        0.429267  0.179958 -0.794051 -0.045806 -0.184247  0.186318
  0N   3py        0.052616 -0.121539 -0.444821  0.110525 -0.271328  0.274008
  0N   5s        -3.620973 -0.633247  0.462688  0.311620 -0.195423  0.334081
  0N   4pz        0.226018 -0.146719 -0.271775  0.130745  0.152832 -0.230883
  0N   4px       -0.675164 -0.036841 -0.181616  0.140133  0.250796 -0.041354
  0N   4py        0.264881  0.219258 -0.408618  0.159250  0.302267 -0.225224
  0N   1dz2      -0.006660  0.060448  0.031757 -0.025629  0.011918  0.016738
  0N   1dxz       0.023616 -0.209011 -0.124205 -0.024867 -0.034932  0.017739
  0N   1dyz       0.024653  0.104928 -0.207754  0.018416 -0.038039  0.039058
  0N   1dx2y2    -0.071099  0.068272  0.114866  0.025044  0.015781 -0.063148
  0N   1dxy      -0.028047  0.131791 -0.117942  0.023597 -0.047684 -0.029278
  1H   1s        -0.010062  0.004358 -0.018570  0.013256 -0.002311 -0.001481
  1H   2s        -0.182743 -0.058584  0.379041 -0.018415  0.094895 -0.648100
  1H   3s        -0.624312 -0.584249  2.910352 -0.835224 -0.885947  0.759585
  1H   4s         1.266896  0.276494  0.649326 -0.959412 -0.631214  0.705363
  1H   1pz        0.129684 -0.252785 -0.195506  0.323690  0.097020  0.366643
  1H   1px        0.250250  0.077893  0.036653  0.001403  0.115069 -0.186035
  1H   1py       -0.048669  0.218713 -0.351691 -0.109966  0.117973 -0.325576
  2H   1s        -0.010934 -0.000936  0.012216  0.015838 -0.026177  0.030895
  2H   2s        -0.542592 -0.296815 -0.162791  0.139573 -0.253136  0.121461
  2H   3s         0.786396  0.386594 -0.595629  0.041203  0.326259 -0.112897
  2H   4s        -0.057325  0.094017 -0.208826  0.141089  0.214308 -0.195651
  2H   1pz       -0.048244  0.068345  0.452420 -0.127571  0.139530 -0.362577
  2H   1px        0.135946 -0.434790  0.000454 -0.197494  0.137324 -0.361899
  2H   1py       -0.216382  0.181717  0.222970  0.055407  0.009737 -0.082447
  3H   1s        -0.024095 -0.004162  0.003421 -0.051837 -0.011763  0.029621
  3H   2s        -0.674114  0.041420 -0.172801  0.068840 -0.246477  0.129143
  3H   3s         0.954272  0.044194 -0.621928  0.062157  0.252361 -0.252334
  3H   4s         0.087448 -0.082344 -0.185918  0.231083  0.173475 -0.209010
  3H   1pz       -0.128343 -0.121761 -0.006073 -0.011929 -0.009270 -0.043615
  3H   1px        0.021658  0.448534  0.213576  0.254470  0.133784  0.227230
  3H   1py       -0.049413 -0.330036  0.455572  0.021737  0.083168  0.144298
  4O   1s         0.010997  0.006636  0.017819 -0.051587 -0.027646  0.070623
  4O   2s         0.020089  0.012811  0.034303 -0.107232 -0.058089  0.149782
  4O   1pz       -0.075835 -0.038648 -0.039412  0.041259  0.011816  0.007611
  4O   1px       -0.132286 -0.007524 -0.032326  0.003641  0.013447  0.021385
  4O   1py       -0.097319  0.006562 -0.029991 -0.006885  0.010435 -0.016759
  4O   3s        -0.083286 -0.064993 -0.186830  0.819889  0.461387 -1.241508
  4O   2pz       -0.240542 -0.150132 -0.144820  0.233573  0.081973 -0.017313
  4O   2px       -0.457237 -0.026436 -0.147675  0.053592  0.044038  0.109709
  4O   2py       -0.307941  0.027682 -0.095558 -0.016877 -0.019923 -0.115253
  4O   4s        -0.062941 -0.045691  0.047806 -1.507022 -0.903789  2.655232
  4O   3pz        0.617650  0.561812  0.468189 -0.488448 -0.054445 -0.698407
  4O   3px        0.941056 -0.009153  0.556285 -0.419707 -0.137770 -0.316750
  4O   3py        0.573264 -0.031281  0.099631 -0.034314  0.387399  0.469182
  4O   5s         1.059432  0.396229 -2.104915  2.083156  1.325532 -2.660519
  4O   4pz       -0.575983 -0.193042 -0.140717  0.046540 -0.035501  0.594198
  4O   4px       -1.030134 -0.150053  0.585787 -0.303193 -0.200399  0.402054
  4O   4py       -0.239920 -0.013055 -0.304922  0.115094  0.052802 -0.243254
  4O   1dz2      -0.009450  0.015610 -0.000987 -0.049658 -0.010831 -0.004495
  4O   1dxz      -0.016103  0.022481  0.000090 -0.119527 -0.017702 -0.032480
  4O   1dyz       0.002192 -0.003765 -0.010553 -0.016497  0.127508  0.054940
  4O   1dx2y2     0.022272 -0.006215  0.036200  0.015826 -0.008830 -0.012878
  4O   1dxy      -0.000197 -0.016083  0.010674  0.020917 -0.042422  0.055397
  5H   1s         0.012046  0.038004  0.013892  0.007331  0.008139  0.006507
  5H   2s         0.264376  0.388347  0.310580  0.048010  0.175235 -1.023668
  5H   3s        -0.503035 -0.313485 -0.078281 -0.405370 -0.290094  1.232735
  5H   4s        -0.077133 -0.023567 -0.037350  0.036940  0.027195 -0.023169
  5H   1pz        0.065397  0.027053  0.037864  0.266729  0.103515 -0.199627
  5H   1px        0.139636 -0.086718  0.072209  0.669579  0.055146  0.048596
  5H   1py        0.025104 -0.026574  0.084029  0.198673 -0.918832 -0.267625
                     42        43        44        45        46        47   
                   1.58538   1.65689   1.69701   1.70142   1.94472   1.96619
                   0.00000   0.00000   0.00000   0.00000   0.00000   0.00000
                  --------  --------  --------  --------  --------  --------
  0N   1s         0.022141  0.011786  0.026333  0.024306  0.000211 -0.000652
  0N   2s         0.047911  0.024677  0.062222  0.056586  0.000269  0.002717
  0N   1pz       -0.010641 -0.008931 -0.014391 -0.007277 -0.119770  0.050648
  0N   1px       -0.047412 -0.016410  0.035848  0.022290  0.018434  0.109899
  0N   1py       -0.012830 -0.001799 -0.023797 -0.019813  0.079616  0.049417
  0N   3s        -0.386268 -0.176151 -0.605277 -0.534944  0.005644 -0.069874
  0N   2pz        0.037430 -0.044598  0.163932 -0.141832 -0.328964  0.148266
  0N   2px       -0.139460 -0.201132  0.010695 -0.017691  0.051245  0.315717
  0N   2py        0.007774 -0.102223 -0.000656  0.131525  0.219756  0.140589
  0N   4s         0.485720  0.110117  1.601986  1.304911 -0.045166  0.016226
  0N   3pz       -0.100857  0.056784 -0.979849  0.707788  0.010532 -0.005446
  0N   3px        0.189917  1.073589  0.453320  0.581477 -0.082906  0.192070
  0N   3py       -0.253663  0.580055 -0.212170 -0.875361 -0.038311  0.045831
  0N   5s        -0.780797 -0.044945  0.420669  0.525470 -0.118240 -0.946614
  0N   4pz        0.306382 -0.054466  0.442025 -0.425365 -0.417884  0.335267
  0N   4px       -0.172465 -0.544004  0.394026  0.214906  0.059027  0.003831
[...]
  384      -132.291174   -5.354751    0.001648  0.000671
  385      -132.291174   -5.354751    0.001648  0.000671
  386      -132.291174   -5.354751    0.001648  0.000671
  387      -132.291174   -5.354751    0.001648  0.000671
  388      -132.291174   -5.354751    0.001648  0.000671
  389      -132.291174   -5.354751    0.001648  0.000671
  390      -132.291174   -5.354751    0.001648  0.000671
  391      -132.291174   -5.354751    0.001648  0.000671
  392      -132.291174   -5.354751    0.001648  0.000671
  393      -132.291174   -5.354751    0.001648  0.000671
  394      -132.291174   -5.354751    0.001648  0.000671
  395      -132.291174   -5.354751    0.001648  0.000671
  396      -132.291174   -5.354751    0.001648  0.000671
  397      -132.291174   -5.354751    0.001648  0.000671
  398      -132.291174   -5.354751    0.001648  0.000671
  399      -132.291174   -5.354751    0.001648  0.000671
  400      -132.291174   -5.354751    0.001648  0.000671
  401      -132.291174   -5.354751    0.001648  0.000671
  402      -132.291174   -5.354751    0.001648  0.000671
  403      -132.291174   -5.354751    0.001648  0.000671
  404      -132.291174   -5.354751    0.001648  0.000671
  405      -132.291174   -5.354751    0.001648  0.000671
  406      -132.291174   -5.354751    0.001648  0.000671
  407      -132.291174   -5.354751    0.001648  0.000671
  408      -132.291174   -5.354751    0.001648  0.000671
  409      -132.291174   -5.354751    0.001648  0.000671
  410      -132.291174   -5.354751    0.001648  0.000671
  411      -132.291174   -5.354751    0.001648  0.000671
  412      -132.291174   -5.354751    0.001648  0.000671
  413      -132.291174   -5.354751    0.001648  0.000671
  414      -132.291174   -5.354751    0.001648  0.000671
  415      -132.291174   -5.354751    0.001648  0.000671
  416      -132.291174   -5.354751    0.001648  0.000671
  417      -132.291174   -5.354751    0.001648  0.000671
  418      -132.291174   -5.354751    0.001648  0.000671
  419      -132.291174   -5.354751    0.001648  0.000671
  420      -132.291174   -5.354751    0.001648  0.000671
  421      -132.291174   -5.354751    0.001648  0.000671
  422      -132.291174   -5.354751    0.001648  0.000671
  423      -132.291174   -5.354751    0.001648  0.000671
  424      -132.291174   -5.354751    0.001648  0.000671
  425      -132.291174   -5.354751    0.001648  0.000671
  426      -132.291174   -5.354751    0.001648  0.000671
  427      -132.291174   -5.354751    0.001648  0.000671
  428      -132.291174   -5.354751    0.001648  0.000671
  429      -132.291174   -5.354751    0.001648  0.000671
  430      -132.291174   -5.354751    0.001648  0.000671
  431      -132.291174   -5.354751    0.001648  0.000671
  432      -132.291174   -5.354751    0.001648  0.000671
  433      -132.291174   -5.354751    0.001648  0.000671
  434      -132.291174   -5.354751    0.001648  0.000671
  435      -132.291174   -5.354751    0.001648  0.000671
  436      -132.291174   -5.354751    0.001648  0.000671
  437      -132.291174   -5.354751    0.001648  0.000671
  438      -132.291174   -5.354751    0.001648  0.000671
  439      -132.291174   -5.354751    0.001648  0.000671
  440      -132.291174   -5.354751    0.001648  0.000671
  441      -132.291174   -5.354751    0.001648  0.000671
  442      -132.291174   -5.354751    0.001648  0.000671
  443      -132.291174   -5.354751    0.001648  0.000671
  444      -132.291174   -5.354751    0.001648  0.000671
  445      -132.291174   -5.354751    0.001648  0.000671
  446      -132.291174   -5.354751    0.001648  0.000671
  447      -132.291174   -5.354751    0.001648  0.000671
  448      -132.291174   -5.354751    0.001648  0.000671
  449      -132.291174   -5.354751    0.001648  0.000671
  450      -132.291174   -5.354751    0.001648  0.000671
  451      -132.291174   -5.354751    0.001648  0.000671
  452      -132.291174   -5.354751    0.001648  0.000671
  453      -132.291174   -5.354751    0.001648  0.000671
  454      -132.291174   -5.354751    0.001648  0.000671
  455      -132.291174   -5.354751    0.001648  0.000671
  456      -132.291174   -5.354751    0.001648  0.000671
  457      -132.291174   -5.354751    0.001648  0.000671
  458      -132.291174   -5.354751    0.001648  0.000671
  459      -132.291174   -5.354751    0.001648  0.000671
  460      -132.291174   -5.354751    0.001648  0.000671
  461      -132.291174   -5.354751    0.001648  0.000671
  462      -132.291174   -5.354751    0.001648  0.000671
  463      -132.291174   -5.354751    0.001648  0.000671
  464      -132.291174   -5.354751    0.001648  0.000671
  465      -132.291174   -5.354751    0.001648  0.000671
  466      -132.291174   -5.354751    0.001648  0.000671
  467      -132.291174   -5.354751    0.001648  0.000671
  468      -132.291174   -5.354751    0.001648  0.000671
  469      -132.291174   -5.354751    0.001648  0.000671
  470      -132.291174   -5.354751    0.001648  0.000671
  471      -132.291174   -5.354751    0.001648  0.000671
  472      -132.291174   -5.354751    0.001648  0.000671
  473      -132.291174   -5.354751    0.001648  0.000671
  474      -132.291174   -5.354751    0.001648  0.000671
  475      -132.291174   -5.354751    0.001648  0.000671
  476      -132.291174   -5.354751    0.001648  0.000671
  477      -132.291174   -5.354751    0.001648  0.000671
  478      -132.291174   -5.354751    0.001648  0.000671
  479      -132.291174   -5.354751    0.001648  0.000671
  480      -132.291174   -5.354751    0.001648  0.000671
  481      -132.291174   -5.354751    0.001648  0.000671
  482      -132.291174   -5.354751    0.001648  0.000671
  483      -132.291174   -5.354751    0.001648  0.000671
  484      -132.291174   -5.354751    0.001648  0.000671
  485      -132.291174   -5.354751    0.001648  0.000671
  486      -132.291174   -5.354751    0.001648  0.000671
  487      -132.291174   -5.354751    0.001648  0.000671
  488      -132.291174   -5.354751    0.001648  0.000671
  489      -132.291174   -5.354751    0.001648  0.000671
  490      -132.291174   -5.354751    0.001648  0.000671
  491      -132.291174   -5.354751    0.001648  0.000671
  492      -132.291174   -5.354751    0.001648  0.000671
  493      -132.291174   -5.354751    0.001648  0.000671
  494      -132.291174   -5.354751    0.001648  0.000671
  495      -132.291174   -5.354751    0.001648  0.000671
  496      -132.291174   -5.354751    0.001648  0.000671
  497      -132.291174   -5.354751    0.001648  0.000671
  498      -132.291174   -5.354751    0.001648  0.000671
  499      -132.291174   -5.354751    0.001648  0.000671
  500      -132.291174   -5.354751    0.001648  0.000671
  501      -132.291174   -5.354751    0.001648  0.000671
  502      -132.291174   -5.354751    0.001648  0.000671
  503      -132.291174   -5.354751    0.001648  0.000671
  504      -132.291174   -5.354751    0.001648  0.000671
  505      -132.291174   -5.354751    0.001648  0.000671
  506      -132.291174   -5.354751    0.001648  0.000671
  507      -132.291174   -5.354751    0.001648  0.000671
  508      -132.291174   -5.354751    0.001648  0.000671
  509      -132.291174   -5.354751    0.001648  0.000671
  510      -132.291174   -5.354751    0.001648  0.000671
  511      -132.291174   -5.354751    0.001648  0.000671
  512      -132.291174   -5.354751    0.001648  0.000671
  513      -132.291174   -5.354751    0.001648  0.000671
  514      -132.291174   -5.354751    0.001648  0.000671
  515      -132.291174   -5.354751    0.001648  0.000671
  516      -132.291174   -5.354751    0.001648  0.000671
  517      -132.291174   -5.354751    0.001648  0.000671
  518      -132.291174   -5.354751    0.001648  0.000671
  519      -132.291174   -5.354751    0.001648  0.000671
  520      -132.291174   -5.354751    0.001648  0.000671
  521      -132.291174   -5.354751    0.001648  0.000671
  522      -132.291174   -5.354751    0.001648  0.000671
  523      -132.291174   -5.354751    0.001648  0.000671
  524      -132.291174   -5.354751    0.001648  0.000671
  525      -132.291174   -5.354751    0.001648  0.000671
  526      -132.291174   -5.354751    0.001648  0.000671
  527      -132.291174   -5.354751    0.001648  0.000671
  528      -132.291174   -5.354751    0.001648  0.000671
  529      -132.291174   -5.354751    0.001648  0.000671
  530      -132.291174   -5.354751    0.001648  0.000671
  531      -132.291174   -5.354751    0.001648  0.000671
  532      -132.291174   -5.354751    0.001648  0.000671
  533      -132.291174   -5.354751    0.001648  0.000671
  534      -132.291174   -5.354751    0.001648  0.000671
  535      -132.291174   -5.354751    0.001648  0.000671
  536      -132.291174   -5.354751    0.001648  0.000671
  537      -132.291174   -5.354751    0.001648  0.000671
  538      -132.291174   -5.354751    0.001648  0.000671
  539      -132.291174   -5.354751    0.001648  0.000671
  540      -132.291174   -5.354751    0.001648  0.000671
  541      -132.291174   -5.354751    0.001648  0.000671
  542      -132.291174   -5.354751    0.001648  0.000671
  543      -132.291174   -5.354751    0.001648  0.000671
  544      -132.291174   -5.354751    0.001648  0.000671
  545      -132.291174   -5.354751    0.001648  0.000671
  546      -132.291174   -5.354751    0.001648  0.000671
  547      -132.291174   -5.354751    0.001648  0.000671
  548      -132.291174   -5.354751    0.001648  0.000671
  549      -132.291174   -5.354751    0.001648  0.000671
  550      -132.291174   -5.354751    0.001648  0.000671
  551      -132.291174   -5.354751    0.001648  0.000671
  552      -132.291174   -5.354751    0.001648  0.000671
  553      -132.291174   -5.354751    0.001648  0.000671
  554      -132.291174   -5.354751    0.001648  0.000671
  555      -132.291174   -5.354751    0.001648  0.000671
  556      -132.291174   -5.354751    0.001648  0.000671
  557      -132.291174   -5.354751    0.001648  0.000671
  558      -132.291174   -5.354751    0.001648  0.000671
  559      -132.291174   -5.354751    0.001648  0.000671
  560      -132.291174   -5.354751    0.001648  0.000671
  561      -132.291174   -5.354751    0.001648  0.000671
  562      -132.291174   -5.354751    0.001648  0.000671
  563      -132.291174   -5.354751    0.001648  0.000671
  564      -132.291174   -5.354751    0.001648  0.000671
  565      -132.291174   -5.354751    0.001648  0.000671
  566      -132.291174   -5.354751    0.001648  0.000671
  567      -132.291174   -5.354751    0.001648  0.000671
  568      -132.291174   -5.354751    0.001648  0.000671
  569      -132.291174   -5.354751    0.001648  0.000671
  570      -132.291174   -5.354751    0.001648  0.000671
  571      -132.291174   -5.354751    0.001648  0.000671
  572      -132.291174   -5.354751    0.001648  0.000671
  573      -132.291174   -5.354751    0.001648  0.000671
  574      -132.291174   -5.354751    0.001648  0.000671
  575      -132.291174   -5.354751    0.001648  0.000671
  576      -132.291174   -5.354751    0.001648  0.000671
  577      -132.291174   -5.354751    0.001648  0.000671
  578      -132.291174   -5.354751    0.001648  0.000671
  579      -132.291174   -5.354751    0.001648  0.000671
  580      -132.291174   -5.354751    0.001648  0.000671
  581      -132.291174   -5.354751    0.001648  0.000671
  582      -132.291174   -5.354751    0.001648  0.000671
  583      -132.291174   -5.354751    0.001648  0.000671
  584      -132.291174   -5.354751    0.001648  0.000671
  585      -132.291174   -5.354751    0.001648  0.000671
  586      -132.291174   -5.354751    0.001648  0.000671
  587      -132.291174   -5.354751    0.001648  0.000671
  588      -132.291174   -5.354751    0.001648  0.000671
  589      -132.291174   -5.354751    0.001648  0.000671
  590      -132.291174   -5.354751    0.001648  0.000671
  591      -132.291174   -5.354751    0.001648  0.000671
  592      -132.291174   -5.354751    0.001648  0.000671
  593      -132.291174   -5.354751    0.001648  0.000671
  594      -132.291174   -5.354751    0.001648  0.000671
  595      -132.291174   -5.354751    0.001648  0.000671
  596      -132.291174   -5.354751    0.001648  0.000671
  597      -132.291174   -5.354751    0.001648  0.000671
  598      -132.291174   -5.354751    0.001648  0.000671
  599      -132.291174   -5.354751    0.001648  0.000671
  600      -132.291174   -5.354751    0.001648  0.000671
  601      -132.291174   -5.354751    0.001648  0.000671
  602      -132.291174   -5.354751    0.001648  0.000671
  603      -132.291174   -5.354751    0.001648  0.000671
  604      -132.291174   -5.354751    0.001648  0.000671
  605      -132.291174   -5.354751    0.001648  0.000671
  606      -132.291174   -5.354751    0.001648  0.000671
  607      -132.291174   -5.354751    0.001648  0.000671
  608      -132.291174   -5.354751    0.001648  0.000671
  609      -132.291174   -5.354751    0.001648  0.000671
  610      -132.291174   -5.354751    0.001648  0.000671
  611      -132.291174   -5.354751    0.001648  0.000671
  612      -132.291174   -5.354751    0.001648  0.000671
  613      -132.291174   -5.354751    0.001648  0.000671
  614      -132.291174   -5.354751    0.001648  0.000671
  615      -132.291174   -5.354751    0.001648  0.000671
  616      -132.291174   -5.354751    0.001648  0.000671
  617      -132.291174   -5.354751    0.001648  0.000671
  618      -132.291174   -5.354751    0.001648  0.000671
  619      -132.291174   -5.354751    0.001648  0.000671
  620      -132.291174   -5.354751    0.001648  0.000671
  621      -132.291174   -5.354751    0.001648  0.000671
  622      -132.291174   -5.354751    0.001648  0.000671
  623      -132.291174   -5.354751    0.001648  0.000671
  624      -132.291174   -5.354751    0.001648  0.000671
  625      -132.291174   -5.354751    0.001648  0.000671
  626      -132.291174   -5.354751    0.001648  0.000671
  627      -132.291174   -5.354751    0.001648  0.000671
  628      -132.291174   -5.354751    0.001648  0.000671
  629      -132.291174   -5.354751    0.001648  0.000671
  630      -132.291174   -5.354751    0.001648  0.000671
  631      -132.291174   -5.354751    0.001648  0.000671
  632      -132.291174   -5.354751    0.001648  0.000671
  633      -132.291174   -5.354751    0.001648  0.000671
  634      -132.291174   -5.354751    0.001648  0.000671
  635      -132.291174   -5.354751    0.001648  0.000671
  636      -132.291174   -5.354751    0.001648  0.000671
  637      -132.291174   -5.354751    0.001648  0.000671
  638      -132.291174   -5.354751    0.001648  0.000671
  639      -132.291174   -5.354751    0.001648  0.000671
  640      -132.291174   -5.354751    0.001648  0.000671
  641      -132.291174   -5.354751    0.001648  0.000671
  642      -132.291174   -5.354751    0.001648  0.000671
  643      -132.291174   -5.354751    0.001648  0.000671
  644      -132.291174   -5.354751    0.001648  0.000671
  645      -132.291174   -5.354751    0.001648  0.000671
  646      -132.291174   -5.354751    0.001648  0.000671
  647      -132.291174   -5.354751    0.001648  0.000671
  648      -132.291174   -5.354751    0.001648  0.000671
  649      -132.291174   -5.354751    0.001648  0.000671
  650      -132.291174   -5.354751    0.001648  0.000671
  651      -132.291174   -5.354751    0.001648  0.000671
  652      -132.291174   -5.354751    0.001648  0.000671
  653      -132.291174   -5.354751    0.001648  0.000671
  654      -132.291174   -5.354751    0.001648  0.000671
  655      -132.291174   -5.354751    0.001648  0.000671
  656      -132.291174   -5.354751    0.001648  0.000671
  657      -132.291174   -5.354751    0.001648  0.000671
  658      -132.291174   -5.354751    0.001648  0.000671
  659      -132.291174   -5.354751    0.001648  0.000671
  660      -132.291174   -5.354751    0.001648  0.000671
  661      -132.291174   -5.354751    0.001648  0.000671
  662      -132.291174   -5.354751    0.001648  0.000671
  663      -132.291174   -5.354751    0.001648  0.000671
  664      -132.291174   -5.354751    0.001648  0.000671
  665      -132.291174   -5.354751    0.001648  0.000671
  666      -132.291174   -5.354751    0.001648  0.000671
  667      -132.291174   -5.354751    0.001648  0.000671
  668      -132.291174   -5.354751    0.001648  0.000671
  669      -132.291174   -5.354751    0.001648  0.000671
  670      -132.291174   -5.354751    0.001648  0.000671
  671      -132.291174   -5.354751    0.001648  0.000671
  672      -132.291174   -5.354751    0.001648  0.000671
  673      -132.291174   -5.354751    0.001648  0.000671
  674      -132.291174   -5.354751    0.001648  0.000671
  675      -132.291174   -5.354751    0.001648  0.000671
  676      -132.291174   -5.354751    0.001648  0.000671
  677      -132.291174   -5.354751    0.001648  0.000671
  678      -132.291174   -5.354751    0.001648  0.000671
  679      -132.291174   -5.354751    0.001648  0.000671
  680      -132.291174   -5.354751    0.001648  0.000671
  681      -132.291174   -5.354751    0.001648  0.000671
  682      -132.291174   -5.354751    0.001648  0.000671
  683      -132.291174   -5.354751    0.001648  0.000671
  684      -132.291174   -5.354751    0.001648  0.000671
  685      -132.291174   -5.354751    0.001648  0.000671
  686      -132.291174   -5.354751    0.001648  0.000671
  687      -132.291174   -5.354751    0.001648  0.000671
  688      -132.291174   -5.354751    0.001648  0.000671
  689      -132.291174   -5.354751    0.001648  0.000671
  690      -132.291174   -5.354751    0.001648  0.000671
  691      -132.291174   -5.354751    0.001648  0.000671
  692      -132.291174   -5.354751    0.001648  0.000671
  693      -132.291174   -5.354751    0.001648  0.000671
  694      -132.291174   -5.354751    0.001648  0.000671
  695      -132.291174   -5.354751    0.001648  0.000671
  696      -132.291174   -5.354751    0.001648  0.000671
  697      -132.291174   -5.354751    0.001648  0.000671
  698      -132.291174   -5.354751    0.001648  0.000671
  699      -132.291174   -5.354751    0.001648  0.000671
  700      -132.291174   -5.354751    0.001648  0.000671
  701      -132.291174   -5.354751    0.001648  0.000671
  702      -132.291174   -5.354751    0.001648  0.000671
  703      -132.291174   -5.354751    0.001648  0.000671
  704      -132.291174   -5.354751    0.001648  0.000671
  705      -132.291174   -5.354751    0.001648  0.000671
  706      -132.291174   -5.354751    0.001648  0.000671
  707      -132.291174   -5.354751    0.001648  0.000671
  708      -132.291174   -5.354751    0.001648  0.000671
  709      -132.291174   -5.354751    0.001648  0.000671
  710      -132.291174   -5.354751    0.001648  0.000671
  711      -132.291174   -5.354751    0.001648  0.000671
  712      -132.291174   -5.354751    0.001648  0.000671
  713      -132.291174   -5.354751    0.001648  0.000671
  714      -132.291174   -5.354751    0.001648  0.000671
  715      -132.291174   -5.354751    0.001648  0.000671
  716      -132.291174   -5.354751    0.001648  0.000671
  717      -132.291174   -5.354751    0.001648  0.000671
  718      -132.291174   -5.354751    0.001648  0.000671
  719      -132.291174   -5.354751    0.001648  0.000671
  720      -132.291174   -5.354751    0.001648  0.000671
  721      -132.291174   -5.354751    0.001648  0.000671
  722      -132.291174   -5.354751    0.001648  0.000671
  723      -132.291174   -5.354751    0.001648  0.000671
  724      -132.291174   -5.354751    0.001648  0.000671
  725      -132.291174   -5.354751    0.001648  0.000671
  726      -132.291174   -5.354751    0.001648  0.000671
  727      -132.291174   -5.354751    0.001648  0.000671
  728      -132.291174   -5.354751    0.001648  0.000671
  729      -132.291174   -5.354751    0.001648  0.000671
  730      -132.291174   -5.354751    0.001648  0.000671
  731      -132.291174   -5.354751    0.001648  0.000671
  732      -132.291174   -5.354751    0.001648  0.000671
  733      -132.291174   -5.354751    0.001648  0.000671
