
                                 *****************
                                 * O   R   C   A *
                                 *****************

           --- An Ab Initio, DFT and Semiempirical electronic structure package ---

                  #######################################################
                  #                        -***-                        #
                  #          Department of theory and spectroscopy      #
                  #               Directorship: Frank Neese             #
                  #        Max Planck Institute fuer Kohlenforschung    #
                  #                Kaiser Wilhelm Platz 1               #
                  #                 D-45470 Muelheim/Ruhr               #
                  #                      Germany                        #
                  #                                                     #
                  #                  All rights reserved                #
                  #                        -***-                        #
                  #######################################################


                         Program Version 4.2.1 -  RELEASE  -


 With contributions from (in alphabetic order):
   Daniel Aravena         : Magnetic Suceptibility
   Michael Atanasov       : Ab Initio Ligand Field Theory (pilot matlab implementation)
   Alexander A. Auer      : GIAO ZORA, VPT2
   Ute Becker             : Parallelization
   Giovanni Bistoni       : ED, misc. LED, open-shell LED, HFLD
   Martin Brehm           : Molecular dynamics
   Dmytro Bykov           : SCF Hessian
   Vijay G. Chilkuri      : MRCI spin determinant printing, contributions to CSF-ICE
   Dipayan Datta          : RHF DLPNO-CCSD density
   Achintya Kumar Dutta   : EOM-CC, STEOM-CC
   Dmitry Ganyushin       : Spin-Orbit,Spin-Spin,Magnetic field MRCI
   Miquel Garcia          : C-PCM Hessian, Gaussian charge scheme
   Yang Guo               : DLPNO-NEVPT2, CIM, IAO-localization
   Andreas Hansen         : Spin unrestricted coupled pair/coupled cluster methods
   Benjamin Helmich-Paris : CASSCF linear response (MC-RPA)
   Lee Huntington         : MR-EOM, pCC
   Robert Izsak           : Overlap fitted RIJCOSX, COSX-SCS-MP3, EOM
   Christian Kollmar      : KDIIS, OOCD, Brueckner-CCSD(T), CCSD density
   Simone Kossmann        : Meta GGA functionals, TD-DFT gradient, OOMP2, MP2 Hessian
   Martin Krupicka        : AUTO-CI
   Lucas Lang             : DCDCAS
   Dagmar Lenk            : GEPOL surface, SMD
   Dimitrios Liakos       : Extrapolation schemes; Compound Job, initial MDCI parallelization
   Dimitrios Manganas     : Further ROCIS development; embedding schemes
   Dimitrios Pantazis     : SARC Basis sets
   Taras Petrenko         : DFT Hessian,TD-DFT gradient, ASA, ECA, R-Raman, ABS, FL, XAS/XES, NRVS
   Peter Pinski           : DLPNO-MP2, DLPNO-MP2 Gradient
   Christoph Reimann      : Effective Core Potentials
   Marius Retegan         : Local ZFS, SOC
   Christoph Riplinger    : Optimizer, TS searches, QM/MM, DLPNO-CCSD(T), (RO)-DLPNO pert. Triples
   Tobias Risthaus        : Range-separated hybrids, TD-DFT gradient, RPA, STAB
   Michael Roemelt        : Original ROCIS implementation
   Masaaki Saitow         : Open-shell DLPNO-CCSD energy and density
   Barbara Sandhoefer     : DKH picture change effects
   Avijit Sen             : IP-ROCIS
   Kantharuban Sivalingam : CASSCF convergence, NEVPT2, FIC-MRCI
   Bernardo de Souza      : ESD, SOC TD-DFT
   Georgi Stoychev        : AutoAux, RI-MP2 NMR
   Willem Van den Heuvel  : Paramagnetic NMR
   Boris Wezisla          : Elementary symmetry handling
   Frank Wennmohs         : Technical directorship


 We gratefully acknowledge several colleagues who have allowed us to
 interface, adapt or use parts of their codes:
   Stefan Grimme, W. Hujo, H. Kruse,             : VdW corrections, initial TS optimization,
                  C. Bannwarth                     DFT functionals, gCP, sTDA/sTD-DF
   Ed Valeev, F. Pavosevic, A. Kumar             : LibInt (2-el integral package), F12 methods
   Garnet Chan, S. Sharma, J. Yang, R. Olivares  : DMRG
   Ulf Ekstrom                                   : XCFun DFT Library
   Mihaly Kallay                                 : mrcc  (arbitrary order and MRCC methods)
   Andreas Klamt, Michael Diedenhofen            : otool_cosmo (COSMO solvation model)
   Jiri Pittner, Ondrej Demel                    : Mk-CCSD
   Frank Weinhold                                : gennbo (NPA and NBO analysis)
   Christopher J. Cramer and Donald G. Truhlar   : smd solvation model
   Lars Goerigk                                  : TD-DFT with DH, B97 family of functionals
   V. Asgeirsson, H. Jonsson                     : NEB implementation
   FAccTs GmbH                                   : IRC, NEB, NEB-TS, Multilevel, MM, QM/MM, CI optimization
   S Lehtola, MJT Oliveira, MAL Marques          : LibXC Library


 Your calculation uses the libint2 library for the computation of 2-el integrals
 For citations please refer to: http://libint.valeyev.net

 Your ORCA version has been built with support for libXC version: 4.2.3
 For citations please refer to: https://tddft.org/programs/libxc/

 This ORCA versions uses:
   CBLAS   interface :  Fast vector & matrix operations
   LAPACKE interface :  Fast linear algebra routines
   SCALAPACK package :  Parallel linear algebra routines




***************************************
The coordinates will be read from file: NH4+.xyz
***************************************


Your calculation utilizes the atom-pairwise dispersion correction
with the zero-damping scheme (D30)
Cite in your paper:
S.Grimme, J.Antony, S.Ehrlich and H.Krieg, J.Chem.Phys., 132, (2010), 154104 
   

Your calculation utilizes the SMD solvation module
Please cite in your paper:
A.V. Marenich, C.J. Cramer, D.G. Truhlar J. Phys. Chem. B, 113, (2009), 6378 

XCFun DFT library Copyright 2009-2010 Ulf Ekstrom and contributors.
See http://admol.org/xcfun for more information. This is free soft-
ware; see the source code for copying conditions. There is ABSOLUTELY
NO WARRANTY; not even for MERCHANTABILITY or FITNESS FOR A PARTICULAR
PURPOSE. For details see the documentation. Scientific users of this 
library should cite U. Ekstrom, L. Visscher, R. Bast, A. J. Thorvald-
sen and K. Ruud; J.Chem.Theor.Comp. 2010, DOI: 10.1021/ct100117s
XCFun Version 0.99 
----- Orbital basis set information -----
Your calculation utilizes the basis: 6-311++G(d,p)
   H, Li - Ne  : R. Krishnan, J. S. Binkley, R. Seeger and J. A. Pople, J. Chem. Phys. 72, 650 (1980).
   Na - Ar     : A. D. McLean and G. S. Chandler J. Chem. Phys. 72, 5639, (1980).
   K  - Ca     : J.-P. Blaudeau, M. P. McGrath, L. A. Curtiss and L. Radom, J. Chem. Phys. 107, 5016 (1997).
   Ga - Kr     : L. A. Curtiss, M. P. McGrath, J.-P. Blandeau, N. E. Davis, R. C. Binning and L. Radom, J. Chem. Phys. 103, 6104 (1995).
   Pol./Diff.
   H, Li - Cl  : T. Clark, J. Chandrasekhar and P. v. R. Schleyer, J. Comp. Chem. 4, 294 (1983).
   H - Ne      : M. J. Frisch, J. A. Pople and J. S. Binkley, J. Chem. Phys. 80, 3265 (1984).

================================================================================
                                        WARNINGS
                       Please study these warnings very carefully!
================================================================================


WARNING: The environment variable RSH_COMMAND is not set!
  ===> : All Displacements for the Numerical Hessian calculation
         will be started on localhost

WARNING: Geometry Optimization
  ===> : Switching off AutoStart
         For restart on a previous wavefunction, please use MOREAD

INFO   : the flag for use of LIBINT has been found!

================================================================================
                                       INPUT FILE
================================================================================
NAME = NH4+.inp
|  1> ! UHF M062X D3Zero 6-311++G(d,p) Opt NumFreq TightOpt TightSCF Grid6 NoFinalGrid PrintBasis PrintMOs NBO
|  2> 
|  3> %pal
|  4>  nprocs 12
|  5> end
|  6> 
|  7> %cpcm
|  8>  smd true
|  9>  smdsolvent "water"
| 10> end
| 11> 
| 12> *xyzfile +1 1 NH4+.xyz
| 13> 
| 14>                          ****END OF INPUT****
================================================================================

                       *****************************
                       * Geometry Optimization Run *
                       *****************************

Geometry optimization settings:
Update method            Update   .... BFGS
Choice of coordinates    CoordSys .... Z-matrix Internals
Initial Hessian          InHess   .... Almoef's Model

Convergence Tolerances:
Energy Change            TolE     ....  1.0000e-06 Eh
Max. Gradient            TolMAXG  ....  1.0000e-04 Eh/bohr
RMS Gradient             TolRMSG  ....  3.0000e-05 Eh/bohr
Max. Displacement        TolMAXD  ....  1.0000e-03 bohr
RMS Displacement         TolRMSD  ....  6.0000e-04 bohr
Strict Convergence                ....  False
------------------------------------------------------------------------------
                        ORCA OPTIMIZATION COORDINATE SETUP
------------------------------------------------------------------------------

The optimization will be done in new redundant internal coordinates
Making redundant internal coordinates   ...  (new redundants) done
Evaluating the initial hessian          ...  (Almloef) done
Evaluating the coordinates              ...  done
Calculating the B-matrix                .... done
Calculating the G-matrix                .... done
Diagonalizing the G-matrix              .... done
The first mode is                       ....    1
The number of degrees of freedom        ....    9

    -----------------------------------------------------------------
                    Redundant Internal Coordinates


    -----------------------------------------------------------------
         Definition                    Initial Value    Approx d2E/dq
    -----------------------------------------------------------------
      1. B(H   1,N   0)                  1.0286         0.404195   
      2. B(H   2,N   0)                  1.0285         0.404249   
      3. B(H   3,N   0)                  1.0284         0.404375   
      4. B(H   4,N   0)                  1.0284         0.404377   
      5. A(H   1,N   0,H   3)          109.4721         0.296768   
      6. A(H   2,N   0,H   3)          109.4911         0.296774   
      7. A(H   1,N   0,H   4)          109.4947         0.296768   
      8. A(H   2,N   0,H   4)          109.4791         0.296774   
      9. A(H   3,N   0,H   4)          109.4354         0.296789   
     10. A(H   1,N   0,H   2)          109.4550         0.296753   
    -----------------------------------------------------------------

Number of atoms                         .... 5
Number of degrees of freedom            .... 10

         *************************************************************
         *                GEOMETRY OPTIMIZATION CYCLE   1            *
         *************************************************************
---------------------------------
CARTESIAN COORDINATES (ANGSTROEM)
---------------------------------
  N     -4.189100   -0.412102    0.117983
  H     -3.161572   -0.403968    0.163239
  H     -4.522178   -1.383984    0.069461
  H     -4.499469    0.099180   -0.718640
  H     -4.573221    0.040544    0.957767

----------------------------
CARTESIAN COORDINATES (A.U.)
----------------------------
  NO LB      ZA    FRAG     MASS         X           Y           Z
   0 N     7.0000    0    14.007   -7.916251   -0.778759    0.222956
   1 H     1.0000    0     1.008   -5.974506   -0.763389    0.308476
   2 H     1.0000    0     1.008   -8.545678   -2.615351    0.131263
   3 H     1.0000    0     1.008   -8.502764    0.187423   -1.358033
   4 H     1.0000    0     1.008   -8.642135    0.076617    1.809918

--------------------------------
INTERNAL COORDINATES (ANGSTROEM)
--------------------------------
 N      0   0   0     0.000000000000     0.00000000     0.00000000
 H      1   0   0     1.028555599893     0.00000000     0.00000000
 H      1   2   0     1.028519217327   109.45502164     0.00000000
 H      1   2   3     1.028434257607   109.47212201   239.98504957
 H      1   2   3     1.028432827256   109.49469277   120.01405069

---------------------------
INTERNAL COORDINATES (A.U.)
---------------------------
 N      0   0   0     0.000000000000     0.00000000     0.00000000
 H      1   0   0     1.943688397309     0.00000000     0.00000000
 H      1   2   0     1.943619644224   109.45502164     0.00000000
 H      1   2   3     1.943459093620   109.47212201   239.98504957
 H      1   2   3     1.943456390648   109.49469277   120.01405069

---------------------
BASIS SET INFORMATION
---------------------
There are 2 groups of distinct atoms

 Group   1 Type N   : 12s6p1d contracted to 5s4p1d pattern {63111/3111/1}
 Group   2 Type H   : 6s1p contracted to 4s1p pattern {3111/1}

Atom   0N    basis set group =>   1
Atom   1H    basis set group =>   2
Atom   2H    basis set group =>   2
Atom   3H    basis set group =>   2
Atom   4H    basis set group =>   2

-------------------------
BASIS SET IN INPUT FORMAT
-------------------------

 # Basis set for element : H 
 NewGTO H 
 S 3 
   1      33.8650000000      0.0254938145
   2       5.0947900000      0.1903731086
   3       1.1587900000      0.8521614860
 S 1 
   1       0.3258400000      1.0000000000
 S 1 
   1       0.1027410000      1.0000000000
 S 1 
   1       0.0360000000      1.0000000000
 P 1 
   1       0.7500000000      1.0000000000
  end;

 # Basis set for element : N 
 NewGTO N 
 S 6 
   1    6293.4800000000      0.0019697881
   2     949.0440000000      0.0149612859
   3     218.7760000000      0.0735005308
   4      63.6916000000      0.2489367658
   5      18.8282000000      0.6024594331
   6       2.7202300000      0.2562017589
 S 3 
   1      30.6331000000      0.1119060795
   2       7.0261400000      0.9216666549
   3       2.1120500000     -0.0025691918
 P 3 
   1      30.6331000000      0.0383119186
   2       7.0261400000      0.2374031155
   3       2.1120500000      0.8175923978
 S 1 
   1       0.6840090000      1.0000000000
 P 1 
   1       0.6840090000      1.0000000000
 S 1 
   1       0.2008780000      1.0000000000
 P 1 
   1       0.2008780000      1.0000000000
 S 1 
   1       0.0639000000      1.0000000000
 P 1 
   1       0.0639000000      1.0000000000
 D 1 
   1       0.9130000000      1.0000000000
  end;



           ************************************************************
           *        Program running with 12 parallel MPI-processes    *
           *              working on a common directory               *
           ************************************************************
------------------------------------------------------------------------------
                           ORCA GTO INTEGRAL CALCULATION
------------------------------------------------------------------------------

                         BASIS SET STATISTICS AND STARTUP INFO

 # of primitive gaussian shells          ...   47
 # of primitive gaussian functions       ...   71
 # of contracted shells                  ...   30
 # of contracted basis functions         ...   50
 Highest angular momentum                ...    2
 Maximum contraction depth               ...    6
 Integral package used                   ... LIBINT
 Integral threshhold            Thresh   ...  2.500e-11
 Primitive cut-off              TCut     ...  2.500e-12


------------------------------ INTEGRAL EVALUATION ----------------------------


 * One electron integrals 
 Pre-screening matrix                    ... done
 Shell pair data                         ... done (   0.000 sec)



           ************************************************************
           *        Program running with 12 parallel MPI-processes    *
           *              working on a common directory               *
           ************************************************************
-------------------------------------------------------------------------------
                                 ORCA SCF
-------------------------------------------------------------------------------

------------
SCF SETTINGS
------------
Hamiltonian:
 Density Functional     Method          .... DFT(GTOs)
 Exchange Functional    Exchange        .... M062X
 Correlation Functional Correlation     .... M062X
 Gradients option       PostSCFGGA      .... off
 Hybrid DFT is turned on
   Fraction HF Exchange ScalHFX         ....  0.540000
   Scaling of DF-GGA-X  ScalDFX         ....  0.460000
   Scaling of DF-GGA-C  ScalDFC         ....  1.000000
   Scaling of DF-LDA-C  ScalLDAC        ....  1.000000
   Perturbative correction              ....  0.000000
   Density functional embedding theory  .... OFF


General Settings:
 Integral files         IntName         .... NH4+
 Hartree-Fock type      HFTyp           .... UHF
 Total Charge           Charge          ....    1
 Multiplicity           Mult            ....    1
 Number of Electrons    NEL             ....   10
 Basis Dimension        Dim             ....   50
 Nuclear Repulsion      ENuc            ....     16.2970538164 Eh

Convergence Acceleration:
 DIIS                   CNVDIIS         .... on
   Start iteration      DIISMaxIt       ....    12
   Startup error        DIISStart       ....  0.200000
   # of expansion vecs  DIISMaxEq       ....     5
   Bias factor          DIISBfac        ....   1.050
   Max. coefficient     DIISMaxC        ....  10.000
 Newton-Raphson         CNVNR           .... off
 SOSCF                  CNVSOSCF        .... off
 Level Shifting         CNVShift        .... on
   Level shift para.    LevelShift      ....    0.2500
   Turn off err/grad.   ShiftErr        ....    0.0010
 Zerner damping         CNVZerner       .... off
 Static damping         CNVDamp         .... on
   Fraction old density DampFac         ....    0.7000
   Max. Damping (<1)    DampMax         ....    0.9800
   Min. Damping (>=0)   DampMin         ....    0.0000
   Turn off err/grad.   DampErr         ....    0.1000
 Fernandez-Rico         CNVRico         .... off

SCF Procedure:
 Maximum # iterations   MaxIter         ....   125
 SCF integral mode      SCFMode         .... Direct
   Integral package                     .... LIBINT
 Reset frequency        DirectResetFreq ....    20
 Integral Threshold     Thresh          ....  2.500e-11 Eh
 Primitive CutOff       TCut            ....  2.500e-12 Eh

Convergence Tolerance:
 Convergence Check Mode ConvCheckMode   .... Total+1el-Energy
 Convergence forced     ConvForced      .... 0
 Energy Change          TolE            ....  1.000e-08 Eh
 1-El. energy change                    ....  1.000e-05 Eh
 DIIS Error             TolErr          ....  5.000e-07


Diagonalization of the overlap matrix:
Smallest eigenvalue                        ... 1.156e-03
Time for diagonalization                   ...    0.002 sec
Threshold for overlap eigenvalues          ... 1.000e-08
Number of eigenvalues below threshold      ... 0
Time for construction of square roots      ...    0.015 sec
Total time needed                          ...    0.018 sec

-------------------
DFT GRID GENERATION
-------------------

General Integration Accuracy     IntAcc      ...  5.340
Radial Grid Type                 RadialGrid  ... Gauss-Chebyshev
Angular Grid (max. acc.)         AngularGrid ... Lebedev-590
Angular grid pruning method      GridPruning ... 3 (G Style)
Weight generation scheme         WeightScheme... Becke
Basis function cutoff            BFCut       ...    1.0000e-11
Integration weight cutoff        WCut        ...    1.0000e-14
Grids for H and He will be reduced by one unit

# of grid points (after initial pruning)     ...  60460 (   0.0 sec)
# of grid points (after weights+screening)   ...  58645 (   0.1 sec)
nearest neighbour list constructed           ...    0.0 sec
Grid point re-assignment to atoms done       ...    0.0 sec
Grid point division into batches done        ...    1.0 sec
Reduced shell lists constructed in    1.0 sec

Total number of grid points                  ...    58645
Total number of batches                      ...      919
Average number of points per batch           ...       63
Average number of grid points per atom       ...    11729
Average number of shells per batch           ...    29.62 (98.72%)
Average number of basis functions per batch  ...    49.36 (98.72%)
Average number of large shells per batch     ...    29.60 (99.96%)
Average number of large basis fcns per batch ...    49.35 (99.97%)
Maximum spatial batch extension              ...   1.11,  1.07,  1.36 au
Average spatial batch extension              ...   0.05,  0.05,  0.05 au

Time for grid setup =    1.561 sec

------------------------------
INITIAL GUESS: MODEL POTENTIAL
------------------------------
Loading Hartree-Fock densities                     ... done
Calculating cut-offs                               ... done
Setting up the integral package                    ... done
Initializing the effective Hamiltonian             ... done
Starting the Coulomb interaction                   ... done (   0.0 sec)
Reading the grid                                   ... done
Mapping shells                                     ... done
Starting the XC term evaluation                    ... done (   0.2 sec)
  promolecular density results
     # of electrons  =     10.998041233
     EX              =     -7.745349006
     EC              =     -0.341372131
     EX+EC           =     -8.086721136
Transforming the Hamiltonian                       ... done (   0.0 sec)
Diagonalizing the Hamiltonian                      ... done (   0.0 sec)
Back transforming the eigenvectors                 ... done (   0.0 sec)
Now organizing SCF variables                       ... done
                      ------------------
                      INITIAL GUESS DONE (   2.1 sec)
                      ------------------

--------------------
CPCM SOLVATION MODEL
--------------------
CPCM parameters:
  Epsilon                                         ...      78.3550
  Refrac                                          ...       1.0000
  Rsolv                                           ...       1.3000
  Surface type                                    ...    GEPOL SES
  Epsilon function type                           ...         CPCM
Solvent:                                     ... WATER
SMD-CDS solvent descriptors:
  Soln                                       ...    1.3328
  Soln25                                     ...    1.3323
  Sola                                       ...    0.0000
  Solb                                       ...    0.0000
  Solg                                       ...    0.0000
  Solc                                       ...    0.0000
  Solh                                       ...    0.0000
Radii:
 Radius for N  used is    3.5716 Bohr (=   1.8900 Ang.)
 Radius for H  used is    2.2677 Bohr (=   1.2000 Ang.)
Calculating surface                               ...        done! (  0.0s)
GEPOL surface points                              ...          160
GEPOL Volume                                      ...     211.9260
GEPOL Surface-area                                ...     175.7343
Calculating surface distance matrix               ...        done! (  0.0s)
Performing Cholesky decomposition & store         ...        done! (  0.0s)
Overall time for CPCM initialization              ...                 0.0s
--------------
SCF ITERATIONS
--------------
ITER       Energy         Delta-E        Max-DP      RMS-DP      [F,P]     Damp
               ***  Starting incremental Fock matrix formation  ***
  0    -56.9847677185   0.000000000000 0.02341874  0.00073637  0.1976532 0.7000
  1    -56.9990678032  -0.014300084643 0.01410991  0.00046330  0.1026731 0.7000
                               ***Turning on DIIS***
  2    -57.0053070732  -0.006239269979 0.02152304  0.00074926  0.0433392 0.0000
  3    -57.0147063194  -0.009399246264 0.00955284  0.00031997  0.0465870 0.0000
  4    -57.0167124064  -0.002006086951 0.00049535  0.00004395  0.0045966 0.0000
  5    -57.0167432917  -0.000030885345 0.00025820  0.00001854  0.0007794 0.0000
  6    -57.0167448549  -0.000001563193 0.00005358  0.00000261  0.0000669 0.0000
  7    -57.0167448658  -0.000000010909 0.00000706  0.00000036  0.0000086 0.0000
                 **** Energy Check signals convergence ****

               *****************************************************
               *                     SUCCESS                       *
               *           SCF CONVERGED AFTER   8 CYCLES          *
               *****************************************************


SMD CDS free energy correction energy :                 2.95497     Kcal/mol
Total Energy after SMD CDS correction =               -57.012035828 Eh

----------------
TOTAL SCF ENERGY
----------------

Total Energy       :          -57.01203583 Eh           -1551.37637 eV

Components:
Nuclear Repulsion  :           16.29705382 Eh             443.46538 eV
Electronic Energy  :          -73.30908964 Eh           -1994.84175 eV
One Electron Energy:         -104.83427103 Eh           -2852.68554 eV
Two Electron Energy:           31.52518138 Eh             857.84380 eV
CPCM Dielectric    :           -0.13540667 Eh              -3.68460 eV
SMD CDS (Gcds)     :            0.00470904 Eh               0.12814 eV

Virial components:
Potential Energy   :         -113.64381789 Eh           -3092.40550 eV
Kinetic Energy     :           56.63178207 Eh            1541.02913 eV
Virial Ratio       :            2.00671449


DFT components:
N(Alpha)           :        4.999999882863 electrons
N(Beta)            :        4.999999882863 electrons
N(Total)           :        9.999999765725 electrons
E(XC)              :       -3.898485358673 Eh       
DFET-embed. en.    :        0.000000000000 Eh       
CPCM Solvation Model Properties:
Surface-charge          :           -1.00692749
Charge-correction       :            0.00093157 Eh               0.02535 eV
Free-energy (cav+disp)  :            0.00263559 Eh               0.07172 eV
Corrected G(solv)       :          -57.00846866 Eh           -1551.27930 eV

---------------
SCF CONVERGENCE
---------------

  Last Energy change         ...   -1.5545e-10  Tolerance :   1.0000e-08
  Last MAX-Density change    ...    2.8417e-07  Tolerance :   1.0000e-07
  Last RMS-Density change    ...    1.7736e-08  Tolerance :   5.0000e-09
  Last DIIS Error            ...    7.3130e-07  Tolerance :   5.0000e-07

             **** THE GBW FILE WAS UPDATED (NH4+.gbw) ****
             **** DENSITY FILE WAS UPDATED (NH4+.scfp) ****
             **** ENERGY FILE WAS UPDATED (NH4+.en.tmp) ****
----------------------
UHF SPIN CONTAMINATION
----------------------

Warning: in a DFT calculation there is little theoretical justification to 
         calculate <S**2> as in Hartree-Fock theory. We will do it anyways
         but you should keep in mind that the values have only limited relevance

Expectation value of <S**2>     :    -0.000000
Ideal value S*(S+1) for S=0.0   :     0.000000
Deviation                       :    -0.000000

             **** THE GBW FILE WAS UPDATED (NH4+.gbw) ****
             **** DENSITY FILE WAS UPDATED (NH4+.scfp) ****
----------------
ORBITAL ENERGIES
----------------
                 SPIN UP ORBITALS
  NO   OCC          E(Eh)            E(eV) 
   0   1.0000     -14.853358      -404.1804 
   1   1.0000      -1.085732       -29.5443 
   2   1.0000      -0.629114       -17.1191 
   3   1.0000      -0.629010       -17.1162 
   4   1.0000      -0.628952       -17.1147 
   5   0.0000      -0.003768        -0.1025 
   6   0.0000       0.041812         1.1378 
   7   0.0000       0.041826         1.1382 
   8   0.0000       0.041861         1.1391 
   9   0.0000       0.138867         3.7788 
  10   0.0000       0.138902         3.7797 
  11   0.0000       0.138919         3.7802 
  12   0.0000       0.146412         3.9841 
  13   0.0000       0.206954         5.6315 
  14   0.0000       0.207005         5.6329 
  15   0.0000       0.207034         5.6337 
  16   0.0000       0.299031         8.1371 
  17   0.0000       0.476634        12.9699 
  18   0.0000       0.476720        12.9722 
  19   0.0000       0.476781        12.9739 
  20   0.0000       0.738690        20.1008 
  21   0.0000       0.775219        21.0948 
  22   0.0000       0.775265        21.0960 
  23   0.0000       0.775322        21.0976 
  24   0.0000       1.023448        27.8494 
  25   0.0000       1.023857        27.8606 
  26   0.0000       1.035083        28.1660 
  27   0.0000       1.496285        40.7160 
  28   0.0000       1.496409        40.7194 
  29   0.0000       1.496545        40.7231 
  30   0.0000       1.765669        48.0463 
  31   0.0000       1.765845        48.0511 
  32   0.0000       1.765859        48.0515 
  33   0.0000       2.076210        56.4966 
  34   0.0000       2.076316        56.4994 
  35   0.0000       2.076447        56.5030 
  36   0.0000       2.391022        65.0630 
  37   0.0000       2.538605        69.0790 
  38   0.0000       2.539067        69.0915 
  39   0.0000       2.539332        69.0987 
  40   0.0000       2.645815        71.9963 
  41   0.0000       2.645954        72.0001 
  42   0.0000       2.985498        81.2395 
  43   0.0000       3.003524        81.7300 
  44   0.0000       3.003798        81.7375 
  45   0.0000       3.004119        81.7462 
  46   0.0000       4.724370       128.5566 
  47   0.0000       4.724721       128.5662 
  48   0.0000       4.725242       128.5804 
  49   0.0000      35.649618       970.0754 

                 SPIN DOWN ORBITALS
  NO   OCC          E(Eh)            E(eV) 
   0   1.0000     -14.853358      -404.1804 
   1   1.0000      -1.085732       -29.5443 
   2   1.0000      -0.629114       -17.1191 
   3   1.0000      -0.629010       -17.1162 
   4   1.0000      -0.628952       -17.1147 
   5   0.0000      -0.003768        -0.1025 
   6   0.0000       0.041812         1.1378 
   7   0.0000       0.041826         1.1382 
   8   0.0000       0.041861         1.1391 
   9   0.0000       0.138867         3.7788 
  10   0.0000       0.138902         3.7797 
  11   0.0000       0.138919         3.7802 
  12   0.0000       0.146412         3.9841 
  13   0.0000       0.206954         5.6315 
  14   0.0000       0.207005         5.6329 
  15   0.0000       0.207034         5.6337 
  16   0.0000       0.299031         8.1371 
  17   0.0000       0.476634        12.9699 
  18   0.0000       0.476720        12.9722 
  19   0.0000       0.476781        12.9739 
  20   0.0000       0.738690        20.1008 
  21   0.0000       0.775219        21.0948 
  22   0.0000       0.775265        21.0960 
  23   0.0000       0.775322        21.0976 
  24   0.0000       1.023448        27.8494 
  25   0.0000       1.023857        27.8606 
  26   0.0000       1.035083        28.1660 
  27   0.0000       1.496285        40.7160 
  28   0.0000       1.496409        40.7194 
  29   0.0000       1.496545        40.7231 
  30   0.0000       1.765669        48.0463 
  31   0.0000       1.765845        48.0511 
  32   0.0000       1.765859        48.0515 
  33   0.0000       2.076210        56.4966 
  34   0.0000       2.076316        56.4994 
  35   0.0000       2.076447        56.5030 
  36   0.0000       2.391022        65.0630 
  37   0.0000       2.538605        69.0790 
  38   0.0000       2.539067        69.0915 
  39   0.0000       2.539332        69.0987 
  40   0.0000       2.645815        71.9963 
  41   0.0000       2.645954        72.0001 
  42   0.0000       2.985498        81.2395 
  43   0.0000       3.003524        81.7300 
  44   0.0000       3.003798        81.7375 
  45   0.0000       3.004119        81.7462 
  46   0.0000       4.724370       128.5566 
  47   0.0000       4.724721       128.5662 
  48   0.0000       4.725242       128.5804 
  49   0.0000      35.649618       970.0754 
------------------
MOLECULAR ORBITALS
------------------
                      0         1         2         3         4         5   
                 -14.85336  -1.08573  -0.62911  -0.62901  -0.62895  -0.00377
                   1.00000   1.00000   1.00000   1.00000   1.00000   0.00000
                  --------  --------  --------  --------  --------  --------
  0N   1s        -0.558854 -0.112802  0.000000  0.000000 -0.000003  0.033911
  0N   2s        -0.465727 -0.183593  0.000000  0.000000 -0.000005  0.058306
  0N   1pz       -0.000000 -0.000004  0.010226  0.108620  0.206244  0.000002
  0N   1px       -0.000000 -0.000010 -0.124189 -0.172140  0.096821 -0.000046
  0N   1py        0.000000  0.000008  0.197231 -0.114022  0.050270  0.000065
  0N   3s        -0.010044  0.504278  0.000008  0.000001  0.000015 -0.203345
  0N   2pz        0.000000 -0.000005  0.015588  0.165589  0.314406  0.000002
  0N   2px        0.000001 -0.000013 -0.189322 -0.262409  0.147595 -0.000082
  0N   2py       -0.000001  0.000012  0.300665 -0.173814  0.076632  0.000116
  0N   4s         0.000153  0.334342 -0.000035 -0.000019  0.000020 -0.257107
  0N   3pz        0.000000 -0.000004  0.010813  0.114787  0.218044 -0.000003
  0N   3px        0.000000  0.000008 -0.131250 -0.181946  0.102361 -0.000074
  0N   3py       -0.000000 -0.000010  0.208435 -0.120518  0.053154  0.000113
  0N   5s         0.004754  0.083357  0.000027 -0.000012 -0.000001 -1.975251
  0N   4pz       -0.000000 -0.000004  0.000195  0.002042  0.003912 -0.000019
  0N   4px       -0.000001 -0.000011 -0.002334 -0.003268  0.001830 -0.000088
  0N   4py        0.000001  0.000016  0.003700 -0.002171  0.000959  0.000193
  0N   1dz2       0.000000 -0.000007  0.014967  0.000585 -0.000916 -0.000007
  0N   1dxz       0.000000 -0.000002 -0.001895 -0.005746 -0.008355 -0.000002
  0N   1dyz       0.000000  0.000000 -0.000694  0.007923  0.011767 -0.000001
  0N   1dx2y2     0.000000 -0.000004 -0.001639 -0.013766  0.009432 -0.000002
  0N   1dxy       0.000001 -0.000009 -0.008560  0.004292 -0.002509 -0.000004
  1H   1s        -0.000244  0.078274 -0.092128 -0.126895  0.080188  0.013853
  1H   2s         0.001888  0.075827 -0.110150 -0.151771  0.095916  0.021166
  1H   3s        -0.002113 -0.033614 -0.009160 -0.012574  0.007971  0.325642
  1H   4s        -0.000021  0.000001 -0.012178 -0.016760  0.010602  0.508828
  1H   1pz       -0.000045 -0.000881  0.001428  0.007289  0.010858  0.000748
  1H   1px       -0.001027 -0.020156  0.012617  0.017321 -0.011615  0.016767
  1H   1py       -0.000008 -0.000155  0.011261 -0.006216  0.002700  0.000144
  2H   1s        -0.000244  0.078282 -0.110690  0.119561 -0.066889  0.013852
  2H   2s         0.001888  0.075840 -0.132361  0.143011 -0.080008  0.021164
  2H   3s        -0.002113 -0.033615 -0.011016  0.011849 -0.006643  0.325753
  2H   4s        -0.000021  0.000000 -0.014634  0.015790 -0.008837  0.508918
  2H   1pz        0.000049  0.000945 -0.000525  0.007302  0.010938 -0.000800
  2H   1px        0.000333  0.006531 -0.014634 -0.001450  0.000841 -0.005445
  2H   1py        0.000972  0.019067 -0.011179  0.017655 -0.010635 -0.015858
  3H   1s        -0.000244  0.078296  0.096007 -0.070287 -0.129866  0.013838
  3H   2s         0.001890  0.075835  0.114798 -0.084057 -0.155280  0.021133
  3H   3s        -0.002115 -0.033648  0.009498 -0.006950 -0.012872  0.325422
  3H   4s        -0.000022 -0.000011  0.012694 -0.009298 -0.017169  0.506549
  3H   1pz        0.000837  0.016409  0.017209 -0.006057 -0.010884 -0.013645
  3H   1px        0.000310  0.006095 -0.000805 -0.014213 -0.002916 -0.005055
  3H   1py       -0.000511 -0.010030  0.000933  0.001026  0.016575  0.008342
  4H   1s        -0.000244  0.078293  0.106829  0.077617  0.116561  0.013845
  4H   2s         0.001889  0.075835  0.127724  0.092831  0.139372  0.021143
  4H   3s        -0.002114 -0.033643  0.010570  0.007688  0.011546  0.325510
  4H   4s        -0.000022 -0.000008  0.014120  0.010271  0.015406  0.506497
  4H   1pz       -0.000840 -0.016471 -0.018004 -0.007381 -0.008656  0.013696
  4H   1px        0.000384  0.007530  0.001500 -0.003518  0.014708 -0.006271
  4H   1py       -0.000453 -0.008886  0.001072 -0.013702 -0.008112  0.007374
                      6         7         8         9        10        11   
                   0.04181   0.04183   0.04186   0.13887   0.13890   0.13892
                   0.00000   0.00000   0.00000   0.00000   0.00000   0.00000
                  --------  --------  --------  --------  --------  --------
  0N   1s        -0.000003 -0.000025  0.000001 -0.000081  0.000023  0.000030
  0N   2s        -0.000005 -0.000044  0.000002 -0.000139  0.000040  0.000051
  0N   1pz        0.020033 -0.001236 -0.056940 -0.001675 -0.021131 -0.017059
  0N   1px        0.042362 -0.040056  0.015764  0.015227 -0.014907  0.016953
  0N   1py        0.038111  0.045171  0.012420 -0.022473 -0.008519  0.012766
  0N   3s         0.000021  0.000164 -0.000006  0.000374 -0.000109 -0.000134
  0N   2pz        0.036103 -0.002228 -0.102616 -0.001726 -0.021849 -0.017580
  0N   2px        0.076330 -0.072175  0.028409  0.015690 -0.015395  0.017508
  0N   2py        0.068670  0.081388  0.022381 -0.023151 -0.008800  0.013188
  0N   4s         0.000006  0.000127 -0.000024  0.001938 -0.000517 -0.000711
  0N   3pz        0.014635 -0.000902 -0.041545 -0.008896 -0.111979 -0.090494
  0N   3px        0.030992 -0.029233  0.011486  0.080947 -0.079006  0.089906
  0N   3py        0.027867  0.032964  0.009050 -0.119462 -0.045136  0.067709
  0N   5s         0.000238  0.002952 -0.000010 -0.010829  0.003813  0.005654
  0N   4pz        0.143967 -0.008890 -0.410532 -0.182639 -2.292764 -1.855810
  0N   4px        0.305480 -0.289096  0.114245  1.655030 -1.618594  1.838486
  0N   4py        0.274751  0.326228  0.089986 -2.444758 -0.924402  1.383177
  0N   1dz2      -0.000354 -0.003401 -0.000022  0.037382 -0.002269 -0.000398
  0N   1dxz       0.000563  0.000323 -0.002253 -0.005282 -0.017680 -0.017977
  0N   1dyz      -0.000686  0.000303  0.003141 -0.000974  0.024928  0.025216
  0N   1dx2y2    -0.003587  0.001011 -0.000844 -0.005372  0.029812 -0.028931
  0N   1dxy       0.001408  0.001736  0.000317 -0.020956 -0.008396  0.010069
  1H   1s         0.002871 -0.002639  0.000872 -0.055368  0.058851 -0.060170
  1H   2s        -0.025457  0.023186 -0.007754 -0.011183  0.011706 -0.011683
  1H   3s         0.056407 -0.051973  0.016870 -1.530913  1.625843 -1.665747
  1H   4s        -2.112103  1.927063 -0.647692 -1.096362  1.165804 -1.193074
  1H   1pz        0.000301  0.000539 -0.002918 -0.002628 -0.019844 -0.017925
  1H   1px       -0.012702  0.011516 -0.003766 -0.006531  0.008214 -0.006753
  1H   1py        0.001695  0.002264  0.000557 -0.022441 -0.008240  0.012413
  2H   1s        -0.003354 -0.001971 -0.000924 -0.060697 -0.051351  0.061873
  2H   2s         0.029641  0.017292  0.008243 -0.012224 -0.010013  0.012308
  2H   3s        -0.065850 -0.038714 -0.017923 -1.678333 -1.420269  1.710371
  2H   4s         2.460008  1.438633  0.687514 -1.202864 -1.018330  1.224808
  2H   1pz        0.000139 -0.000537 -0.002946 -0.000528 -0.019913 -0.018034
  2H   1px       -0.003542 -0.005161 -0.000802  0.022763 -0.008250  0.008921
  2H   1py       -0.014399 -0.007324 -0.003942  0.000142  0.010539 -0.010246
  3H   1s        -0.000680  0.002342  0.003175  0.053221 -0.064575 -0.055953
  3H   2s         0.005937 -0.020723 -0.027957  0.009961 -0.012691 -0.010657
  3H   3s        -0.013559  0.045403  0.062472  1.477102 -1.786370 -1.549539
  3H   4s         0.492625 -1.725761 -2.319316  1.058582 -1.281589 -1.110455
  3H   1pz       -0.001835  0.009757  0.010446 -0.018598 -0.000336  0.000907
  3H   1px        0.000991  0.001722  0.005630  0.008770 -0.007134  0.023317
  3H   1py        0.003524 -0.003840 -0.007446 -0.011874 -0.020957  0.001724
  4H   1s         0.001155  0.002229 -0.003119  0.062647  0.057126  0.054302
  4H   2s        -0.010121 -0.019717  0.027491  0.011806  0.011439  0.010613
  4H   3s         0.022865  0.043128 -0.061405  1.738010  1.578430  1.501141
  4H   4s        -0.840765 -1.642018  2.279514  1.245977  1.132406  1.076336
  4H   1pz       -0.003835 -0.009437  0.010269  0.018351 -0.002646  0.000436
  4H   1px        0.004215  0.002377 -0.005184  0.005890 -0.023073  0.008813
  4H   1py       -0.000757 -0.002890  0.007584 -0.011451  0.001386  0.021911
                     12        13        14        15        16        17   
                   0.14641   0.20695   0.20701   0.20703   0.29903   0.47663
                   0.00000   0.00000   0.00000   0.00000   0.00000   0.00000
                  --------  --------  --------  --------  --------  --------
  0N   1s         0.050752 -0.000002 -0.000027  0.000004 -0.040236 -0.000001
  0N   2s         0.086649 -0.000003 -0.000048  0.000006 -0.066818 -0.000002
  0N   1pz        0.000020  0.047834  0.001389 -0.166332 -0.000018  0.030831
  0N   1px       -0.000058  0.131089 -0.106847  0.036807 -0.000036  0.031910
  0N   1py        0.000070  0.102392  0.136138  0.030583  0.000058  0.021052
  0N   3s        -0.232948  0.000014  0.000150 -0.000016  0.164174  0.000008
  0N   2pz        0.000025  0.064053  0.001863 -0.222732 -0.000016  0.095789
  0N   2px       -0.000074  0.175553 -0.143092  0.049306 -0.000019  0.099092
  0N   2py        0.000098  0.137126  0.182320  0.040965  0.000038  0.065382
  0N   4s        -1.204317 -0.000017  0.000548 -0.000115  1.477645 -0.000116
  0N   3pz        0.000082  0.259104  0.007554 -0.901485 -0.000110  0.664950
  0N   3px       -0.000262  0.710389 -0.579203  0.199506 -0.000380  0.687625
  0N   3py        0.000326  0.554898  0.738063  0.165764  0.000543  0.453656
  0N   5s         9.308721 -0.000641 -0.012507 -0.001416 17.946298 -0.000426
  0N   4pz        0.001654 -0.372504 -0.010767  1.297191 -0.000485 -1.218295
  0N   4px        0.002190 -1.023022  0.832959 -0.286930 -0.001052 -1.260174
  0N   4py       -0.004164 -0.798670 -1.061592 -0.238487  0.001585 -0.831426
  0N   1dz2       0.000059 -0.000436 -0.011159 -0.000126  0.000025  0.000656
  0N   1dxz       0.000018  0.001355  0.001226 -0.007473  0.000021  0.008643
  0N   1dyz      -0.000025 -0.001726  0.000768  0.010425  0.000015 -0.012046
  0N   1dx2y2     0.000004 -0.012069  0.002544 -0.002007  0.000018 -0.022199
  0N   1dxy      -0.000016  0.004280  0.005945  0.000817  0.000055  0.006925
  1H   1s         0.018148 -0.055593  0.043852 -0.012303 -0.075215 -0.080715
  1H   2s         0.245151 -0.271836  0.214109 -0.060270  0.062554 -1.288931
  1H   3s        -1.520954 -0.952790  0.755061 -0.210956 -4.962829  2.460451
  1H   4s        -0.985274  2.409951 -1.898436  0.533663 -0.822259  0.055088
  1H   1pz       -0.000067 -0.000432  0.000268  0.000314 -0.000542  0.017303
  1H   1px       -0.002226 -0.007350  0.005803 -0.001642 -0.012556  0.042581
  1H   1py       -0.000037 -0.000319 -0.000278 -0.000094 -0.000043  0.011246
  2H   1s         0.018112  0.058742  0.039060  0.013686 -0.075212  0.076542
  2H   2s         0.245167  0.287223  0.190788  0.066930  0.062544  1.222468
  2H   3s        -1.521844  1.007446  0.673040  0.235160 -4.962931 -2.333302
  2H   4s        -0.986055 -2.546151 -1.691868 -0.592857 -0.822402 -0.052336
  2H   1pz        0.000110 -0.000474 -0.000258  0.000299  0.000580  0.017325
  2H   1px        0.000736 -0.002744 -0.001350 -0.000655  0.004014  0.024689
  2H   1py        0.002105 -0.007274 -0.004997 -0.001709  0.011897  0.034232
  3H   1s         0.018288  0.011481 -0.040963 -0.057895 -0.075257  0.058646
  3H   2s         0.245053  0.055898 -0.200768 -0.283142  0.062467  0.936507
  3H   3s        -1.516962  0.197078 -0.700853 -0.992769 -4.966264 -1.787488
  3H   4s        -0.978919 -0.496698  1.777634  2.509377 -0.822655 -0.039939
  3H   1pz        0.001778 -0.001297  0.004217  0.006389  0.010198  0.031463
  3H   1px        0.000686 -0.000750  0.001804  0.002095  0.003785  0.022423
  3H   1py       -0.001114  0.000489 -0.002917 -0.003723 -0.006306  0.001670
  4H   1s         0.018187 -0.014640 -0.041858  0.056549 -0.075255 -0.054494
  4H   2s         0.245051 -0.071303 -0.205173  0.276439  0.062452 -0.870083
  4H   3s        -1.519768 -0.251149 -0.716329  0.970146 -4.965506  1.661018
  4H   4s        -0.980887  0.633082  1.816301 -2.449934 -0.822598  0.037190
  4H   1pz       -0.001787 -0.001634 -0.004333  0.006273 -0.010233  0.030431
  4H   1px        0.000838  0.000394  0.002248 -0.002779  0.004752  0.010207
  4H   1py       -0.001025 -0.001055 -0.002647  0.003050 -0.005539  0.018757
                     18        19        20        21        22        23   
                   0.47672   0.47678   0.73869   0.77522   0.77527   0.77532
                   0.00000   0.00000   0.00000   0.00000   0.00000   0.00000
                  --------  --------  --------  --------  --------  --------
  0N   1s         0.000002  0.000018  0.050296 -0.000051 -0.000008 -0.000013
  0N   2s         0.000004  0.000031  0.094430 -0.000092 -0.000014 -0.000024
  0N   1pz       -0.038097  0.002772 -0.000041  0.016485 -0.009974 -0.265660
  0N   1px        0.023734 -0.028849 -0.000182 -0.148796 -0.220918 -0.000932
  0N   1py        0.019932  0.039660  0.000208  0.220329 -0.148446  0.019248
  0N   3s        -0.000024 -0.000134 -0.380758  0.000315  0.000051  0.000120
  0N   2pz       -0.118404  0.008621 -0.000127  0.049143 -0.029794 -0.792057
  0N   2px        0.073745 -0.089670 -0.000494 -0.443483 -0.658662 -0.002830
  0N   2py        0.061938  0.123283  0.000566  0.656706 -0.442585  0.057345
  0N   4s         0.000060  0.000439 -0.489722  0.000465  0.000045 -0.000088
  0N   3pz       -0.822074  0.059912  0.000564 -0.140343  0.084717  2.261510
  0N   3px        0.511435 -0.622751  0.002013  1.266890  1.880922  0.007930
  0N   3py        0.429550  0.856292 -0.002451 -1.875965  1.263860 -0.163870
  0N   5s         0.000806  0.004265 12.185781 -0.014725 -0.001744 -0.003486
  0N   4pz        1.505820 -0.109727 -0.000678  0.076339 -0.046141 -1.230443
  0N   4px       -0.937026  1.140632 -0.001874 -0.689145 -1.023542 -0.004334
  0N   4py       -0.786985 -1.568281  0.002534  1.020460 -0.687733  0.089150
  0N   1dz2      -0.000953 -0.023680 -0.000071 -0.043973 -0.001450 -0.002320
  0N   1dxz      -0.013428  0.003324 -0.000029  0.006218  0.002255 -0.029517
  0N   1dyz       0.018942  0.000652 -0.000007  0.001150 -0.003050  0.041518
  0N   1dx2y2    -0.013876  0.004294 -0.000005  0.006258  0.048592  0.004007
  0N   1dxy       0.005338  0.012981 -0.000032  0.024640 -0.015352  0.000358
  1H   1s        -0.053567  0.068562  0.099171  0.027360  0.041721  0.002301
  1H   2s        -0.855857  1.095980  1.472514 -0.182775 -0.275642 -0.015719
  1H   3s         1.633099 -2.091743 -4.139934 -0.535590 -0.821382 -0.045147
  1H   4s         0.036480 -0.047960 -0.362148  1.005478  1.529521  0.086250
  1H   1pz       -0.019254  0.000521  0.000454  0.005915  0.006264 -0.020367
  1H   1px        0.029614 -0.037137  0.010467  0.093261  0.142226  0.008854
  1H   1py        0.010584  0.020689  0.000055  0.017963 -0.010302  0.001586
  2H   1s         0.059698  0.068286  0.099165  0.030096 -0.039870  0.000994
  2H   2s         0.953712  1.091496  1.472581 -0.200858  0.262781 -0.007002
  2H   3s        -1.820191 -2.083092 -4.139828 -0.589699  0.785585 -0.018496
  2H   4s        -0.040790 -0.047918 -0.362513  1.106041 -1.460496  0.036682
  2H   1pz       -0.019116  0.002466 -0.000492 -0.004173  0.006420 -0.020942
  2H   1px        0.018651 -0.008087 -0.003358 -0.048943  0.032144 -0.001307
  2H   1py        0.028542  0.041553 -0.009887 -0.091931  0.132447 -0.002134
  3H   1s        -0.081556 -0.063117  0.099120 -0.026619 -0.000207 -0.042453
  3H   2s        -1.302873 -1.009581  1.474263  0.173130  0.000884  0.279323
  3H   3s         2.486142  1.924941 -4.141013  0.526219  0.004390  0.837333
  3H   4s         0.056049  0.044094 -0.365970 -0.968893 -0.006966 -1.554821
  3H   1pz       -0.041270 -0.015102 -0.008257  0.083779 -0.000218  0.111216
  3H   1px        0.004521 -0.021260 -0.003040  0.018853 -0.017076  0.048901
  3H   1py        0.023507  0.030896  0.005092 -0.033082 -0.011950 -0.079193
  4H   1s         0.075457 -0.073576  0.099139 -0.031315 -0.001697  0.039056
  4H   2s         1.205162 -1.176773  1.473882  0.204049  0.011121 -0.257869
  4H   3s        -2.300072  2.243915 -4.140768  0.618658  0.033808 -0.769043
  4H   4s        -0.051842  0.051418 -0.365134 -1.140701 -0.061852  1.432332
  4H   1pz       -0.039743  0.020817  0.008335 -0.096155 -0.006097  0.101232
  4H   1px        0.021522 -0.023969 -0.003872  0.032886 -0.014829 -0.055909
  4H   1py       -0.000231  0.031231  0.004488 -0.035163 -0.014467  0.067288
                     24        25        26        27        28        29   
                   1.02345   1.02386   1.03508   1.49628   1.49641   1.49654
                   0.00000   0.00000   0.00000   0.00000   0.00000   0.00000
                  --------  --------  --------  --------  --------  --------
  0N   1s         0.001929  0.001164 -0.098034 -0.000000 -0.000001 -0.000000
  0N   2s         0.004057  0.002448 -0.206901  0.000000 -0.000000 -0.000001
  0N   1pz        0.000004  0.000001  0.000003  0.000013 -0.000001  0.000009
  0N   1px       -0.000032  0.000015 -0.000012  0.000015 -0.000004 -0.000009
  0N   1py        0.000046 -0.000013  0.000017  0.000011  0.000003 -0.000004
  0N   3s        -0.038313 -0.023083  1.955234 -0.000007 -0.000044  0.000008
  0N   2pz        0.000019  0.000008  0.000034  0.000192 -0.000054 -0.000677
  0N   2px       -0.000168  0.000033  0.000122 -0.000231 -0.000144  0.000121
  0N   2py        0.000235  0.000013 -0.000123 -0.000120  0.000187  0.000023
  0N   4s         0.119634  0.071916 -6.077783  0.000042  0.000245 -0.000024
  0N   3pz       -0.000025  0.000003  0.000111 -0.000442  0.000167  0.001369
  0N   3px        0.000310 -0.000029  0.000349  0.000244  0.000368 -0.000298
  0N   3py       -0.000413  0.000012 -0.000527  0.000151 -0.000384 -0.000054
  0N   5s        -0.045807 -0.026648  1.937020 -0.000026  0.000025  0.000053
  0N   4pz        0.000016 -0.000001  0.000020  0.000188 -0.000076 -0.000450
  0N   4px       -0.000133  0.000010  0.000025 -0.000094 -0.000122  0.000079
  0N   4py        0.000168 -0.000001 -0.000014 -0.000077  0.000133  0.000013
  0N   1dz2       0.118346  0.037927  0.002819  0.000003 -0.000054  0.000008
  0N   1dxz      -0.022677  0.195583  0.001923  0.000045  0.000001 -0.000108
  0N   1dyz      -0.017704  0.140654  0.001351 -0.000062  0.000032  0.000143
  0N   1dx2y2     0.066812  0.004261  0.001422  0.000098  0.000010  0.000012
  0N   1dxy       0.200491  0.010670  0.004207 -0.000022  0.000030 -0.000008
  1H   1s         0.000216  0.000121 -0.009215 -0.000037 -0.000037  0.000038
  1H   2s        -0.024751 -0.014805  1.248864 -0.000131 -0.000243  0.000098
  1H   3s        -0.000043 -0.000203  0.093945  0.000099  0.000048 -0.000008
  1H   4s         0.006214  0.003565 -0.283740  0.000044  0.000087 -0.000061
  1H   1pz       -0.034258  0.407513 -0.005924  0.141310  0.502167 -0.385122
  1H   1px        0.002981 -0.015385 -0.230021 -0.011534 -0.021388  0.016330
  1H   1py        0.407673  0.034209  0.006693  0.633165 -0.108584  0.090902
  2H   1s         0.000219  0.000112 -0.009218  0.000020 -0.000039 -0.000026
  2H   2s        -0.024726 -0.014783  1.248909  0.000118 -0.000174 -0.000013
  2H   3s        -0.000072 -0.000238  0.093999 -0.000116  0.000035 -0.000027
  2H   4s         0.006214  0.003596 -0.283763 -0.000037  0.000053  0.000018
  2H   1pz        0.035970 -0.407311  0.006690 -0.014845 -0.543583 -0.353068
  2H   1px       -0.387571 -0.028890  0.066478  0.604101 -0.062443  0.088843
  2H   1py        0.126051  0.027271  0.220307 -0.206575  0.048683 -0.012794
  3H   1s         0.000257  0.000171 -0.009236  0.000023 -0.000038  0.000044
  3H   2s        -0.024701 -0.014797  1.249450 -0.000256  0.000222  0.000567
  3H   3s         0.000203 -0.000213  0.094349  0.000182 -0.000183 -0.000250
  3H   4s         0.005843  0.003578 -0.283844  0.000078 -0.000083 -0.000231
  3H   1pz       -0.236342 -0.053109  0.181997 -0.058869  0.049993  0.368803
  3H   1px        0.242090 -0.305711  0.070666 -0.199063  0.451537 -0.372911
  3H   1py       -0.230281 -0.266792 -0.122233 -0.217461  0.356304  0.378104
  4H   1s         0.000249  0.000163 -0.009236 -0.000018 -0.000023 -0.000070
  4H   2s        -0.024668 -0.014781  1.249328  0.000212  0.000023 -0.000593
  4H   3s         0.000183 -0.000228  0.094361 -0.000149 -0.000048  0.000218
  4H   4s         0.005824  0.003586 -0.283917 -0.000075 -0.000025  0.000265
  4H   1pz        0.234607  0.052903 -0.182739 -0.067116 -0.008747  0.367805
  4H   1px        0.142557  0.349978  0.092996 -0.393908 -0.368104  0.268083
  4H   1py       -0.303527  0.205265 -0.104936 -0.209361 -0.295947 -0.456139
                     30        31        32        33        34        35   
                   1.76567   1.76585   1.76586   2.07621   2.07632   2.07645
                   0.00000   0.00000   0.00000   0.00000   0.00000   0.00000
                  --------  --------  --------  --------  --------  --------
  0N   1s        -0.000001 -0.000004  0.000006 -0.000020 -0.000000  0.000001
  0N   2s        -0.000002 -0.000006  0.000010 -0.000042 -0.000000  0.000002
  0N   1pz        0.009549 -0.029424 -0.024513  0.036538  0.180142  0.028201
  0N   1px        0.031879  0.020111 -0.011736  0.105901 -0.044420  0.146364
  0N   1py        0.021275 -0.016914  0.028598 -0.148512  0.012710  0.111321
  0N   3s        -0.000013 -0.000060  0.000080  0.000250  0.000015 -0.000020
  0N   2pz        0.098951 -0.304958 -0.253914  0.005612  0.027300  0.004047
  0N   2px        0.330251  0.208693 -0.121806  0.016346 -0.006789  0.021889
  0N   2py        0.220365 -0.175606  0.296779 -0.022870  0.001931  0.016627
  0N   4s         0.000164  0.000697 -0.000987 -0.000206 -0.000153  0.000101
  0N   3pz       -0.357580  1.102743  0.918172  0.230717  1.136829  0.177887
  0N   3px       -1.193445 -0.755029  0.440777  0.668210 -0.280090  0.923405
  0N   3py       -0.796356  0.635381 -1.073761 -0.936986  0.080099  0.702179
  0N   5s         0.000004 -0.000174 -0.000060  0.001587  0.000202 -0.000184
  0N   4pz        0.203635 -0.627986 -0.522929 -0.007515 -0.036592 -0.005780
  0N   4px        0.679618  0.429798 -0.250982 -0.021315  0.008887 -0.029623
  0N   4py        0.453502 -0.361740  0.611280  0.029802 -0.002455 -0.022429
  0N   1dz2       0.010348  0.201554 -0.234012  0.327115 -0.067793 -0.008764
  0N   1dxz       0.027473 -0.179770 -0.109861  0.011081  0.228992  0.010824
  0N   1dyz      -0.038821  0.205111  0.204918 -0.088158 -0.303195 -0.011294
  0N   1dx2y2    -0.339494 -0.063223  0.005241 -0.066486  0.028208 -0.366188
  0N   1dxy       0.106719 -0.100077  0.142015 -0.177563  0.029762  0.127440
  1H   1s        -0.288969 -0.166284  0.112241 -0.327882  0.112045 -0.458055
  1H   2s         1.222215  0.704206 -0.474801  0.180403 -0.061489  0.252475
  1H   3s        -1.072295 -0.617476  0.416595 -0.589347  0.201178 -0.822563
  1H   4s        -0.188438 -0.108900  0.073413  0.276664 -0.094517  0.386821
  1H   1pz        0.107570 -0.319100 -0.268770 -0.110035 -0.659741 -0.071002
  1H   1px        0.422251  0.262451 -0.157162  0.122743 -0.012248  0.175967
  1H   1py        0.232855 -0.184742  0.312840  0.541497 -0.047393 -0.397073
  2H   1s         0.275078 -0.096897  0.196731 -0.321988  0.018968  0.475341
  2H   2s        -1.163522  0.410034 -0.832867  0.177263 -0.010527 -0.262222
  2H   3s         1.020693 -0.359638  0.730415 -0.578785  0.034116  0.853727
  2H   4s         0.179396 -0.063426  0.128803  0.271588 -0.016007 -0.401303
  2H   1pz        0.107523 -0.322367 -0.264853 -0.155813 -0.650757 -0.067470
  2H   1px        0.370966  0.212130 -0.112082 -0.544358  0.170105 -0.292214
  2H   1py        0.299006 -0.208622  0.360389  0.067575 -0.018371  0.289617
  3H   1s         0.060871 -0.084549 -0.336178  0.417788  0.391478  0.036441
  3H   2s        -0.257197  0.356404  1.422840 -0.229147 -0.215379 -0.020240
  3H   3s         0.225644 -0.313071 -1.247487  0.750254  0.703202  0.065426
  3H   4s         0.039581 -0.054763 -0.219636 -0.353024 -0.330905 -0.030853
  3H   1pz        0.117047 -0.339541 -0.337762  0.392915 -0.160507 -0.056552
  3H   1px        0.352479  0.213655 -0.154373 -0.188318  0.343041 -0.512817
  3H   1py        0.224221 -0.174483  0.355260  0.216329 -0.346405 -0.430619
  4H   1s        -0.047003  0.347670  0.027372  0.231315 -0.522548 -0.053684
  4H   2s         0.198377 -1.471424 -0.114181 -0.126765  0.287737  0.029752
  4H   3s        -0.174128  1.290203  0.100820  0.415270 -0.938766 -0.096352
  4H   4s        -0.030516  0.227180  0.017345 -0.195307  0.441397  0.045364
  4H   1pz        0.114194 -0.394349 -0.273829 -0.424246  0.006398 -0.034718
  4H   1px        0.343146  0.252887 -0.125780 -0.249640 -0.140636 -0.560516
  4H   1py        0.237319 -0.224052  0.309918  0.379990  0.309058 -0.366549
                     36        37        38        39        40        41   
                   2.39102   2.53860   2.53907   2.53933   2.64581   2.64595
                   0.00000   0.00000   0.00000   0.00000   0.00000   0.00000
                  --------  --------  --------  --------  --------  --------
  0N   1s        -0.050406 -0.000022  0.000008 -0.000006 -0.000037  0.000035
  0N   2s        -0.096234 -0.000060  0.000020 -0.000016 -0.000064  0.000057
  0N   1pz       -0.000047  0.000023 -0.038173 -0.035187  0.000010  0.000031
  0N   1px       -0.000030 -0.029122  0.029133 -0.031742 -0.000012  0.000011
  0N   1py        0.000071  0.042856  0.019791 -0.021620 -0.000033 -0.000068
  0N   3s         0.362243  0.000536 -0.000160  0.000129  0.000131 -0.000055
  0N   2pz       -0.000068 -0.000188 -0.811199 -0.746235 -0.000032  0.000245
  0N   2px        0.000158 -0.620051  0.617094 -0.670199  0.000046 -0.000414
  0N   2py       -0.000051  0.911835  0.419517 -0.456008 -0.000485  0.000240
  0N   4s         0.774738  0.001345 -0.000113  0.000356  0.000865 -0.000748
  0N   3pz       -0.000161 -0.000058 -1.160280 -1.067478  0.000008  0.000364
  0N   3px        0.000322 -0.887380  0.883749 -0.959901  0.000019 -0.000368
  0N   3py       -0.000045  1.304951  0.600613 -0.653319 -0.000633 -0.000022
  0N   5s         5.973892  0.000154 -0.000568 -0.000028  0.001600 -0.001508
  0N   4pz       -0.000124  0.000095  0.681476  0.626831  0.000013 -0.000195
  0N   4px       -0.000567  0.521358 -0.518900  0.563496 -0.000045  0.000226
  0N   4py        0.000647 -0.766623 -0.352675  0.383435  0.000378 -0.000033
  0N   1dz2       0.000157  0.370798 -0.009085  0.005585 -0.284437  0.527228
  0N   1dxz       0.000423 -0.037193  0.203570  0.149276 -0.905380 -0.280393
  0N   1dyz       0.000313 -0.031362 -0.282443 -0.206724 -0.649924 -0.208070
  0N   1dx2y2     0.000389 -0.057221  0.242773 -0.331548 -0.079438  0.312629
  0N   1dxy       0.000960 -0.207418 -0.077110  0.105885 -0.227968  0.940245
  1H   1s        -0.695412 -0.571079  0.545115 -0.659143 -0.000567  0.000381
  1H   2s         0.968659  1.898351 -1.812583  2.191552  0.000392  0.000390
  1H   3s        -2.259465 -0.947419  0.904157 -1.092884 -0.000754  0.000389
  1H   4s        -0.140142 -0.109350  0.104439 -0.126212  0.000017 -0.000047
  1H   1pz        0.017388 -0.040813  0.276902  0.171620  0.398552  0.109787
  1H   1px        0.399052 -0.744916  0.703872 -0.873531 -0.018105 -0.002430
  1H   1py        0.002584 -0.274441 -0.116033  0.125393  0.109866 -0.398851
  2H   1s        -0.695562 -0.616197 -0.520646  0.637617 -0.000266  0.000595
  2H   2s         0.969244  2.048831  1.731535 -2.120733 -0.000792 -0.000504
  2H   3s        -2.259753 -1.022350 -0.863370  1.057317 -0.000259  0.000765
  2H   4s        -0.140246 -0.118097 -0.099721  0.122230  0.000112  0.000047
  2H   1pz       -0.018524  0.047183  0.277719  0.169990 -0.398087 -0.111625
  2H   1px       -0.128784  0.505847  0.093196 -0.139081 -0.099874  0.378708
  2H   1py       -0.377394  0.678891  0.676711 -0.845815  0.053189 -0.123848
  3H   1s        -0.695963  0.597057  0.636509  0.543848 -0.000842  0.000841
  3H   2s         0.970091 -1.986501 -2.116527 -1.808305  0.001302 -0.000775
  3H   3s        -2.261110  0.990692  1.055822  0.901774 -0.001238  0.000995
  3H   4s        -0.140520  0.114420  0.121742  0.103914 -0.000010 -0.000161
  3H   1pz       -0.324440 -0.789880 -0.603932 -0.500389 -0.093692  0.221894
  3H   1px       -0.120523 -0.111358 -0.493369 -0.069822 -0.257791 -0.298587
  3H   1py        0.198764  0.215214  0.391012  0.573443 -0.309833  0.181371
  4H   1s        -0.695940  0.589618 -0.660686 -0.522424 -0.000881  0.001135
  4H   2s         0.970282 -1.962156  2.197281  1.737041  0.001375 -0.001994
  4H   3s        -2.260914  0.978421 -1.095709 -0.866273 -0.001311  0.001511
  4H   4s        -0.140517  0.113148 -0.126418 -0.099895  0.000018 -0.000044
  4H   1pz        0.325544  0.783228 -0.639595 -0.474739  0.093128 -0.219762
  4H   1px       -0.149351 -0.176277  0.219885  0.513935  0.375884 -0.078398
  4H   1py        0.175667  0.154849 -0.595653 -0.239638  0.146100  0.341939
                     42        43        44        45        46        47   
                   2.98550   3.00352   3.00380   3.00412   4.72437   4.72472
                   0.00000   0.00000   0.00000   0.00000   0.00000   0.00000
                  --------  --------  --------  --------  --------  --------
  0N   1s         0.080383  0.000220  0.000104  0.000077 -0.000004 -0.000001
  0N   2s         0.193968  0.000531  0.000249  0.000186 -0.000008  0.000000
  0N   1pz        0.000627  0.032565 -0.162013 -0.540608  0.731011  1.045620
  0N   1px        0.000637 -0.354951  0.414828 -0.145725  0.880357 -0.596714
  0N   1py       -0.001625  0.438546  0.347830 -0.077785  0.564960 -0.423366
  0N   3s        -1.095746 -0.002887 -0.001417 -0.001029  0.000089 -0.000040
  0N   2pz        0.000057 -0.000002  0.000158  0.001031 -1.490341 -2.131989
  0N   2px        0.000272  0.000430 -0.000772  0.000339 -1.794569  1.216514
  0N   2py       -0.000338 -0.000467 -0.000616  0.000187 -1.151693  0.863136
  0N   4s        -5.503204 -0.015912 -0.006979 -0.005347  0.000097  0.000167
  0N   3pz        0.001244  0.053776 -0.267752 -0.892509 -0.038909 -0.055969
  0N   3px        0.001321 -0.586563  0.684922 -0.240519 -0.047111  0.032114
  0N   3py       -0.003222  0.724727  0.574332 -0.128259 -0.030236  0.022751
  0N   5s         6.034987  0.018729  0.007536  0.005948 -0.000075 -0.000147
  0N   4pz       -0.000566 -0.020850  0.103781  0.345981 -0.016544 -0.023491
  0N   4px       -0.000617  0.227305 -0.265533  0.093273 -0.019812  0.013324
  0N   4py        0.001452 -0.280831 -0.222632  0.049742 -0.012714  0.009469
  0N   1dz2      -0.002522  1.014331  0.068515  0.032109  0.032172 -0.008887
  0N   1dxz      -0.000276 -0.146980  0.260935  0.631693  0.259748  0.479852
  0N   1dyz       0.001500 -0.021032 -0.383083 -0.882817 -0.364237 -0.666993
  0N   1dx2y2     0.000060 -0.241163  1.015611 -0.450500 -0.785002  0.424329
  0N   1dxy       0.002499 -0.536795 -0.383143  0.124739  0.239844 -0.140773
  1H   1s        -0.519823  0.402675 -0.474835  0.196126  0.396920 -0.239751
  1H   2s         2.893642  0.251338 -0.280804  0.120799  0.847885 -0.512230
  1H   3s        -1.892499  0.256527 -0.310155  0.125742 -0.240217  0.145161
  1H   4s        -0.252086 -0.364553  0.426307 -0.177183  0.122301 -0.073754
  1H   1pz       -0.044777 -0.013123 -0.008208 -0.112310  0.058043  0.171899
  1H   1px       -1.019818 -0.508763  0.591711 -0.241935 -0.869088  0.515877
  1H   1py       -0.008255  0.079896  0.070167 -0.016584  0.070822 -0.054234
  2H   1s        -0.520454  0.346355  0.526048 -0.169627 -0.369830  0.235734
  2H   2s         2.893105  0.217536  0.319504 -0.098565 -0.789973  0.503405
  2H   3s        -1.892898  0.219960  0.339526 -0.111630  0.223825 -0.142611
  2H   4s        -0.251429 -0.313855 -0.474118  0.151881 -0.113929  0.072529
  2H   1pz        0.048187  0.024120 -0.003829 -0.111510  0.058095  0.173331
  2H   1px        0.330393  0.055737  0.264405 -0.086823 -0.176894  0.107740
  2H   1py        0.963717  0.442987  0.607410 -0.187284 -0.795204  0.497957
  3H   1s        -0.516991 -0.346784 -0.208127 -0.515161 -0.251341 -0.382105
  3H   2s         2.895619 -0.198837 -0.121173 -0.306264 -0.536529 -0.815655
  3H   3s        -1.891039 -0.229937 -0.136976 -0.335885  0.152009  0.231111
  3H   4s        -0.254804  0.309803  0.186432  0.462910 -0.077446 -0.117581
  3H   1pz        0.832943 -0.296177 -0.212922 -0.556356 -0.409228 -0.631164
  3H   1px        0.309096 -0.179625  0.011445 -0.196161 -0.066998 -0.371292
  3H   1py       -0.509352  0.268150  0.177715  0.262444  0.390955  0.415791
  4H   1s        -0.518236 -0.408706  0.154438  0.486692  0.224132  0.386155
  4H   2s         2.894728 -0.236020  0.096974  0.295200  0.478485  0.824232
  4H   3s        -1.891739 -0.270097  0.098227  0.314364 -0.135560 -0.233502
  4H   4s        -0.253566  0.365484 -0.139904 -0.438618  0.069097  0.118837
  4H   1pz       -0.834779  0.364586 -0.169312 -0.535266 -0.355676 -0.642364
  4H   1px        0.382092 -0.231434  0.142586  0.170091  0.331808  0.277348
  4H   1py       -0.450322  0.276523 -0.008413 -0.248122 -0.167918 -0.483701
                     48        49   
                   4.72524  35.64962
                   0.00000   0.00000
                  --------  --------
  0N   1s         0.000020 -2.150141
  0N   2s         0.000038  2.291436
  0N   1pz        0.027912 -0.000003
  0N   1px       -0.705495 -0.000015
  0N   1py        1.063237  0.000017
  0N   3s        -0.000372 -0.458377
  0N   2pz       -0.056932  0.000013
  0N   2px        1.438563  0.000090
  0N   2py       -2.168105 -0.000094
  0N   4s        -0.000621 -0.175864
  0N   3pz       -0.001532  0.000016
  0N   3px        0.038257  0.000050
  0N   3py       -0.057624 -0.000064
  0N   5s         0.000493  0.490512
  0N   4pz       -0.000608 -0.000019
  0N   4px        0.015587 -0.000050
  0N   4py       -0.023507  0.000068
  0N   1dz2      -0.803963  0.000015
  0N   1dxz       0.091375  0.000028
  0N   1dyz       0.051913  0.000014
  0N   1dx2y2     0.111391  0.000034
  0N   1dxy       0.452446  0.000067
  1H   1s        -0.301201 -0.016339
  1H   2s        -0.643200  0.225017
  1H   3s         0.182215 -0.196366
  1H   4s        -0.092534 -0.008050
  1H   1pz        0.037002 -0.005174
  1H   1px        0.654005 -0.117447
  1H   1py        0.154032 -0.000919
  2H   1s        -0.336975 -0.016331
  2H   2s        -0.719519  0.225054
  2H   3s         0.203840 -0.196385
  2H   4s        -0.103519 -0.008052
  2H   1pz       -0.035835  0.005544
  2H   1px       -0.371043  0.038070
  2H   1py       -0.647868  0.111119
  3H   1s         0.311660 -0.016306
  3H   2s         0.665364  0.225198
  3H   3s        -0.188577 -0.196479
  3H   4s         0.095601 -0.008113
  3H   1pz        0.637393  0.095720
  3H   1px        0.136694  0.035504
  3H   1py       -0.239012 -0.058491
  4H   1s         0.327010 -0.016307
  4H   2s         0.698223  0.225182
  4H   3s        -0.197896 -0.196464
  4H   4s         0.100312 -0.008096
  4H   1pz       -0.663371 -0.096082
  4H   1px        0.206919  0.043941
  4H   1py       -0.211510 -0.051779

                      0         1         2         3         4         5   
                 -14.85336  -1.08573  -0.62911  -0.62901  -0.62895  -0.00377
                   1.00000   1.00000   1.00000   1.00000   1.00000   0.00000
                  --------  --------  --------  --------  --------  --------
  0N   1s        -0.558854 -0.112802  0.000000  0.000000 -0.000003  0.033911
  0N   2s        -0.465727 -0.183593  0.000000  0.000000 -0.000005  0.058306
  0N   1pz       -0.000000 -0.000004  0.010226  0.108620  0.206244  0.000002
  0N   1px       -0.000000 -0.000010 -0.124189 -0.172140  0.096821 -0.000046
  0N   1py        0.000000  0.000008  0.197231 -0.114022  0.050270  0.000065
  0N   3s        -0.010044  0.504278  0.000008  0.000001  0.000015 -0.203345
  0N   2pz        0.000000 -0.000005  0.015588  0.165589  0.314406  0.000002
  0N   2px        0.000001 -0.000013 -0.189322 -0.262409  0.147595 -0.000082
  0N   2py       -0.000001  0.000012  0.300665 -0.173814  0.076632  0.000116
  0N   4s         0.000153  0.334342 -0.000035 -0.000019  0.000020 -0.257107
  0N   3pz        0.000000 -0.000004  0.010813  0.114787  0.218044 -0.000003
  0N   3px        0.000000  0.000008 -0.131250 -0.181946  0.102361 -0.000074
  0N   3py       -0.000000 -0.000010  0.208435 -0.120518  0.053154  0.000113
  0N   5s         0.004754  0.083357  0.000027 -0.000012 -0.000001 -1.975251
  0N   4pz       -0.000000 -0.000004  0.000195  0.002042  0.003912 -0.000019
  0N   4px       -0.000001 -0.000011 -0.002334 -0.003268  0.001830 -0.000088
  0N   4py        0.000001  0.000016  0.003700 -0.002171  0.000959  0.000193
  0N   1dz2       0.000000 -0.000007  0.014967  0.000585 -0.000916 -0.000007
  0N   1dxz       0.000000 -0.000002 -0.001895 -0.005746 -0.008355 -0.000002
  0N   1dyz       0.000000  0.000000 -0.000694  0.007923  0.011767 -0.000001
  0N   1dx2y2     0.000000 -0.000004 -0.001639 -0.013766  0.009432 -0.000002
  0N   1dxy       0.000001 -0.000009 -0.008560  0.004292 -0.002509 -0.000004
  1H   1s        -0.000244  0.078274 -0.092128 -0.126895  0.080188  0.013853
  1H   2s         0.001888  0.075827 -0.110150 -0.151771  0.095916  0.021166
  1H   3s        -0.002113 -0.033614 -0.009160 -0.012574  0.007971  0.325642
  1H   4s        -0.000021  0.000001 -0.012178 -0.016760  0.010602  0.508828
  1H   1pz       -0.000045 -0.000881  0.001428  0.007289  0.010858  0.000748
  1H   1px       -0.001027 -0.020156  0.012617  0.017321 -0.011615  0.016767
  1H   1py       -0.000008 -0.000155  0.011261 -0.006216  0.002700  0.000144
  2H   1s        -0.000244  0.078282 -0.110690  0.119561 -0.066889  0.013852
  2H   2s         0.001888  0.075840 -0.132361  0.143011 -0.080008  0.021164
  2H   3s        -0.002113 -0.033615 -0.011016  0.011849 -0.006643  0.325753
  2H   4s        -0.000021  0.000000 -0.014634  0.015790 -0.008837  0.508918
  2H   1pz        0.000049  0.000945 -0.000525  0.007302  0.010938 -0.000800
  2H   1px        0.000333  0.006531 -0.014634 -0.001450  0.000841 -0.005445
  2H   1py        0.000972  0.019067 -0.011179  0.017655 -0.010635 -0.015858
  3H   1s        -0.000244  0.078296  0.096007 -0.070287 -0.129866  0.013838
  3H   2s         0.001890  0.075835  0.114798 -0.084057 -0.155280  0.021133
  3H   3s        -0.002115 -0.033648  0.009498 -0.006950 -0.012872  0.325422
  3H   4s        -0.000022 -0.000011  0.012694 -0.009298 -0.017169  0.506549
  3H   1pz        0.000837  0.016409  0.017209 -0.006057 -0.010884 -0.013645
  3H   1px        0.000310  0.006095 -0.000805 -0.014213 -0.002916 -0.005055
  3H   1py       -0.000511 -0.010030  0.000933  0.001026  0.016575  0.008342
  4H   1s        -0.000244  0.078293  0.106829  0.077617  0.116561  0.013845
  4H   2s         0.001889  0.075835  0.127724  0.092831  0.139372  0.021143
  4H   3s        -0.002114 -0.033643  0.010570  0.007688  0.011546  0.325510
  4H   4s        -0.000022 -0.000008  0.014120  0.010271  0.015406  0.506497
  4H   1pz       -0.000840 -0.016471 -0.018004 -0.007381 -0.008656  0.013696
  4H   1px        0.000384  0.007530  0.001500 -0.003518  0.014708 -0.006271
  4H   1py       -0.000453 -0.008886  0.001072 -0.013702 -0.008112  0.007374
                      6         7         8         9        10        11   
                   0.04181   0.04183   0.04186   0.13887   0.13890   0.13892
                   0.00000   0.00000   0.00000   0.00000   0.00000   0.00000
                  --------  --------  --------  --------  --------  --------
  0N   1s        -0.000003 -0.000025  0.000001 -0.000081  0.000023  0.000030
  0N   2s        -0.000005 -0.000044  0.000002 -0.000139  0.000040  0.000051
  0N   1pz        0.020033 -0.001236 -0.056940 -0.001675 -0.021131 -0.017059
  0N   1px        0.042362 -0.040056  0.015764  0.015227 -0.014907  0.016953
  0N   1py        0.038111  0.045171  0.012420 -0.022473 -0.008519  0.012766
  0N   3s         0.000021  0.000164 -0.000006  0.000374 -0.000109 -0.000134
  0N   2pz        0.036103 -0.002228 -0.102616 -0.001726 -0.021849 -0.017580
  0N   2px        0.076330 -0.072175  0.028409  0.015690 -0.015395  0.017508
  0N   2py        0.068670  0.081388  0.022381 -0.023151 -0.008800  0.013188
  0N   4s         0.000006  0.000127 -0.000024  0.001938 -0.000517 -0.000711
  0N   3pz        0.014635 -0.000902 -0.041545 -0.008896 -0.111979 -0.090494
  0N   3px        0.030992 -0.029233  0.011486  0.080947 -0.079006  0.089906
  0N   3py        0.027867  0.032964  0.009050 -0.119462 -0.045136  0.067709
  0N   5s         0.000238  0.002952 -0.000010 -0.010829  0.003813  0.005654
  0N   4pz        0.143967 -0.008890 -0.410532 -0.182639 -2.292764 -1.855810
  0N   4px        0.305480 -0.289096  0.114245  1.655030 -1.618594  1.838486
  0N   4py        0.274751  0.326228  0.089986 -2.444758 -0.924402  1.383177
  0N   1dz2      -0.000354 -0.003401 -0.000022  0.037382 -0.002269 -0.000398
  0N   1dxz       0.000563  0.000323 -0.002253 -0.005282 -0.017680 -0.017977
  0N   1dyz      -0.000686  0.000303  0.003141 -0.000974  0.024928  0.025216
  0N   1dx2y2    -0.003587  0.001011 -0.000844 -0.005372  0.029812 -0.028931
  0N   1dxy       0.001408  0.001736  0.000317 -0.020956 -0.008396  0.010069
  1H   1s         0.002871 -0.002639  0.000872 -0.055368  0.058851 -0.060170
  1H   2s        -0.025457  0.023186 -0.007754 -0.011183  0.011706 -0.011683
  1H   3s         0.056407 -0.051973  0.016870 -1.530913  1.625843 -1.665747
  1H   4s        -2.112103  1.927063 -0.647692 -1.096362  1.165804 -1.193074
  1H   1pz        0.000301  0.000539 -0.002918 -0.002628 -0.019844 -0.017925
  1H   1px       -0.012702  0.011516 -0.003766 -0.006531  0.008214 -0.006753
  1H   1py        0.001695  0.002264  0.000557 -0.022441 -0.008240  0.012413
  2H   1s        -0.003354 -0.001971 -0.000924 -0.060697 -0.051351  0.061873
  2H   2s         0.029641  0.017292  0.008243 -0.012224 -0.010013  0.012308
  2H   3s        -0.065850 -0.038714 -0.017923 -1.678333 -1.420269  1.710371
  2H   4s         2.460008  1.438633  0.687514 -1.202864 -1.018330  1.224808
  2H   1pz        0.000139 -0.000537 -0.002946 -0.000528 -0.019913 -0.018034
  2H   1px       -0.003542 -0.005161 -0.000802  0.022763 -0.008250  0.008921
  2H   1py       -0.014399 -0.007324 -0.003942  0.000142  0.010539 -0.010246
  3H   1s        -0.000680  0.002342  0.003175  0.053221 -0.064575 -0.055953
  3H   2s         0.005937 -0.020723 -0.027957  0.009961 -0.012691 -0.010657
  3H   3s        -0.013559  0.045403  0.062472  1.477102 -1.786370 -1.549539
  3H   4s         0.492625 -1.725761 -2.319316  1.058582 -1.281589 -1.110455
  3H   1pz       -0.001835  0.009757  0.010446 -0.018598 -0.000336  0.000907
  3H   1px        0.000991  0.001722  0.005630  0.008770 -0.007134  0.023317
  3H   1py        0.003524 -0.003840 -0.007446 -0.011874 -0.020957  0.001724
  4H   1s         0.001155  0.002229 -0.003119  0.062647  0.057126  0.054302
  4H   2s        -0.010121 -0.019717  0.027491  0.011806  0.011439  0.010613
  4H   3s         0.022865  0.043128 -0.061405  1.738010  1.578430  1.501141
  4H   4s        -0.840765 -1.642018  2.279514  1.245977  1.132406  1.076336
  4H   1pz       -0.003835 -0.009437  0.010269  0.018351 -0.002646  0.000436
  4H   1px        0.004215  0.002377 -0.005184  0.005890 -0.023073  0.008813
  4H   1py       -0.000757 -0.002890  0.007584 -0.011451  0.001386  0.021911
                     12        13        14        15        16        17   
                   0.14641   0.20695   0.20701   0.20703   0.29903   0.47663
                   0.00000   0.00000   0.00000   0.00000   0.00000   0.00000
                  --------  --------  --------  --------  --------  --------
  0N   1s         0.050752 -0.000002 -0.000027  0.000004 -0.040236 -0.000001
  0N   2s         0.086649 -0.000003 -0.000048  0.000006 -0.066818 -0.000002
  0N   1pz        0.000020  0.047834  0.001389 -0.166332 -0.000018  0.030831
  0N   1px       -0.000058  0.131089 -0.106847  0.036807 -0.000036  0.031910
  0N   1py        0.000070  0.102392  0.136138  0.030583  0.000058  0.021052
  0N   3s        -0.232948  0.000014  0.000150 -0.000016  0.164174  0.000008
  0N   2pz        0.000025  0.064053  0.001863 -0.222732 -0.000016  0.095789
  0N   2px       -0.000074  0.175553 -0.143092  0.049306 -0.000019  0.099092
  0N   2py        0.000098  0.137126  0.182320  0.040965  0.000038  0.065382
  0N   4s        -1.204317 -0.000017  0.000548 -0.000115  1.477645 -0.000116
  0N   3pz        0.000082  0.259104  0.007554 -0.901485 -0.000110  0.664950
  0N   3px       -0.000262  0.710389 -0.579203  0.199506 -0.000380  0.687625
  0N   3py        0.000326  0.554898  0.738063  0.165764  0.000543  0.453656
  0N   5s         9.308721 -0.000641 -0.012507 -0.001416 17.946298 -0.000426
  0N   4pz        0.001654 -0.372504 -0.010767  1.297191 -0.000485 -1.218295
  0N   4px        0.002190 -1.023022  0.832959 -0.286930 -0.001052 -1.260174
  0N   4py       -0.004164 -0.798670 -1.061592 -0.238487  0.001585 -0.831426
  0N   1dz2       0.000059 -0.000436 -0.011159 -0.000126  0.000025  0.000656
  0N   1dxz       0.000018  0.001355  0.001226 -0.007473  0.000021  0.008643
  0N   1dyz      -0.000025 -0.001726  0.000768  0.010425  0.000015 -0.012046
  0N   1dx2y2     0.000004 -0.012069  0.002544 -0.002007  0.000018 -0.022199
  0N   1dxy      -0.000016  0.004280  0.005945  0.000817  0.000055  0.006925
  1H   1s         0.018148 -0.055593  0.043852 -0.012303 -0.075215 -0.080715
  1H   2s         0.245151 -0.271836  0.214109 -0.060270  0.062554 -1.288931
  1H   3s        -1.520954 -0.952790  0.755061 -0.210956 -4.962829  2.460451
  1H   4s        -0.985274  2.409951 -1.898436  0.533663 -0.822259  0.055088
  1H   1pz       -0.000067 -0.000432  0.000268  0.000314 -0.000542  0.017303
  1H   1px       -0.002226 -0.007350  0.005803 -0.001642 -0.012556  0.042581
  1H   1py       -0.000037 -0.000319 -0.000278 -0.000094 -0.000043  0.011246
  2H   1s         0.018112  0.058742  0.039060  0.013686 -0.075212  0.076542
  2H   2s         0.245167  0.287223  0.190788  0.066930  0.062544  1.222468
  2H   3s        -1.521844  1.007446  0.673040  0.235160 -4.962931 -2.333302
  2H   4s        -0.986055 -2.546151 -1.691868 -0.592857 -0.822402 -0.052336
  2H   1pz        0.000110 -0.000474 -0.000258  0.000299  0.000580  0.017325
  2H   1px        0.000736 -0.002744 -0.001350 -0.000655  0.004014  0.024689
  2H   1py        0.002105 -0.007274 -0.004997 -0.001709  0.011897  0.034232
  3H   1s         0.018288  0.011481 -0.040963 -0.057895 -0.075257  0.058646
  3H   2s         0.245053  0.055898 -0.200768 -0.283142  0.062467  0.936507
  3H   3s        -1.516962  0.197078 -0.700853 -0.992769 -4.966264 -1.787488
  3H   4s        -0.978919 -0.496698  1.777634  2.509377 -0.822655 -0.039939
  3H   1pz        0.001778 -0.001297  0.004217  0.006389  0.010198  0.031463
  3H   1px        0.000686 -0.000750  0.001804  0.002095  0.003785  0.022423
  3H   1py       -0.001114  0.000489 -0.002917 -0.003723 -0.006306  0.001670
  4H   1s         0.018187 -0.014640 -0.041858  0.056549 -0.075255 -0.054494
  4H   2s         0.245051 -0.071303 -0.205173  0.276439  0.062452 -0.870083
  4H   3s        -1.519768 -0.251149 -0.716329  0.970146 -4.965506  1.661018
  4H   4s        -0.980887  0.633082  1.816301 -2.449934 -0.822598  0.037190
  4H   1pz       -0.001787 -0.001634 -0.004333  0.006273 -0.010233  0.030431
  4H   1px        0.000838  0.000394  0.002248 -0.002779  0.004752  0.010207
[...]
  BVA  - Mayer's bonded valence
  FA   - Mayer's free valence

  ATOM       NA         ZA         QA         VA         BVA        FA
  0 N      7.5335     7.0000    -0.5335     3.3632     3.3632    -0.0000
  1 H      0.6166     1.0000     0.3834     0.8333     0.8333    -0.0000
  2 H      0.6167     1.0000     0.3833     0.8333     0.8333    -0.0000
  3 H      0.6166     1.0000     0.3834     0.8332     0.8332    -0.0000
  4 H      0.6166     1.0000     0.3834     0.8333     0.8333    -0.0000

  Mayer bond orders larger than 0.100000
B(  0-N ,  1-H ) :   0.8408 B(  0-N ,  2-H ) :   0.8408 B(  0-N ,  3-H ) :   0.8408 
B(  0-N ,  4-H ) :   0.8408 

Now starting NBO....

 *********************************** NBO 7.0 ***********************************
             N A T U R A L   A T O M I C   O R B I T A L   A N D
          N A T U R A L   B O N D   O R B I T A L   A N A L Y S I S
 *********************** Giovanni  F. Caramori (I101916) ***********************
  (c) Copyright 1996-2020 Board of Regents of the University of Wisconsin System
      on behalf of the Theoretical Chemistry Institute.  All rights reserved.

          Cite this program [NBO 7.0.8 (11-Feb-2020)] as:

          NBO 7.0.  E. D. Glendening, J. K. Badenhoop, A. E. Reed,
          J. E. Carpenter, J. A. Bohmann, C. M. Morales, P. Karafiloglou,
          C. R. Landis, and F. Weinhold, Theoretical Chemistry Institute,
          University of Wisconsin, Madison, WI (2018)

       /NPA    / : Natural Population Analysis
       /NBO    / : Natural Bond Orbital Analysis
       /AONBO  / : Checkpoint the AO to NBO transformation
       /ARCHIVE/ : Write the archive file to lfn47

 Job title: ORCA Job: NH4+

 SYMOPS: generated 121 symmetry operator(s) for Td but expected 24

 NBO analysis completed in 0.02 CPU seconds (0 wall seconds)
 Maximum scratch memory used by NBO was 5001 words (0.04 MB)
Stopping NBO...-------
TIMINGS
-------

Total SCF time: 0 days 0 hours 0 min 9 sec 

Total time                  ....       9.910 sec
Sum of individual times     ....       9.132 sec  ( 92.2%)

Fock matrix formation       ....       7.009 sec  ( 70.7%)
  XC integration            ....       1.788 sec  ( 25.5% of F)
    Basis function eval.    ....       0.161 sec  (  9.0% of XC)
    Density eval.           ....       0.544 sec  ( 30.4% of XC)
    XC-Functional eval.     ....       0.322 sec  ( 18.0% of XC)
    XC-Potential eval.      ....       0.265 sec  ( 14.8% of XC)
Diagonalization             ....       0.067 sec  (  0.7%)
Density matrix formation    ....       0.040 sec  (  0.4%)
Population analysis         ....       0.106 sec  (  1.1%)
Initial guess               ....       0.020 sec  (  0.2%)
Orbital Transformation      ....       0.000 sec  (  0.0%)
Orbital Orthonormalization  ....       0.002 sec  (  0.0%)
DIIS solution               ....       0.015 sec  (  0.1%)
Grid generation             ....       1.876 sec  ( 18.9%)


-------------------------------------------------------------------------------
                          DFT DISPERSION CORRECTION                            
                                                                               
                              DFTD3 V3.1  Rev 1                                
                              USING zero damping                               
-------------------------------------------------------------------------------
The M062X functional is recognized
Active option DFTDOPT                   ...         3   

molecular C6(AA) [au] = 119.796641 


            DFT-D V3
 parameters
 s6 scaling factor         :     1.0000 
 rs6 scaling factor        :     1.6190 
 s8 scaling factor         :     0.0000 
 rs8 scaling factor        :     1.0000 
 Damping factor alpha6     :    14.0000 
 Damping factor alpha8     :    16.0000 
 ad hoc parameters k1-k3   :    16.0000     1.3333    -4.0000 

 Edisp/kcal,au: -0.000054409157  -0.000000086707 
 E6   /kcal   :  -0.000054409 
 E8   /kcal   :  -0.000000000 
 % E8         :   0.000000000 

-------------------------   ----------------
Dispersion correction           -0.000000087
-------------------------   ----------------


-------------------------   --------------------
FINAL SINGLE POINT ENERGY       -57.012167814854
-------------------------   --------------------

                                *** OPTIMIZATION RUN DONE ***

                            ***************************************
                            *     ORCA property calculations      *
                            ***************************************

                                    ---------------------
                                    Active property flags
                                    ---------------------
   (+) Dipole Moment


------------------------------------------------------------------------------
                       ORCA ELECTRIC PROPERTIES CALCULATION
------------------------------------------------------------------------------

Dipole Moment Calculation                       ... on
Quadrupole Moment Calculation                   ... off
Polarizability Calculation                      ... off
GBWName                                         ... NH4+.gbw
Electron density file                           ... NH4+.scfp
The origin for moment calculation is the CENTER OF MASS  = (-7.916274, -0.778730  0.222971)

-------------
DIPOLE MOMENT
-------------
                                X             Y             Z
Electronic contribution:     -0.00003       0.00015       0.00003
Nuclear contribution   :      0.00002       0.00010      -0.00015
                        -----------------------------------------
Total Dipole Moment    :     -0.00002       0.00025      -0.00012
                        -----------------------------------------
Magnitude (a.u.)       :      0.00028
Magnitude (Debye)      :      0.00071



--------------------
Rotational spectrum 
--------------------
 
Rotational constants in cm-1:     6.016736     6.015187     6.012753 
Rotational constants in MHz : 180377.197156 180330.765990 180257.797898 

 Dipole components along the rotational axes: 
x,y,z [a.u.] :    -0.000194     0.000192    -0.000065 
x,y,z [Debye]:    -0.000492     0.000487    -0.000164 

 

----------------------------------------------------------------------------
                           ORCA NUMERICAL FREQUENCIES
                              (12-process run)
----------------------------------------------------------------------------

Number of atoms                ... 5
Central differences            ... used
Number of displacements        ... 30
Numerical increment            ... 5.000e-03 bohr
IR-spectrum generation         ... on
Raman-spectrum generation      ... off
Surface Crossing Hessian       ... off

The output will be reduced. Please look at the following files:
SCF program output             ... >NH4+.lastscf
Integral program output        ... >NH4+.lastint
Gradient program output        ... >NH4+.lastgrad
Dipole moment program output   ... >NH4+.lastmom
AutoCI program output          ... >NH4+.lastautoci


         <<< Energy and Gradient at the input geometry >>>

        <<< Energy and Gradient at displaced geometries >>>
             <<<Displacing   2/coordinate 2 (+)>>>
             <<<Displacing   1/coordinate 3 (+)>>>
             <<<Displacing   3/coordinate 2 (+)>>>
             <<<Displacing   3/coordinate 1 (+)>>>
             <<<Displacing   3/coordinate 3 (+)>>>
             <<<Displacing   1/coordinate 2 (+)>>>
             <<<Displacing   2/coordinate 1 (+)>>>
             <<<Displacing   1/coordinate 1 (+)>>>
             <<<Displacing   4/coordinate 3 (+)>>>
             <<<Displacing   2/coordinate 3 (+)>>>
             <<<Displacing   4/coordinate 1 (+)>>>
             <<<Displacing   4/coordinate 2 (+)>>>
             <<<Displacing   2/coordinate 2 (-)>>>
             <<<Displacing   1/coordinate 2 (-)>>>
             <<<Displacing   3/coordinate 2 (-)>>>
             <<<Displacing   3/coordinate 3 (-)>>>
             <<<Displacing   1/coordinate 3 (-)>>>
             <<<Displacing   3/coordinate 1 (-)>>>
             <<<Displacing   1/coordinate 1 (-)>>>
             <<<Displacing   2/coordinate 1 (-)>>>
             <<<Displacing   4/coordinate 1 (-)>>>
             <<<Displacing   4/coordinate 3 (-)>>>
             <<<Displacing   2/coordinate 3 (-)>>>
             <<<Displacing   4/coordinate 2 (-)>>>
             <<<Displacing   5/coordinate 1 (+)>>>
             <<<Displacing   5/coordinate 3 (+)>>>
             <<<Displacing   5/coordinate 2 (+)>>>
             <<<Displacing   5/coordinate 1 (-)>>>
             <<<Displacing   5/coordinate 3 (-)>>>
             <<<Displacing   5/coordinate 2 (-)>>>

-----------------------
VIBRATIONAL FREQUENCIES
-----------------------

Scaling factor for frequencies =  1.000000000 (already applied!)

   0:         0.00 cm**-1
   1:         0.00 cm**-1
   2:         0.00 cm**-1
   3:         0.00 cm**-1
   4:         0.00 cm**-1
   5:         0.00 cm**-1
   6:      1395.75 cm**-1
   7:      1401.85 cm**-1
   8:      1407.35 cm**-1
   9:      1649.82 cm**-1
  10:      1657.21 cm**-1
  11:      3442.01 cm**-1
  12:      3559.39 cm**-1
  13:      3559.47 cm**-1
  14:      3567.70 cm**-1


------------
NORMAL MODES
------------

These modes are the cartesian displacements weighted by the diagonal matrix
M(i,i)=1/sqrt(m[i]) where m[i] is the mass of the displaced atom
Thus, these vectors are normalized but *not* orthogonal

                  0          1          2          3          4          5    
      0       0.000000   0.000000   0.000000   0.000000   0.000000   0.000000
      1       0.000000   0.000000   0.000000   0.000000   0.000000   0.000000
      2       0.000000   0.000000   0.000000   0.000000   0.000000   0.000000
      3       0.000000   0.000000   0.000000   0.000000   0.000000   0.000000
      4       0.000000   0.000000   0.000000   0.000000   0.000000   0.000000
      5       0.000000   0.000000   0.000000   0.000000   0.000000   0.000000
      6       0.000000   0.000000   0.000000   0.000000   0.000000   0.000000
      7       0.000000   0.000000   0.000000   0.000000   0.000000   0.000000
      8       0.000000   0.000000   0.000000   0.000000   0.000000   0.000000
      9       0.000000   0.000000   0.000000   0.000000   0.000000   0.000000
     10       0.000000   0.000000   0.000000   0.000000   0.000000   0.000000
     11       0.000000   0.000000   0.000000   0.000000   0.000000   0.000000
     12       0.000000   0.000000   0.000000   0.000000   0.000000   0.000000
     13       0.000000   0.000000   0.000000   0.000000   0.000000   0.000000
     14       0.000000   0.000000   0.000000   0.000000   0.000000   0.000000
                  6          7          8          9         10         11    
      0       0.075675  -0.012267   0.075409  -0.000808   0.000628  -0.000769
      1      -0.004104   0.105320   0.021131   0.000385   0.000252  -0.002427
      2       0.076317   0.017872  -0.073416   0.000987  -0.000993  -0.000253
      3       0.084652   0.001012   0.042512   0.017933   0.013908   0.506353
      4       0.029101  -0.590410  -0.124311  -0.376662   0.331083   0.003882
      5      -0.407354  -0.101122   0.435940  -0.337297  -0.367773   0.022009
      6      -0.377301   0.267856  -0.330451   0.355268  -0.321256  -0.152752
      7       0.169892  -0.001510   0.129070  -0.136058   0.091972  -0.446121
      8      -0.421982  -0.073536   0.426016   0.324599   0.380516  -0.021031
      9      -0.255293  -0.012415  -0.523624   0.069472   0.467561  -0.152507
     10      -0.256453  -0.463506   0.039752   0.429768   0.020271   0.252988
     11       0.027228  -0.320425   0.166762   0.236393  -0.159559  -0.415305
     12      -0.503631  -0.085989  -0.236308  -0.431448  -0.168941  -0.190408
     13       0.114495  -0.408086  -0.338141   0.077600  -0.446826   0.222971
     14      -0.258374   0.246735  -0.008542  -0.237412   0.160620   0.417840
                  12         13         14    
      0       0.034054   0.066954   0.029707
      1      -0.014674  -0.025792   0.075163
      2      -0.071965   0.037058  -0.001553
      3      -0.327981  -0.731296  -0.305686
      4      -0.005005  -0.009295   0.005887
      5      -0.023437  -0.028974  -0.013519
      6       0.026818   0.012735  -0.282433
      7       0.065529   0.007727  -0.829341
      8      -0.005046   0.005109  -0.040785
      9       0.137727  -0.195702   0.094516
     10      -0.223028   0.334792  -0.139208
     11       0.352344  -0.550214   0.245498
     12      -0.309769  -0.016120   0.080803
     13       0.366414   0.025179  -0.081786
     14       0.676157   0.059134  -0.169610


-----------
IR SPECTRUM  
-----------

 Mode    freq (cm**-1)   T**2         TX         TY         TZ
-------------------------------------------------------------------
   6:      1395.75  227.020211  (-10.620434   0.518353 -10.675107)
   7:      1401.85  227.775344  (  1.757264 -14.795928  -2.401644)
   8:      1407.35  232.773904  (-10.671681  -3.091322  10.456235)
   9:      1649.82    0.052873  (  0.134126  -0.013553  -0.186280)
  10:      1657.21    0.050425  ( -0.122490  -0.092212   0.164067)
  11:      3442.01    0.428134  (  0.065207   0.648188   0.061116)
  12:      3559.39  254.750507  ( -6.624596   2.861046  14.236560)
  13:      3559.47  246.776866  (-12.972182   5.055021  -7.276409)
  14:      3567.70  243.486978  ( -5.730560 -14.509613   0.344660)

The first frequency considered to be a vibration is 6
The total number of vibrations considered is 9


--------------------------
THERMOCHEMISTRY AT 298.15K
--------------------------

Temperature         ... 298.15 K
Pressure            ... 1.00 atm
Total Mass          ... 18.04 AMU

Throughout the following assumptions are being made:
  (1) The electronic state is orbitally nondegenerate
  (2) There are no thermally accessible electronically excited states
  (3) Hindered rotations indicated by low frequency modes are not
      treated as such but are treated as vibrations and this may
      cause some error
  (4) All equations used are the standard statistical mechanics
      equations for an ideal gas
  (5) All vibrations are strictly harmonic

freq.    1395.75  E(vib)   ...       0.00 
freq.    1401.85  E(vib)   ...       0.00 
freq.    1407.35  E(vib)   ...       0.00 
freq.    1649.82  E(vib)   ...       0.00 
freq.    1657.21  E(vib)   ...       0.00 
freq.    3442.01  E(vib)   ...       0.00 
freq.    3559.39  E(vib)   ...       0.00 
freq.    3559.47  E(vib)   ...       0.00 
freq.    3567.70  E(vib)   ...       0.00 

------------
INNER ENERGY
------------

The inner energy is: U= E(el) + E(ZPE) + E(vib) + E(rot) + E(trans)
    E(el)   - is the total energy from the electronic structure calculation
              = E(kin-el) + E(nuc-el) + E(el-el) + E(nuc-nuc)
    E(ZPE)  - the the zero temperature vibrational energy from the frequency calculation
    E(vib)  - the the finite temperature correction to E(ZPE) due to population
              of excited vibrational states
    E(rot)  - is the rotational thermal energy
    E(trans)- is the translational thermal energy

Summary of contributions to the inner energy U:
Electronic energy                ...    -57.01216782 Eh
Zero point energy                ...      0.04930080 Eh      30.94 kcal/mol
Thermal vibrational correction   ...      0.00002732 Eh       0.02 kcal/mol
Thermal rotational correction    ...      0.00141627 Eh       0.89 kcal/mol
Thermal translational correction ...      0.00141627 Eh       0.89 kcal/mol
-----------------------------------------------------------------------
Total thermal energy                    -56.96000715 Eh


Summary of corrections to the electronic energy:
(perhaps to be used in another calculation)
Total thermal correction                  0.00285987 Eh       1.79 kcal/mol
Non-thermal (ZPE) correction              0.04930080 Eh      30.94 kcal/mol
-----------------------------------------------------------------------
Total correction                          0.05216067 Eh      32.73 kcal/mol


--------
ENTHALPY
--------

The enthalpy is H = U + kB*T
                kB is Boltzmann's constant
Total free energy                 ...    -56.96000715 Eh 
Thermal Enthalpy correction       ...      0.00094421 Eh       0.59 kcal/mol
-----------------------------------------------------------------------
Total Enthalpy                    ...    -56.95906294 Eh


Note: Only C1 symmetry has been detected, increase convergence thresholds 
      if your molecule has a higher symmetry. Symmetry factor of 1.0 is   
      used for the rotational entropy correction. 
 

Note: Rotational entropy computed according to Herzberg 
Infrared and Raman Spectra, Chapter V,1, Van Nostrand Reinhold, 1945 
Point Group:  C1, Symmetry Number:   1  
Rotational constants in cm-1:     6.016736     6.015187     6.012753 

Vibrational entropy computed according to the QRRHO of S. Grimme
Chem.Eur.J. 2012 18 9955


-------
ENTROPY
-------

The entropy contributions are T*S = T*(S(el)+S(vib)+S(rot)+S(trans))
     S(el)   - electronic entropy
     S(vib)  - vibrational entropy
     S(rot)  - rotational entropy
     S(trans)- translational entropy
The entropies will be listed as mutliplied by the temperature to get
units of energy

Electronic entropy                ...      0.00000000 Eh      0.00 kcal/mol
Vibrational entropy               ...      0.00003125 Eh      0.02 kcal/mol
Rotational entropy                ...      0.00696968 Eh      4.37 kcal/mol
Translational entropy             ...      0.01644569 Eh     10.32 kcal/mol
-----------------------------------------------------------------------
Final entropy term                ...      0.02344662 Eh     14.71 kcal/mol

In case the symmetry of your molecule has not been determined correctly
or in case you have a reason to use a different symmetry number we print 
out the resulting rotational entropy values for sn=1,12 :
 --------------------------------------------------------
|  sn= 1 | S(rot)=       0.00696968 Eh      4.37 kcal/mol|
|  sn= 2 | S(rot)=       0.00631523 Eh      3.96 kcal/mol|
|  sn= 3 | S(rot)=       0.00593239 Eh      3.72 kcal/mol|
|  sn= 4 | S(rot)=       0.00566077 Eh      3.55 kcal/mol|
|  sn= 5 | S(rot)=       0.00545008 Eh      3.42 kcal/mol|
|  sn= 6 | S(rot)=       0.00527794 Eh      3.31 kcal/mol|
|  sn= 7 | S(rot)=       0.00513239 Eh      3.22 kcal/mol|
|  sn= 8 | S(rot)=       0.00500631 Eh      3.14 kcal/mol|
|  sn= 9 | S(rot)=       0.00489510 Eh      3.07 kcal/mol|
|  sn=10 | S(rot)=       0.00479562 Eh      3.01 kcal/mol|
|  sn=11 | S(rot)=       0.00470563 Eh      2.95 kcal/mol|
|  sn=12 | S(rot)=       0.00462348 Eh      2.90 kcal/mol|
 --------------------------------------------------------


-------------------
GIBBS FREE ENERGY
-------------------

The Gibbs free energy is G = H - T*S

Total enthalpy                    ...    -56.95906294 Eh 
Total entropy correction          ...     -0.02344662 Eh    -14.71 kcal/mol
-----------------------------------------------------------------------
Final Gibbs free energy         ...    -56.98250956 Eh

For completeness - the Gibbs free energy minus the electronic energy
G-E(el)                           ...      0.02965826 Eh     18.61 kcal/mol


Total Time for Numerical Frequencies  :       124.644 sec

Timings for individual modules:

Sum of individual times         ...       79.415 sec (=   1.324 min)
GTO integral calculation        ...        7.646 sec (=   0.127 min)   9.6 %
SCF iterations                  ...       61.380 sec (=   1.023 min)  77.3 %
SCF Gradient evaluation         ...       10.313 sec (=   0.172 min)  13.0 %
Geometry relaxation             ...        0.076 sec (=   0.001 min)   0.1 %
                             ****ORCA TERMINATED NORMALLY****
TOTAL RUN TIME: 0 days 0 hours 3 minutes 14 seconds 132 msec
