(SLURM) JOB ID:         104

                                 *****************
                                 * O   R   C   A *
                                 *****************

           --- An Ab Initio, DFT and Semiempirical electronic structure package ---

                  #######################################################
                  #                        -***-                        #
                  #          Department of theory and spectroscopy      #
                  #               Directorship: Frank Neese             #
                  #        Max Planck Institute fuer Kohlenforschung    #
                  #                Kaiser Wilhelm Platz 1               #
                  #                 D-45470 Muelheim/Ruhr               #
                  #                      Germany                        #
                  #                                                     #
                  #                  All rights reserved                #
                  #                        -***-                        #
                  #######################################################


                         Program Version 4.2.1 -  RELEASE  -


 With contributions from (in alphabetic order):
   Daniel Aravena         : Magnetic Suceptibility
   Michael Atanasov       : Ab Initio Ligand Field Theory (pilot matlab implementation)
   Alexander A. Auer      : GIAO ZORA, VPT2
   Ute Becker             : Parallelization
   Giovanni Bistoni       : ED, misc. LED, open-shell LED, HFLD
   Martin Brehm           : Molecular dynamics
   Dmytro Bykov           : SCF Hessian
   Vijay G. Chilkuri      : MRCI spin determinant printing, contributions to CSF-ICE
   Dipayan Datta          : RHF DLPNO-CCSD density
   Achintya Kumar Dutta   : EOM-CC, STEOM-CC
   Dmitry Ganyushin       : Spin-Orbit,Spin-Spin,Magnetic field MRCI
   Miquel Garcia          : C-PCM Hessian, Gaussian charge scheme
   Yang Guo               : DLPNO-NEVPT2, CIM, IAO-localization
   Andreas Hansen         : Spin unrestricted coupled pair/coupled cluster methods
   Benjamin Helmich-Paris : CASSCF linear response (MC-RPA)
   Lee Huntington         : MR-EOM, pCC
   Robert Izsak           : Overlap fitted RIJCOSX, COSX-SCS-MP3, EOM
   Christian Kollmar      : KDIIS, OOCD, Brueckner-CCSD(T), CCSD density
   Simone Kossmann        : Meta GGA functionals, TD-DFT gradient, OOMP2, MP2 Hessian
   Martin Krupicka        : AUTO-CI
   Lucas Lang             : DCDCAS
   Dagmar Lenk            : GEPOL surface, SMD
   Dimitrios Liakos       : Extrapolation schemes; Compound Job, initial MDCI parallelization
   Dimitrios Manganas     : Further ROCIS development; embedding schemes
   Dimitrios Pantazis     : SARC Basis sets
   Taras Petrenko         : DFT Hessian,TD-DFT gradient, ASA, ECA, R-Raman, ABS, FL, XAS/XES, NRVS
   Peter Pinski           : DLPNO-MP2, DLPNO-MP2 Gradient
   Christoph Reimann      : Effective Core Potentials
   Marius Retegan         : Local ZFS, SOC
   Christoph Riplinger    : Optimizer, TS searches, QM/MM, DLPNO-CCSD(T), (RO)-DLPNO pert. Triples
   Tobias Risthaus        : Range-separated hybrids, TD-DFT gradient, RPA, STAB
   Michael Roemelt        : Original ROCIS implementation
   Masaaki Saitow         : Open-shell DLPNO-CCSD energy and density
   Barbara Sandhoefer     : DKH picture change effects
   Avijit Sen             : IP-ROCIS
   Kantharuban Sivalingam : CASSCF convergence, NEVPT2, FIC-MRCI
   Bernardo de Souza      : ESD, SOC TD-DFT
   Georgi Stoychev        : AutoAux, RI-MP2 NMR
   Willem Van den Heuvel  : Paramagnetic NMR
   Boris Wezisla          : Elementary symmetry handling
   Frank Wennmohs         : Technical directorship


 We gratefully acknowledge several colleagues who have allowed us to
 interface, adapt or use parts of their codes:
   Stefan Grimme, W. Hujo, H. Kruse,             : VdW corrections, initial TS optimization,
                  C. Bannwarth                     DFT functionals, gCP, sTDA/sTD-DF
   Ed Valeev, F. Pavosevic, A. Kumar             : LibInt (2-el integral package), F12 methods
   Garnet Chan, S. Sharma, J. Yang, R. Olivares  : DMRG
   Ulf Ekstrom                                   : XCFun DFT Library
   Mihaly Kallay                                 : mrcc  (arbitrary order and MRCC methods)
   Andreas Klamt, Michael Diedenhofen            : otool_cosmo (COSMO solvation model)
   Jiri Pittner, Ondrej Demel                    : Mk-CCSD
   Frank Weinhold                                : gennbo (NPA and NBO analysis)
   Christopher J. Cramer and Donald G. Truhlar   : smd solvation model
   Lars Goerigk                                  : TD-DFT with DH, B97 family of functionals
   V. Asgeirsson, H. Jonsson                     : NEB implementation
   FAccTs GmbH                                   : IRC, NEB, NEB-TS, Multilevel, MM, QM/MM, CI optimization
   S Lehtola, MJT Oliveira, MAL Marques          : LibXC Library


 Your calculation uses the libint2 library for the computation of 2-el integrals
 For citations please refer to: http://libint.valeyev.net

 Your ORCA version has been built with support for libXC version: 4.2.3
 For citations please refer to: https://tddft.org/programs/libxc/

 This ORCA versions uses:
   CBLAS   interface :  Fast vector & matrix operations
   LAPACKE interface :  Fast linear algebra routines
   SCALAPACK package :  Parallel linear algebra routines




***************************************
The coordinates will be read from file: init.xyz
***************************************


Your calculation utilizes the SMD solvation module
Please cite in your paper:
A.V. Marenich, C.J. Cramer, D.G. Truhlar J. Phys. Chem. B, 113, (2009), 6378 

Your calculation utilizes the semiempirical GFN2-xTB method
Please cite in your paper:
C. Bannwarth, Ehlert S., S. Grimme,  J. Chem. Theory Comput., 15, (2019), 1652.
   

----- Orbital basis set information -----
Your calculation utilizes the basis: def2-SVP
   F. Weigend and R. Ahlrichs, Phys. Chem. Chem. Phys. 7, 3297 (2005).

================================================================================
                                        WARNINGS
                       Please study these warnings very carefully!
================================================================================

WARNING: Gradients needed for Numerical Frequencies
  ===> : Setting RunTyp to EnGrad

WARNING: The environment variable RSH_COMMAND is not set!
  ===> : All Displacements for the Numerical Hessian calculation
         will be started on localhost

WARNING: Found dipole moment calculation with XTB calculation
  ===> : Switching off dipole moment calculation


INFO   : the flag for use of LIBINT has been found!

================================================================================
                                       INPUT FILE
================================================================================
NAME = /tmp/slurm-scratch/freq.104/freq.inp
|  1> ! XTB2 NumFreq
|  2> %maxcore 1450
|  3> 
|  4> * xyzfile 0 1 init.xyz
|  5> 
|  6> %cpcm
|  7>  smd true
|  8>  smdsolvent "ch2cl2"
|  9> end
| 10> %pal nprocs 8 end
| 11> 
| 12>                          ****END OF INPUT****
================================================================================

                     *******************************
                     * Energy+Gradient Calculation *
                     *******************************

      -----------------------------------------------------------      
     |                   =====================                   |     
     |                           x T B                           |     
     |                   =====================                   |     
     |                         S. Grimme                         |     
     |          Mulliken Center for Theoretical Chemistry        |     
     |                    University of Bonn                     |     
      -----------------------------------------------------------      

   * xtb version 6.3.0 (preview) compiled by 'ehlert@majestix' on 2020-01-15

   This program is distributed in the hope that it will be useful,
   but WITHOUT ANY WARRANTY; without even the implied warranty of
   MERCHANTABILITY or FITNESS FOR A PARTICULAR PURPOSE.
   
   FOR NON-COMMERCIAL, ACADEMIA USE ONLY.
   
   Cite this work as:
   * S. Grimme, C. Bannwarth, P. Shushkov, J. Chem. Theory Comput., 2017,
     13, 1989-2009. DOI: 10.1021/acs.jctc.7b00118
   * C. Bannwarth, S. Ehlert and S. Grimme., J. Chem. Theory Comput., 2019,
     15, 1652-1671. DOI: 10.1021/acs.jctc.8b01176
   * P. Pracht, E. Caldeweyher, S. Ehlert, S. Grimme, ChemRxiv, 2019, preprint.
     DOI: 10.26434/chemrxiv.8326202.v1
   * S. Grimme, S. Spicher unpublished
   
   for DFT-D4:
   * E. Caldeweyher, C. Bannwarth and S. Grimme, J. Chem. Phys., 2017,
     147, 034112. DOI: 10.1063/1.4993215
   * E. Caldeweyher, S. Ehlert, A. Hansen, H. Neugebauer, S. Spicher,
     C. Bannwarth and S. Grimme, J. Chem. Phys., 2019, 150, 154122.
     DOI: 10.1063/1.5090222
   
   for sTDA-xTB:
   * S. Grimme and C. Bannwarth, J. Chem. Phys., 2016, 145, 054103.
     DOI: 10.1063/1.4959605
   
   in the mass-spec context:
   * V. Asgeirsson, C. Bauer and S. Grimme, Chem. Sci., 2017, 8, 4879.
     DOI: 10.1039/c7sc00601b
   
   for metadynamics refer to:
   * S. Grimme, J. Chem. Theory Comput., 2019, 155, 2847-2862
     DOI: 10.1021/acs.jctc.9b00143
   
   with help from (in alphabetical order)
   C. Bannwarth, F. Bohle, G. Brandenburg, E. Caldeweyher, M. Checinski,
   S. Dohm, S. Ehlert, S. Ehrlich, F. März, H. Neugebauer, J. Pisarek,
   P. Pracht, P. Shushkov, and S. Spicher.
   
 * started run on 2020/08/20 at 05:56:37.179     

           -------------------------------------------------
          |                Calculation Setup                |
           -------------------------------------------------

          program call               : /opt/orca/otool_xtb /tmp/slurm-scratch/freq.104/freq_XTB.xyz --grad -c 0 -u 0 -P 8 --namespace /tmp/slurm-scratch/freq.104/freq --gbsa CH2Cl2
          hostname                   : headnode-pbs
          calculation namespace      : /tmp/slurm-scratch/freq.104/freq
          coordinate file            : /tmp/slurm-scratch/freq.104/freq_XTB.xyz
          omp threads                :                     8
          number of atoms            :                    46
          number of electrons        :                   104
          charge                     :                     0
          spin                       :                   0.0
          first test random number   :      0.97197415661896


molecular fragmentation (1/2 indicates fragments):
1111111111211112222221112221111122211122221111
# atoms in fragment 1/2:    29    17
 fragment masses (1/2) :      178.25       74.14
CMA distance (Bohr)    :   9.359
constraining FC (au)   :  0.0500

########################################################################
# WARNING! Please study the warnings concerning your input carefully
#  - Process number higher than OMP_NUM_THREADS, I hope you know what you are doing.
########################################################################

           ------------------------------------------------- 
          |                 G F N 2 - x T B                 |
          | Geometry, Frequencies, Noncovalent interactions |
          |            JCTC 2019 parametrisation            |
           ------------------------------------------------- 
             k(s)              :                1.8500
             k(p)              :                2.2300
             k(d)              :                2.2300
             k(f)              :                2.0000
             kEN (H0ij)        :               -2.0000
             D4 a1             :                0.5200
             D4 a2             :                5.0000
             D4 s6             :                1.0000
             D4 s8             :                2.7000
             D4 s9             :                5.0000
             alphaj            :                2.0000

  Z AO/shell   Hii/eV     exponent
  1     Wed Apr 25 08:07:45 CEST 2018   EN: 2.200 GM2: 0.406  GM3: 0.0800  RAES: 1.40
     1s    -10.707211    1.230000
  6     Wed Apr 25 08:07:45 CEST 2018   EN: 2.550 GM2: 0.538  GM3: 0.1500  RAES: 3.00
     2s    -13.970922    2.096432
     2p    -10.063292    1.800000
  7     Wed Apr 25 08:07:45 CEST 2018   EN: 3.040 GM2: 0.461  GM3:-0.0640  RAES: 1.90
     2s    -16.686243    2.339881
     2p    -12.523956    2.014332
  8     Wed Apr 25 08:07:45 CEST 2018   EN: 3.440 GM2: 0.452  GM3:-0.0517  RAES: 1.80
     2s    -20.229985    2.439742
     2p    -15.503117    2.137023

 Solvent             : CH2Cl2
 Using internal parameter file: .param_gbsa2_CH2Cl2
 Gsolv ref. state (COSMO-RS): gsolv [1 M gas/solution]
 temperature (mdtemp)       :    298.150000000000     
 dielectric constant        :    8.93000000000000     
 rho                        :    1.33000000000000     
 mass                       :    84.9300000000000     
 surface tension            :    15.5689454083859     
 probe radius               :   0.719875900000000     
 Gshift (Eh)                :   4.440829173451759E-003
 c1                         :    1.49173776000000     
 soset                      :   0.000000000000000E+000
 HB correction              :  F
           ------------------------------------------------- 
          |        Self-Consistent Charge Iterations        |
           ------------------------------------------------- 

          ...................................................
          :                      SETUP                      :
          :.................................................:
          :  # basis functions                 100          :
          :  # atomic orbitals                 100          :
          :  # shells                           64          :
          :  # electrons                       104          :
          :  max. iterations                   250          :
          :  Hamiltonian                  GFN2-xTB          :
          :  GBSA solvation                   true          :
          :  PC potential                    false          :
          :  electronic temp.          300.0000000     K    :
          :  accuracy                    1.0000000          :
          :  -> integral cutoff          0.2500000E+02      :
          :  -> integral neglect         0.1000000E-07      :
          :  -> SCF convergence          0.1000000E-05 Eh   :
          :  -> wf. convergence          0.1000000E-03 e    :
          :  Broyden damping             0.4000000          :
          ...................................................
  Checking positiv definite overlap ...  done.
 

 iter      E             dE          RMSdq      gap      omega  full diag
   1    -56.8491849 -0.568492E+02  0.347E+00    3.68       0.0  T
   2    -56.9821081 -0.132923E+00  0.188E+00    3.39       1.0  T
   3    -56.9864901 -0.438202E-02  0.858E-01    2.68       1.0  T
   4    -56.9862079  0.282222E-03  0.363E-01    2.57       1.0  T
   5    -56.9908497 -0.464185E-02  0.862E-02    2.71       1.0  T
   6    -56.9909185 -0.687197E-04  0.422E-02    2.75       1.0  T
   7    -56.9909344 -0.159648E-04  0.176E-02    2.76       1.0  T
   8    -56.9909372 -0.277380E-05  0.708E-03    2.76       2.1  T
   9    -56.9909380 -0.824623E-06  0.311E-03    2.76       4.7  T
  10    -56.9909381 -0.559801E-07  0.137E-03    2.75      10.8  T
  11    -56.9909381 -0.977667E-08  0.670E-04    2.75      22.0  T
  12    -56.9909381 -0.681392E-08  0.186E-04    2.76      79.2  T

   *** convergence criteria satisfied after 12 iterations ***

         #    Occupation            Energy/Eh            Energy/eV
      -------------------------------------------------------------
         1        2.0000           -0.6697576             -18.2250
       ...           ...                  ...                  ...
        46        2.0000           -0.4264716             -11.6049
        47        2.0000           -0.4205813             -11.4446
        48        2.0000           -0.4037959             -10.9878
        49        2.0000           -0.4012196             -10.9177
        50        2.0000           -0.3930682             -10.6959
        51        2.0000           -0.3440276              -9.3615
        52        2.0000           -0.3300253              -8.9804 (HOMO)
        53                         -0.2287756              -6.2253 (LUMO)
        54                         -0.2266127              -6.1664
        55                         -0.1093267              -2.9749
        56                         -0.0635792              -1.7301
        57                         -0.0415841              -1.1316
       ...                                ...                  ...
       100                          0.6156172              16.7518
      -------------------------------------------------------------
                  HL-Gap            0.1012498 Eh            2.7551 eV
             Fermi-level           -0.2794004 Eh           -7.6029 eV

 SCC (total)                   0 d,  0 h,  0 min,  0.083 sec
 SCC setup                      ...        0 min,  0.003 sec (  3.512%)
 Dispersion                     ...        0 min,  0.001 sec (  1.316%)
 integral evaluation            ...        0 min,  0.017 sec ( 20.038%)
 zeroth order Hamiltonian       ...        0 min,  0.000 sec (  0.047%)
 iterations                     ...        0 min,  0.042 sec ( 51.196%)
 molecular gradient             ...        0 min,  0.019 sec ( 22.789%)
 printout                       ...        0 min,  0.001 sec (  0.965%)

         :::::::::::::::::::::::::::::::::::::::::::::::::::::
         ::                     SUMMARY                     ::
         :::::::::::::::::::::::::::::::::::::::::::::::::::::
         :: total energy             -56.273159914273 Eh    ::
         :: total w/o Gsasa/hb       -56.250274303717 Eh    ::
         :: gradient norm              0.051997736607 Eh/a0 ::
         :: HOMO-LUMO gap              2.755145949889 eV    ::
         ::.................................................::
         :: SCC energy               -57.013823707936 Eh    ::
         :: -> isotropic ES            0.116467385752 Eh    ::
         :: -> anisotropic ES          0.003256347466 Eh    ::
         :: -> anisotropic XC          0.031631412365 Eh    ::
         :: -> dispersion             -0.037762184934 Eh    ::
         :: -> Gsolv                  -0.041847845018 Eh    ::
         ::    -> Gborn               -0.018962234463 Eh    ::
         ::    -> Gsasa               -0.027326439729 Eh    ::
         ::    -> Ghb                  0.000000000000 Eh    ::
         ::    -> Gshift               0.004440829173 Eh    ::
         :: repulsion energy           0.740134962557 Eh    ::
         :: add. restraining           0.000000000000 Eh    ::
         :::::::::::::::::::::::::::::::::::::::::::::::::::::

           -------------------------------------------------
          |                Property Printout                |
           -------------------------------------------------

    * Orbital Energies and Occupations

         #    Occupation            Energy/Eh            Energy/eV
      -------------------------------------------------------------
         1        2.0000           -0.6697576             -18.2250
       ...           ...                  ...                  ...
        40        2.0000           -0.4501149             -12.2483
        41        2.0000           -0.4461470             -12.1403
        42        2.0000           -0.4423670             -12.0374
        43        2.0000           -0.4419240             -12.0254
        44        2.0000           -0.4303514             -11.7105
        45        2.0000           -0.4291809             -11.6786
        46        2.0000           -0.4264716             -11.6049
        47        2.0000           -0.4205813             -11.4446
        48        2.0000           -0.4037959             -10.9878
        49        2.0000           -0.4012196             -10.9177
        50        2.0000           -0.3930682             -10.6959
        51        2.0000           -0.3440276              -9.3615
        52        2.0000           -0.3300253              -8.9804 (HOMO)
        53                         -0.2287756              -6.2253 (LUMO)
        54                         -0.2266127              -6.1664
        55                         -0.1093267              -2.9749
        56                         -0.0635792              -1.7301
        57                         -0.0415841              -1.1316
        58                          0.0156712               0.4264
        59                          0.0388137               1.0562
        60                          0.0638252               1.7368
        61                          0.0766007               2.0844
        62                          0.0836871               2.2772
        63                          0.0904097               2.4602
       ...                                ...                  ...
       100                          0.6156172              16.7518
      -------------------------------------------------------------
                  HL-Gap            0.1012498 Eh            2.7551 eV
             Fermi-level           -0.2794004 Eh           -7.6029 eV

     #   Z        covCN         q      C6AA      α(0)
     1   6 C      2.907    -0.034    28.857     8.808
     2   6 C      2.912    -0.044    29.103     8.846
     3   6 C      2.955    -0.029    28.715     8.789
     4   6 C      2.912    -0.034    28.835     8.805
     5   6 C      2.908    -0.035    28.870     8.810
     6   6 C      2.908    -0.035    28.877     8.812
     7   1 H      0.924     0.016     2.792     2.613
     8   1 H      0.925     0.036     2.507     2.476
     9   1 H      0.925     0.035     2.514     2.479
    10   7 N      3.006    -0.283    27.277     7.757
    11   1 H      1.108     0.252     0.865     1.452
    12   6 C      3.728     0.005    20.586     6.477
    13   1 H      0.923     0.039     2.467     2.456
    14   1 H      0.923     0.048     2.343     2.394
    15   1 H      0.859     0.155     1.368     1.832
    16   7 N      3.373    -0.239    26.219     7.605
    17   1 H      0.859     0.202     1.098     1.642
    18   1 H      0.856     0.249     0.886     1.475
    19   6 C      3.728    -0.007    20.807     6.512
    20   1 H      0.924     0.065     2.145     2.290
    21   1 H      0.923     0.064     2.148     2.292
    22   6 C      3.634     0.206    17.693     6.054
    23   1 H      0.920    -0.050     4.083     3.160
    24   8 O      0.854    -0.740    29.839     7.324
    25   6 C      3.797    -0.072    21.878     6.660
    26   1 H      0.923     0.053     2.286     2.365
    27   1 H      0.923     0.048     2.349     2.397
    28   6 C      3.796    -0.059    21.645     6.625
    29   1 H      0.923     0.029     2.598     2.521
    30   1 H      0.923     0.033     2.539     2.492
    31   1 H      0.925     0.035     2.523     2.484
    32   1 H      0.925     0.033     2.546     2.495
    33   6 C      3.796    -0.056    21.578     6.615
    34   1 H      0.923     0.038     2.480     2.463
    35   1 H      0.923     0.041     2.438     2.442
    36   6 C      3.795    -0.054    21.546     6.610
    37   1 H      0.923     0.032     2.560     2.502
    38   1 H      0.923     0.036     2.498     2.472
    39   6 C      3.745    -0.104    22.564     6.776
    40   1 H      0.923     0.038     2.482     2.464
    41   1 H      0.923     0.039     2.459     2.452
    42   1 H      0.923     0.039     2.457     2.451
    43   6 C      3.745    -0.100    22.490     6.765
    44   1 H      0.923     0.039     2.462     2.454
    45   1 H      0.923     0.033     2.543     2.494
    46   1 H      0.923     0.037     2.492     2.469

 Mol. C6AA /au·bohr⁶  :      17266.012862
 Mol. C8AA /au·bohr⁸  :     377963.407767
 Mol. α(0) /au        :        200.626979


Wiberg/Mayer (AO) data.
largest (>0.10) Wiberg bond orders for each atom
          total WBO             WBO to atom ...
     1  C   3.990        C    2 1.450    C    6 1.430    H   32 0.971    C    4 0.109
     2  C   3.990        C    1 1.450    C    3 1.405    H    7 0.968    C    5 0.112
     3  C   3.979        C    4 1.421    C    2 1.405    C   22 0.949    C    6 0.110
     4  C   3.990        C    5 1.435    C    3 1.421    H    8 0.966    C    1 0.109
     5  C   3.990        C    6 1.444    C    4 1.435    H   31 0.971    C    2 0.112
     6  C   3.990        C    5 1.444    C    1 1.430    H    9 0.971    C    3 0.110
     7  H   1.000        C    2 0.968
     8  H   0.999        C    4 0.966
     9  H   0.998        C    6 0.971
    10  N   3.388        C   12 0.997    H   15 0.950    C   22 0.802    H   11 0.349    N   16 0.128
    11  H   0.936        N   16 0.564    N   10 0.349
    12  C   3.975        C   28 1.004    N   10 0.997    H   14 0.973    H   13 0.971
    13  H   0.998        C   12 0.971
    14  H   0.998        C   12 0.973
    15  H   0.976        N   10 0.950
    16  N   3.532        C   19 0.979    H   17 0.944    H   18 0.845    H   11 0.564    N   10 0.128
    17  H   0.959        N   16 0.944
    18  H   0.937        N   16 0.845
    19  C   3.950        C   25 1.006    N   16 0.979    H   21 0.972    H   20 0.971
    20  H   0.996        C   19 0.971
    21  H   0.996        C   19 0.972
    22  C   3.958        O   24 1.225    C    3 0.949    H   23 0.929    N   10 0.802
    23  H   0.997        C   22 0.929
    24  O   1.548        C   22 1.225
    25  C   3.991        C   19 1.006    C   33 1.004    H   27 0.975    H   26 0.974
    26  H   0.997        C   25 0.974
    27  H   0.998        C   25 0.975
    28  C   3.996        C   36 1.005    C   12 1.004    H   30 0.976    H   29 0.974
    29  H   0.999        C   28 0.974
    30  H   0.999        C   28 0.976
    31  H   0.998        C    5 0.971
    32  H   0.998        C    1 0.971
    33  C   3.994        C   39 1.019    C   25 1.004    H   34 0.978    H   35 0.977
    34  H   0.999        C   33 0.978
    35  H   0.998        C   33 0.977
    36  C   3.995        C   43 1.019    C   28 1.005    H   37 0.978    H   38 0.978
    37  H   0.999        C   36 0.978
    38  H   0.999        C   36 0.978
    39  C   3.995        C   33 1.019    H   40 0.988    H   42 0.987    H   41 0.987
    40  H   0.999        C   39 0.988
    41  H   0.998        C   39 0.987
    42  H   0.998        C   39 0.987
    43  C   3.996        C   36 1.019    H   45 0.988    H   46 0.988    H   44 0.987
    44  H   0.998        C   43 0.987
    45  H   0.999        C   43 0.988
    46  H   0.999        C   43 0.988

molecular dipole:
                 x           y           z       tot (Debye)
 q only:       -1.049      -2.869      -1.671
   full:       -1.295      -2.472      -1.655       8.247
molecular quadrupole (traceless):
                xx          xy          yy          xz          yz          zz
 q only:       -2.453     -11.664      33.686     -22.446     -18.349     -31.232
  q+dip:       -1.587     -11.745      32.151     -24.095     -19.611     -30.564
   full:       -2.345     -10.529      33.072     -24.043     -17.718     -30.727

           -------------------------------------------------
          |                Property Printout                |
           -------------------------------------------------

    * Orbital Energies and Occupations

         #    Occupation            Energy/Eh            Energy/eV
      -------------------------------------------------------------
         1        2.0000           -0.6697576             -18.2250
       ...           ...                  ...                  ...
        40        2.0000           -0.4501149             -12.2483
        41        2.0000           -0.4461470             -12.1403
        42        2.0000           -0.4423670             -12.0374
        43        2.0000           -0.4419240             -12.0254
        44        2.0000           -0.4303514             -11.7105
        45        2.0000           -0.4291809             -11.6786
        46        2.0000           -0.4264716             -11.6049
        47        2.0000           -0.4205813             -11.4446
        48        2.0000           -0.4037959             -10.9878
        49        2.0000           -0.4012196             -10.9177
        50        2.0000           -0.3930682             -10.6959
        51        2.0000           -0.3440276              -9.3615
        52        2.0000           -0.3300253              -8.9804 (HOMO)
        53                         -0.2287756              -6.2253 (LUMO)
        54                         -0.2266127              -6.1664
        55                         -0.1093267              -2.9749
        56                         -0.0635792              -1.7301
        57                         -0.0415841              -1.1316
        58                          0.0156712               0.4264
        59                          0.0388137               1.0562
        60                          0.0638252               1.7368
        61                          0.0766007               2.0844
        62                          0.0836871               2.2772
        63                          0.0904097               2.4602
       ...                                ...                  ...
       100                          0.6156172              16.7518
      -------------------------------------------------------------
                  HL-Gap            0.1012498 Eh            2.7551 eV
             Fermi-level           -0.2794004 Eh           -7.6029 eV

     #   Z        covCN         q      C6AA      α(0)
     1   6 C      2.907    -0.034    28.857     8.808
     2   6 C      2.912    -0.044    29.103     8.846
     3   6 C      2.955    -0.029    28.715     8.789
     4   6 C      2.912    -0.034    28.835     8.805
     5   6 C      2.908    -0.035    28.870     8.810
     6   6 C      2.908    -0.035    28.877     8.812
     7   1 H      0.924     0.016     2.792     2.613
     8   1 H      0.925     0.036     2.507     2.476
     9   1 H      0.925     0.035     2.514     2.479
    10   7 N      3.006    -0.283    27.277     7.757
    11   1 H      1.108     0.252     0.865     1.452
    12   6 C      3.728     0.005    20.586     6.477
    13   1 H      0.923     0.039     2.467     2.456
    14   1 H      0.923     0.048     2.343     2.394
    15   1 H      0.859     0.155     1.368     1.832
    16   7 N      3.373    -0.239    26.219     7.605
    17   1 H      0.859     0.202     1.098     1.642
    18   1 H      0.856     0.249     0.886     1.475
    19   6 C      3.728    -0.007    20.807     6.512
    20   1 H      0.924     0.065     2.145     2.290
    21   1 H      0.923     0.064     2.148     2.292
    22   6 C      3.634     0.206    17.693     6.054
    23   1 H      0.920    -0.050     4.083     3.160
    24   8 O      0.854    -0.740    29.839     7.324
    25   6 C      3.797    -0.072    21.878     6.660
    26   1 H      0.923     0.053     2.286     2.365
    27   1 H      0.923     0.048     2.349     2.397
    28   6 C      3.796    -0.059    21.645     6.625
    29   1 H      0.923     0.029     2.598     2.521
    30   1 H      0.923     0.033     2.539     2.492
    31   1 H      0.925     0.035     2.523     2.484
    32   1 H      0.925     0.033     2.546     2.495
    33   6 C      3.796    -0.056    21.578     6.615
    34   1 H      0.923     0.038     2.480     2.463
    35   1 H      0.923     0.041     2.438     2.442
    36   6 C      3.795    -0.054    21.546     6.610
    37   1 H      0.923     0.032     2.560     2.502
    38   1 H      0.923     0.036     2.498     2.472
    39   6 C      3.745    -0.104    22.564     6.776
    40   1 H      0.923     0.038     2.482     2.464
    41   1 H      0.923     0.039     2.459     2.452
    42   1 H      0.923     0.039     2.457     2.451
    43   6 C      3.745    -0.100    22.490     6.765
    44   1 H      0.923     0.039     2.462     2.454
    45   1 H      0.923     0.033     2.543     2.494
    46   1 H      0.923     0.037     2.492     2.469

 Mol. C6AA /au·bohr⁶  :      17266.012862
 Mol. C8AA /au·bohr⁸  :     377963.407767
 Mol. α(0) /au        :        200.626979


Wiberg/Mayer (AO) data.
largest (>0.10) Wiberg bond orders for each atom
          total WBO             WBO to atom ...
     1  C   3.990        C    2 1.450    C    6 1.430    H   32 0.971    C    4 0.109
     2  C   3.990        C    1 1.450    C    3 1.405    H    7 0.968    C    5 0.112
     3  C   3.979        C    4 1.421    C    2 1.405    C   22 0.949    C    6 0.110
     4  C   3.990        C    5 1.435    C    3 1.421    H    8 0.966    C    1 0.109
     5  C   3.990        C    6 1.444    C    4 1.435    H   31 0.971    C    2 0.112
     6  C   3.990        C    5 1.444    C    1 1.430    H    9 0.971    C    3 0.110
     7  H   1.000        C    2 0.968
     8  H   0.999        C    4 0.966
     9  H   0.998        C    6 0.971
    10  N   3.388        C   12 0.997    H   15 0.950    C   22 0.802    H   11 0.349    N   16 0.128
    11  H   0.936        N   16 0.564    N   10 0.349
    12  C   3.975        C   28 1.004    N   10 0.997    H   14 0.973    H   13 0.971
    13  H   0.998        C   12 0.971
    14  H   0.998        C   12 0.973
    15  H   0.976        N   10 0.950
    16  N   3.532        C   19 0.979    H   17 0.944    H   18 0.845    H   11 0.564    N   10 0.128
    17  H   0.959        N   16 0.944
    18  H   0.937        N   16 0.845
    19  C   3.950        C   25 1.006    N   16 0.979    H   21 0.972    H   20 0.971
    20  H   0.996        C   19 0.971
    21  H   0.996        C   19 0.972
    22  C   3.958        O   24 1.225    C    3 0.949    H   23 0.929    N   10 0.802
    23  H   0.997        C   22 0.929
    24  O   1.548        C   22 1.225
    25  C   3.991        C   19 1.006    C   33 1.004    H   27 0.975    H   26 0.974
    26  H   0.997        C   25 0.974
    27  H   0.998        C   25 0.975
    28  C   3.996        C   36 1.005    C   12 1.004    H   30 0.976    H   29 0.974
    29  H   0.999        C   28 0.974
    30  H   0.999        C   28 0.976
    31  H   0.998        C    5 0.971
    32  H   0.998        C    1 0.971
    33  C   3.994        C   39 1.019    C   25 1.004    H   34 0.978    H   35 0.977
    34  H   0.999        C   33 0.978
    35  H   0.998        C   33 0.977
    36  C   3.995        C   43 1.019    C   28 1.005    H   37 0.978    H   38 0.978
    37  H   0.999        C   36 0.978
    38  H   0.999        C   36 0.978
    39  C   3.995        C   33 1.019    H   40 0.988    H   42 0.987    H   41 0.987
    40  H   0.999        C   39 0.988
    41  H   0.998        C   39 0.987
    42  H   0.998        C   39 0.987
    43  C   3.996        C   36 1.019    H   45 0.988    H   46 0.988    H   44 0.987
    44  H   0.998        C   43 0.987
    45  H   0.999        C   43 0.988
    46  H   0.999        C   43 0.988

molecular dipole:
                 x           y           z       tot (Debye)
 q only:       -1.049      -2.869      -1.671
   full:       -1.295      -2.472      -1.655       8.247
molecular quadrupole (traceless):
                xx          xy          yy          xz          yz          zz
 q only:       -2.453     -11.664      33.686     -22.446     -18.349     -31.232
  q+dip:       -1.587     -11.745      32.151     -24.095     -19.611     -30.564
   full:       -2.345     -10.529      33.072     -24.043     -17.718     -30.727


           -------------------------------------------------
          | TOTAL ENERGY              -56.273159914273 Eh   |
          | GRADIENT NORM               0.051997736607 Eh/α |
          | HOMO-LUMO GAP               2.755145949889 eV   |
           -------------------------------------------------

------------------------------------------------------------------------
 * finished run on 2020/08/20 at 05:56:37.338     
------------------------------------------------------------------------
 total:
 * wall-time:     0 d,  0 h,  0 min,  0.158 sec
 *  cpu-time:     0 d,  0 h,  0 min,  1.209 sec
 * ratio c/w:     7.636 speedup
 SCF:
 * wall-time:     0 d,  0 h,  0 min,  0.083 sec
 *  cpu-time:     0 d,  0 h,  0 min,  0.665 sec
 * ratio c/w:     7.974 speedup


-------------------------   --------------------
FINAL SINGLE POINT ENERGY       -56.273159914270
-------------------------   --------------------


----------------------------------------------------------------------------
                           ORCA NUMERICAL FREQUENCIES
                              (8-process run)
----------------------------------------------------------------------------

Number of atoms                ... 46
Central differences            ... used
Number of displacements        ... 276
Numerical increment            ... 5.000e-03 bohr
IR-spectrum generation         ... on
Raman-spectrum generation      ... off
Surface Crossing Hessian       ... off
List of participating nodes    ...  /tmp/slurm-scratch/freq.104/freq.hostnames

The output will be reduced. Please look at the following files:
SCF program output             ... >/tmp/slurm-scratch/freq.104/freq.lastscf
Integral program output        ... >/tmp/slurm-scratch/freq.104/freq.lastint
Gradient program output        ... >/tmp/slurm-scratch/freq.104/freq.lastgrad
Dipole moment program output   ... >/tmp/slurm-scratch/freq.104/freq.lastmom
AutoCI program output          ... >/tmp/slurm-scratch/freq.104/freq.lastautoci


         <<< Energy and Gradient at the input geometry >>>

        <<< Energy and Gradient at displaced geometries >>>
             <<<Displacing   2/coordinate 2 (+)>>>
             <<<Displacing   2/coordinate 2 (-)>>>
             <<<Displacing   1/coordinate 2 (+)>>>
             <<<Displacing   1/coordinate 1 (+)>>>
             <<<Displacing   1/coordinate 2 (-)>>>
             <<<Displacing   1/coordinate 1 (-)>>>
             <<<Displacing   3/coordinate 1 (+)>>>
             <<<Displacing   2/coordinate 3 (+)>>>
             <<<Displacing   3/coordinate 2 (+)>>>
             <<<Displacing   1/coordinate 3 (+)>>>
             <<<Displacing   2/coordinate 1 (+)>>>
             <<<Displacing   3/coordinate 1 (-)>>>
             <<<Displacing   2/coordinate 3 (-)>>>
             <<<Displacing   2/coordinate 1 (-)>>>
             <<<Displacing   3/coordinate 2 (-)>>>
             <<<Displacing   1/coordinate 3 (-)>>>
             <<<Displacing   3/coordinate 3 (+)>>>
             <<<Displacing   3/coordinate 3 (-)>>>
             <<<Displacing   4/coordinate 1 (+)>>>
             <<<Displacing   6/coordinate 1 (+)>>>
             <<<Displacing   4/coordinate 1 (-)>>>
             <<<Displacing   6/coordinate 1 (-)>>>
             <<<Displacing   4/coordinate 2 (+)>>>
             <<<Displacing   5/coordinate 2 (+)>>>
             <<<Displacing   4/coordinate 3 (+)>>>
             <<<Displacing   4/coordinate 2 (-)>>>
             <<<Displacing   5/coordinate 1 (+)>>>
             <<<Displacing   5/coordinate 2 (-)>>>
             <<<Displacing   5/coordinate 3 (+)>>>
             <<<Displacing   4/coordinate 3 (-)>>>
             <<<Displacing   5/coordinate 1 (-)>>>
             <<<Displacing   5/coordinate 3 (-)>>>
             <<<Displacing   6/coordinate 2 (+)>>>
             <<<Displacing   6/coordinate 2 (-)>>>
             <<<Displacing   7/coordinate 3 (+)>>>
             <<<Displacing   7/coordinate 3 (-)>>>
             <<<Displacing   6/coordinate 3 (+)>>>
             <<<Displacing   8/coordinate 3 (+)>>>
             <<<Displacing   7/coordinate 1 (+)>>>
             <<<Displacing   6/coordinate 3 (-)>>>
             <<<Displacing   8/coordinate 3 (-)>>>
             <<<Displacing   7/coordinate 1 (-)>>>
             <<<Displacing   8/coordinate 1 (+)>>>
             <<<Displacing   7/coordinate 2 (+)>>>
             <<<Displacing   8/coordinate 1 (-)>>>
             <<<Displacing   7/coordinate 2 (-)>>>
             <<<Displacing   8/coordinate 2 (+)>>>
             <<<Displacing   8/coordinate 2 (-)>>>
             <<<Displacing   9/coordinate 1 (+)>>>
             <<<Displacing   9/coordinate 1 (-)>>>
             <<<Displacing   9/coordinate 3 (+)>>>
             <<<Displacing   9/coordinate 2 (+)>>>
             <<<Displacing   9/coordinate 3 (-)>>>
             <<<Displacing   9/coordinate 2 (-)>>>
             <<<Displacing  10/coordinate 1 (+)>>>
             <<<Displacing  10/coordinate 1 (-)>>>
             <<<Displacing  11/coordinate 1 (+)>>>
             <<<Displacing  11/coordinate 2 (+)>>>
             <<<Displacing  10/coordinate 2 (+)>>>
             <<<Displacing  11/coordinate 1 (-)>>>
             <<<Displacing  10/coordinate 3 (+)>>>
             <<<Displacing  11/coordinate 2 (-)>>>
             <<<Displacing  10/coordinate 2 (-)>>>
             <<<Displacing  10/coordinate 3 (-)>>>
             <<<Displacing  12/coordinate 1 (+)>>>
             <<<Displacing  12/coordinate 1 (-)>>>
             <<<Displacing  11/coordinate 3 (+)>>>
             <<<Displacing  11/coordinate 3 (-)>>>
             <<<Displacing  12/coordinate 2 (+)>>>
             <<<Displacing  12/coordinate 2 (-)>>>
             <<<Displacing  12/coordinate 3 (+)>>>
             <<<Displacing  12/coordinate 3 (-)>>>
             <<<Displacing  13/coordinate 1 (+)>>>
             <<<Displacing  13/coordinate 2 (+)>>>
             <<<Displacing  13/coordinate 1 (-)>>>
             <<<Displacing  13/coordinate 2 (-)>>>
             <<<Displacing  13/coordinate 3 (+)>>>
             <<<Displacing  13/coordinate 3 (-)>>>
             <<<Displacing  14/coordinate 1 (+)>>>
             <<<Displacing  14/coordinate 1 (-)>>>
             <<<Displacing  14/coordinate 2 (+)>>>
             <<<Displacing  14/coordinate 2 (-)>>>
             <<<Displacing  14/coordinate 3 (+)>>>
             <<<Displacing  14/coordinate 3 (-)>>>
             <<<Displacing  15/coordinate 1 (+)>>>
             <<<Displacing  15/coordinate 1 (-)>>>
             <<<Displacing  16/coordinate 1 (+)>>>
             <<<Displacing  15/coordinate 2 (+)>>>
             <<<Displacing  16/coordinate 1 (-)>>>
             <<<Displacing  15/coordinate 2 (-)>>>
             <<<Displacing  16/coordinate 2 (+)>>>
             <<<Displacing  15/coordinate 3 (+)>>>
             <<<Displacing  16/coordinate 3 (+)>>>
             <<<Displacing  16/coordinate 2 (-)>>>
             <<<Displacing  15/coordinate 3 (-)>>>
             <<<Displacing  16/coordinate 3 (-)>>>
             <<<Displacing  17/coordinate 2 (+)>>>
             <<<Displacing  17/coordinate 3 (+)>>>
             <<<Displacing  17/coordinate 1 (+)>>>
             <<<Displacing  17/coordinate 2 (-)>>>
             <<<Displacing  17/coordinate 3 (-)>>>
             <<<Displacing  17/coordinate 1 (-)>>>
             <<<Displacing  18/coordinate 1 (+)>>>
             <<<Displacing  19/coordinate 1 (+)>>>
             <<<Displacing  18/coordinate 3 (+)>>>
             <<<Displacing  18/coordinate 1 (-)>>>
             <<<Displacing  19/coordinate 1 (-)>>>
             <<<Displacing  18/coordinate 2 (+)>>>
             <<<Displacing  18/coordinate 3 (-)>>>
             <<<Displacing  18/coordinate 2 (-)>>>
             <<<Displacing  19/coordinate 2 (+)>>>
             <<<Displacing  19/coordinate 2 (-)>>>
             <<<Displacing  19/coordinate 3 (+)>>>
             <<<Displacing  19/coordinate 3 (-)>>>
             <<<Displacing  20/coordinate 2 (+)>>>
             <<<Displacing  20/coordinate 1 (+)>>>
             <<<Displacing  20/coordinate 1 (-)>>>
             <<<Displacing  20/coordinate 2 (-)>>>
             <<<Displacing  21/coordinate 1 (+)>>>
             <<<Displacing  21/coordinate 3 (+)>>>
             <<<Displacing  20/coordinate 3 (+)>>>
             <<<Displacing  21/coordinate 1 (-)>>>
             <<<Displacing  21/coordinate 3 (-)>>>
             <<<Displacing  21/coordinate 2 (+)>>>
             <<<Displacing  20/coordinate 3 (-)>>>
             <<<Displacing  21/coordinate 2 (-)>>>
             <<<Displacing  22/coordinate 1 (+)>>>
             <<<Displacing  22/coordinate 1 (-)>>>
             <<<Displacing  22/coordinate 2 (+)>>>
             <<<Displacing  22/coordinate 2 (-)>>>
             <<<Displacing  22/coordinate 3 (+)>>>
             <<<Displacing  23/coordinate 1 (+)>>>
             <<<Displacing  22/coordinate 3 (-)>>>
             <<<Displacing  23/coordinate 1 (-)>>>
             <<<Displacing  23/coordinate 3 (+)>>>
             <<<Displacing  23/coordinate 3 (-)>>>
             <<<Displacing  24/coordinate 1 (+)>>>
             <<<Displacing  23/coordinate 2 (+)>>>
             <<<Displacing  24/coordinate 1 (-)>>>
             <<<Displacing  24/coordinate 2 (+)>>>
             <<<Displacing  23/coordinate 2 (-)>>>
             <<<Displacing  24/coordinate 2 (-)>>>
             <<<Displacing  24/coordinate 3 (+)>>>
             <<<Displacing  24/coordinate 3 (-)>>>
             <<<Displacing  25/coordinate 1 (+)>>>
             <<<Displacing  25/coordinate 1 (-)>>>
             <<<Displacing  25/coordinate 2 (+)>>>
             <<<Displacing  25/coordinate 3 (+)>>>
             <<<Displacing  25/coordinate 2 (-)>>>
             <<<Displacing  25/coordinate 3 (-)>>>
             <<<Displacing  26/coordinate 2 (+)>>>
             <<<Displacing  26/coordinate 2 (-)>>>
             <<<Displacing  26/coordinate 1 (+)>>>
             <<<Displacing  26/coordinate 3 (+)>>>
             <<<Displacing  26/coordinate 1 (-)>>>
             <<<Displacing  26/coordinate 3 (-)>>>
             <<<Displacing  27/coordinate 1 (+)>>>
             <<<Displacing  27/coordinate 1 (-)>>>
             <<<Displacing  27/coordinate 2 (+)>>>
             <<<Displacing  27/coordinate 2 (-)>>>
             <<<Displacing  27/coordinate 3 (+)>>>
             <<<Displacing  27/coordinate 3 (-)>>>
             <<<Displacing  28/coordinate 1 (+)>>>
             <<<Displacing  28/coordinate 2 (+)>>>
             <<<Displacing  28/coordinate 1 (-)>>>
             <<<Displacing  28/coordinate 2 (-)>>>
             <<<Displacing  28/coordinate 3 (+)>>>
             <<<Displacing  28/coordinate 3 (-)>>>
             <<<Displacing  29/coordinate 2 (+)>>>
             <<<Displacing  29/coordinate 1 (+)>>>
             <<<Displacing  30/coordinate 1 (+)>>>
             <<<Displacing  29/coordinate 2 (-)>>>
             <<<Displacing  29/coordinate 1 (-)>>>
             <<<Displacing  30/coordinate 1 (-)>>>
             <<<Displacing  29/coordinate 3 (+)>>>
             <<<Displacing  29/coordinate 3 (-)>>>
             <<<Displacing  30/coordinate 2 (+)>>>
             <<<Displacing  30/coordinate 2 (-)>>>
             <<<Displacing  30/coordinate 3 (+)>>>
             <<<Displacing  30/coordinate 3 (-)>>>
             <<<Displacing  31/coordinate 1 (+)>>>
             <<<Displacing  31/coordinate 1 (-)>>>
             <<<Displacing  31/coordinate 2 (+)>>>
             <<<Displacing  31/coordinate 2 (-)>>>
             <<<Displacing  32/coordinate 3 (+)>>>
             <<<Displacing  31/coordinate 3 (+)>>>
             <<<Displacing  32/coordinate 3 (-)>>>
             <<<Displacing  32/coordinate 2 (+)>>>
             <<<Displacing  32/coordinate 1 (+)>>>
             <<<Displacing  31/coordinate 3 (-)>>>
             <<<Displacing  32/coordinate 2 (-)>>>
             <<<Displacing  32/coordinate 1 (-)>>>
             <<<Displacing  33/coordinate 1 (+)>>>
             <<<Displacing  33/coordinate 1 (-)>>>
             <<<Displacing  33/coordinate 2 (+)>>>
             <<<Displacing  33/coordinate 2 (-)>>>
             <<<Displacing  33/coordinate 3 (+)>>>
             <<<Displacing  33/coordinate 3 (-)>>>
             <<<Displacing  34/coordinate 1 (+)>>>
             <<<Displacing  34/coordinate 1 (-)>>>
             <<<Displacing  34/coordinate 2 (+)>>>
             <<<Displacing  34/coordinate 2 (-)>>>
             <<<Displacing  35/coordinate 1 (+)>>>
             <<<Displacing  34/coordinate 3 (+)>>>
             <<<Displacing  35/coordinate 1 (-)>>>
             <<<Displacing  34/coordinate 3 (-)>>>
             <<<Displacing  35/coordinate 2 (+)>>>
             <<<Displacing  35/coordinate 2 (-)>>>
             <<<Displacing  35/coordinate 3 (+)>>>
             <<<Displacing  35/coordinate 3 (-)>>>
             <<<Displacing  36/coordinate 1 (+)>>>
             <<<Displacing  36/coordinate 1 (-)>>>
             <<<Displacing  36/coordinate 2 (+)>>>
             <<<Displacing  36/coordinate 2 (-)>>>
             <<<Displacing  36/coordinate 3 (+)>>>
             <<<Displacing  36/coordinate 3 (-)>>>
             <<<Displacing  37/coordinate 1 (+)>>>
             <<<Displacing  37/coordinate 1 (-)>>>
             <<<Displacing  37/coordinate 3 (+)>>>
             <<<Displacing  37/coordinate 2 (+)>>>
             <<<Displacing  38/coordinate 1 (+)>>>
             <<<Displacing  37/coordinate 3 (-)>>>
             <<<Displacing  37/coordinate 2 (-)>>>
             <<<Displacing  38/coordinate 1 (-)>>>
             <<<Displacing  38/coordinate 2 (+)>>>
             <<<Displacing  38/coordinate 2 (-)>>>
             <<<Displacing  38/coordinate 3 (+)>>>
             <<<Displacing  39/coordinate 2 (+)>>>
             <<<Displacing  38/coordinate 3 (-)>>>
             <<<Displacing  39/coordinate 2 (-)>>>
             <<<Displacing  39/coordinate 1 (+)>>>
             <<<Displacing  39/coordinate 1 (-)>>>
             <<<Displacing  39/coordinate 3 (+)>>>
             <<<Displacing  39/coordinate 3 (-)>>>
             <<<Displacing  40/coordinate 1 (+)>>>
             <<<Displacing  40/coordinate 2 (+)>>>
             <<<Displacing  40/coordinate 1 (-)>>>
             <<<Displacing  40/coordinate 2 (-)>>>
             <<<Displacing  40/coordinate 3 (+)>>>
             <<<Displacing  40/coordinate 3 (-)>>>
             <<<Displacing  41/coordinate 1 (+)>>>
             <<<Displacing  41/coordinate 1 (-)>>>
             <<<Displacing  41/coordinate 2 (+)>>>
             <<<Displacing  41/coordinate 3 (+)>>>
             <<<Displacing  41/coordinate 2 (-)>>>
             <<<Displacing  41/coordinate 3 (-)>>>
             <<<Displacing  42/coordinate 1 (+)>>>
             <<<Displacing  42/coordinate 1 (-)>>>
             <<<Displacing  42/coordinate 2 (+)>>>
             <<<Displacing  42/coordinate 3 (+)>>>
             <<<Displacing  43/coordinate 2 (+)>>>
             <<<Displacing  42/coordinate 2 (-)>>>
             <<<Displacing  42/coordinate 3 (-)>>>
             <<<Displacing  43/coordinate 2 (-)>>>
             <<<Displacing  43/coordinate 1 (+)>>>
             <<<Displacing  43/coordinate 1 (-)>>>
             <<<Displacing  43/coordinate 3 (+)>>>
             <<<Displacing  43/coordinate 3 (-)>>>
             <<<Displacing  44/coordinate 3 (+)>>>
             <<<Displacing  44/coordinate 1 (+)>>>
             <<<Displacing  44/coordinate 2 (+)>>>
             <<<Displacing  44/coordinate 3 (-)>>>
             <<<Displacing  44/coordinate 1 (-)>>>
             <<<Displacing  44/coordinate 2 (-)>>>
             <<<Displacing  45/coordinate 1 (+)>>>
             <<<Displacing  45/coordinate 1 (-)>>>
             <<<Displacing  45/coordinate 2 (+)>>>
             <<<Displacing  45/coordinate 2 (-)>>>
             <<<Displacing  45/coordinate 3 (+)>>>
             <<<Displacing  45/coordinate 3 (-)>>>
             <<<Displacing  46/coordinate 1 (+)>>>
             <<<Displacing  46/coordinate 1 (-)>>>
             <<<Displacing  46/coordinate 2 (+)>>>
             <<<Displacing  46/coordinate 2 (-)>>>
             <<<Displacing  46/coordinate 3 (+)>>>
             <<<Displacing  46/coordinate 3 (-)>>>

-----------------------
VIBRATIONAL FREQUENCIES
-----------------------

Scaling factor for frequencies =  1.000000000 (already applied!)

   0:         0.00 cm**-1
   1:         0.00 cm**-1
   2:         0.00 cm**-1
   3:         0.00 cm**-1
   4:         0.00 cm**-1
   5:         0.00 cm**-1
   6:      -856.58 cm**-1 ***imaginary mode***
   7:        45.58 cm**-1
   8:        59.23 cm**-1
   9:        72.62 cm**-1
  10:        92.02 cm**-1
  11:       108.08 cm**-1
  12:       113.68 cm**-1
  13:       142.00 cm**-1
  14:       150.52 cm**-1
  15:       166.22 cm**-1
  16:       171.70 cm**-1
  17:       182.96 cm**-1
  18:       185.63 cm**-1
  19:       191.43 cm**-1
  20:       221.63 cm**-1
  21:       235.82 cm**-1
  22:       242.67 cm**-1
  23:       253.96 cm**-1
  24:       284.89 cm**-1
  25:       347.99 cm**-1
  26:       356.98 cm**-1
  27:       378.16 cm**-1
  28:       387.52 cm**-1
  29:       394.28 cm**-1
  30:       402.80 cm**-1
  31:       409.71 cm**-1
  32:       437.35 cm**-1
  33:       491.15 cm**-1
  34:       504.62 cm**-1
  35:       583.48 cm**-1
  36:       590.73 cm**-1
  37:       631.37 cm**-1
  38:       647.10 cm**-1
  39:       677.88 cm**-1
  40:       739.62 cm**-1
  41:       782.47 cm**-1
  42:       793.68 cm**-1
  43:       803.12 cm**-1
  44:       825.66 cm**-1
  45:       848.03 cm**-1
  46:       852.11 cm**-1
  47:       897.88 cm**-1
  48:       908.01 cm**-1
  49:       926.16 cm**-1
  50:       935.58 cm**-1
  51:       947.15 cm**-1
  52:       948.70 cm**-1
  53:       953.82 cm**-1
  54:       955.37 cm**-1
  55:       966.59 cm**-1
  56:       968.48 cm**-1
  57:       971.47 cm**-1
  58:      1009.23 cm**-1
  59:      1028.47 cm**-1
  60:      1042.42 cm**-1
  61:      1051.21 cm**-1
  62:      1061.18 cm**-1
  63:      1064.93 cm**-1
  64:      1075.29 cm**-1
  65:      1092.37 cm**-1
  66:      1095.82 cm**-1
  67:      1101.59 cm**-1
  68:      1120.62 cm**-1
  69:      1132.14 cm**-1
  70:      1135.91 cm**-1
  71:      1164.86 cm**-1
  72:      1180.88 cm**-1
  73:      1191.49 cm**-1
  74:      1200.68 cm**-1
  75:      1211.39 cm**-1
  76:      1224.40 cm**-1
  77:      1238.43 cm**-1
  78:      1243.50 cm**-1
  79:      1253.16 cm**-1
  80:      1274.29 cm**-1
  81:      1275.31 cm**-1
  82:      1283.15 cm**-1
  83:      1284.20 cm**-1
  84:      1287.62 cm**-1
  85:      1290.37 cm**-1
  86:      1306.47 cm**-1
  87:      1317.11 cm**-1
  88:      1345.13 cm**-1
  89:      1350.86 cm**-1
  90:      1374.28 cm**-1
  91:      1375.46 cm**-1
  92:      1406.37 cm**-1
  93:      1408.01 cm**-1
  94:      1434.56 cm**-1
  95:      1434.62 cm**-1
  96:      1440.94 cm**-1
  97:      1478.96 cm**-1
  98:      1486.00 cm**-1
  99:      1496.04 cm**-1
 100:      1502.83 cm**-1
 101:      1504.41 cm**-1
 102:      1507.85 cm**-1
 103:      1508.22 cm**-1
 104:      1508.96 cm**-1
 105:      1510.62 cm**-1
 106:      1512.42 cm**-1
 107:      1514.27 cm**-1
 108:      1516.51 cm**-1
 109:      1531.34 cm**-1
 110:      1537.42 cm**-1
 111:      2576.41 cm**-1
 112:      2734.51 cm**-1
 113:      2862.48 cm**-1
 114:      2868.55 cm**-1
 115:      2873.34 cm**-1
 116:      2877.83 cm**-1
 117:      2883.88 cm**-1
 118:      2897.64 cm**-1
 119:      2897.95 cm**-1
 120:      2902.26 cm**-1
 121:      2903.35 cm**-1
 122:      2911.87 cm**-1
 123:      2912.81 cm**-1
 124:      2914.36 cm**-1
 125:      2917.80 cm**-1
 126:      2919.82 cm**-1
 127:      2921.27 cm**-1
 128:      2930.86 cm**-1
 129:      2932.54 cm**-1
 130:      2946.58 cm**-1
 131:      2955.98 cm**-1
 132:      2974.26 cm**-1
 133:      2978.24 cm**-1
 134:      2989.97 cm**-1
 135:      2998.03 cm**-1
 136:      3253.43 cm**-1
 137:      3306.29 cm**-1


------------
NORMAL MODES
------------

These modes are the cartesian displacements weighted by the diagonal matrix
M(i,i)=1/sqrt(m[i]) where m[i] is the mass of the displaced atom
Thus, these vectors are normalized but *not* orthogonal

                  0          1          2          3          4          5    
      0       0.000000   0.000000   0.000000   0.000000   0.000000   0.000000
      1       0.000000   0.000000   0.000000   0.000000   0.000000   0.000000
      2       0.000000   0.000000   0.000000   0.000000   0.000000   0.000000
      3       0.000000   0.000000   0.000000   0.000000   0.000000   0.000000
      4       0.000000   0.000000   0.000000   0.000000   0.000000   0.000000
      5       0.000000   0.000000   0.000000   0.000000   0.000000   0.000000
      6       0.000000   0.000000   0.000000   0.000000   0.000000   0.000000
      7       0.000000   0.000000   0.000000   0.000000   0.000000   0.000000
      8       0.000000   0.000000   0.000000   0.000000   0.000000   0.000000
      9       0.000000   0.000000   0.000000   0.000000   0.000000   0.000000
     10       0.000000   0.000000   0.000000   0.000000   0.000000   0.000000
     11       0.000000   0.000000   0.000000   0.000000   0.000000   0.000000
     12       0.000000   0.000000   0.000000   0.000000   0.000000   0.000000
     13       0.000000   0.000000   0.000000   0.000000   0.000000   0.000000
     14       0.000000   0.000000   0.000000   0.000000   0.000000   0.000000
     15       0.000000   0.000000   0.000000   0.000000   0.000000   0.000000
     16       0.000000   0.000000   0.000000   0.000000   0.000000   0.000000
     17       0.000000   0.000000   0.000000   0.000000   0.000000   0.000000
     18       0.000000   0.000000   0.000000   0.000000   0.000000   0.000000
     19       0.000000   0.000000   0.000000   0.000000   0.000000   0.000000
     20       0.000000   0.000000   0.000000   0.000000   0.000000   0.000000
     21       0.000000   0.000000   0.000000   0.000000   0.000000   0.000000
     22       0.000000   0.000000   0.000000   0.000000   0.000000   0.000000
     23       0.000000   0.000000   0.000000   0.000000   0.000000   0.000000
     24       0.000000   0.000000   0.000000   0.000000   0.000000   0.000000
     25       0.000000   0.000000   0.000000   0.000000   0.000000   0.000000
     26       0.000000   0.000000   0.000000   0.000000   0.000000   0.000000
     27       0.000000   0.000000   0.000000   0.000000   0.000000   0.000000
     28       0.000000   0.000000   0.000000   0.000000   0.000000   0.000000
     29       0.000000   0.000000   0.000000   0.000000   0.000000   0.000000
     30       0.000000   0.000000   0.000000   0.000000   0.000000   0.000000
     31       0.000000   0.000000   0.000000   0.000000   0.000000   0.000000
     32       0.000000   0.000000   0.000000   0.000000   0.000000   0.000000
     33       0.000000   0.000000   0.000000   0.000000   0.000000   0.000000
     34       0.000000   0.000000   0.000000   0.000000   0.000000   0.000000
     35       0.000000   0.000000   0.000000   0.000000   0.000000   0.000000
     36       0.000000   0.000000   0.000000   0.000000   0.000000   0.000000
     37       0.000000   0.000000   0.000000   0.000000   0.000000   0.000000
     38       0.000000   0.000000   0.000000   0.000000   0.000000   0.000000
     39       0.000000   0.000000   0.000000   0.000000   0.000000   0.000000
     40       0.000000   0.000000   0.000000   0.000000   0.000000   0.000000
     41       0.000000   0.000000   0.000000   0.000000   0.000000   0.000000
     42       0.000000   0.000000   0.000000   0.000000   0.000000   0.000000
     43       0.000000   0.000000   0.000000   0.000000   0.000000   0.000000
     44       0.000000   0.000000   0.000000   0.000000   0.000000   0.000000
     45       0.000000   0.000000   0.000000   0.000000   0.000000   0.000000
     46       0.000000   0.000000   0.000000   0.000000   0.000000   0.000000
     47       0.000000   0.000000   0.000000   0.000000   0.000000   0.000000
     48       0.000000   0.000000   0.000000   0.000000   0.000000   0.000000
     49       0.000000   0.000000   0.000000   0.000000   0.000000   0.000000
     50       0.000000   0.000000   0.000000   0.000000   0.000000   0.000000
     51       0.000000   0.000000   0.000000   0.000000   0.000000   0.000000
     52       0.000000   0.000000   0.000000   0.000000   0.000000   0.000000
     53       0.000000   0.000000   0.000000   0.000000   0.000000   0.000000
     54       0.000000   0.000000   0.000000   0.000000   0.000000   0.000000
     55       0.000000   0.000000   0.000000   0.000000   0.000000   0.000000
     56       0.000000   0.000000   0.000000   0.000000   0.000000   0.000000
     57       0.000000   0.000000   0.000000   0.000000   0.000000   0.000000
     58       0.000000   0.000000   0.000000   0.000000   0.000000   0.000000
     59       0.000000   0.000000   0.000000   0.000000   0.000000   0.000000
     60       0.000000   0.000000   0.000000   0.000000   0.000000   0.000000
     61       0.000000   0.000000   0.000000   0.000000   0.000000   0.000000
     62       0.000000   0.000000   0.000000   0.000000   0.000000   0.000000
     63       0.000000   0.000000   0.000000   0.000000   0.000000   0.000000
     64       0.000000   0.000000   0.000000   0.000000   0.000000   0.000000
     65       0.000000   0.000000   0.000000   0.000000   0.000000   0.000000
     66       0.000000   0.000000   0.000000   0.000000   0.000000   0.000000
     67       0.000000   0.000000   0.000000   0.000000   0.000000   0.000000
     68       0.000000   0.000000   0.000000   0.000000   0.000000   0.000000
     69       0.000000   0.000000   0.000000   0.000000   0.000000   0.000000
     70       0.000000   0.000000   0.000000   0.000000   0.000000   0.000000
     71       0.000000   0.000000   0.000000   0.000000   0.000000   0.000000
     72       0.000000   0.000000   0.000000   0.000000   0.000000   0.000000
     73       0.000000   0.000000   0.000000   0.000000   0.000000   0.000000
     74       0.000000   0.000000   0.000000   0.000000   0.000000   0.000000
     75       0.000000   0.000000   0.000000   0.000000   0.000000   0.000000
     76       0.000000   0.000000   0.000000   0.000000   0.000000   0.000000
     77       0.000000   0.000000   0.000000   0.000000   0.000000   0.000000
     78       0.000000   0.000000   0.000000   0.000000   0.000000   0.000000
     79       0.000000   0.000000   0.000000   0.000000   0.000000   0.000000
     80       0.000000   0.000000   0.000000   0.000000   0.000000   0.000000
     81       0.000000   0.000000   0.000000   0.000000   0.000000   0.000000
     82       0.000000   0.000000   0.000000   0.000000   0.000000   0.000000
     83       0.000000   0.000000   0.000000   0.000000   0.000000   0.000000
     84       0.000000   0.000000   0.000000   0.000000   0.000000   0.000000
     85       0.000000   0.000000   0.000000   0.000000   0.000000   0.000000
     86       0.000000   0.000000   0.000000   0.000000   0.000000   0.000000
     87       0.000000   0.000000   0.000000   0.000000   0.000000   0.000000
     88       0.000000   0.000000   0.000000   0.000000   0.000000   0.000000
     89       0.000000   0.000000   0.000000   0.000000   0.000000   0.000000
     90       0.000000   0.000000   0.000000   0.000000   0.000000   0.000000
     91       0.000000   0.000000   0.000000   0.000000   0.000000   0.000000
     92       0.000000   0.000000   0.000000   0.000000   0.000000   0.000000
     93       0.000000   0.000000   0.000000   0.000000   0.000000   0.000000
     94       0.000000   0.000000   0.000000   0.000000   0.000000   0.000000
     95       0.000000   0.000000   0.000000   0.000000   0.000000   0.000000
     96       0.000000   0.000000   0.000000   0.000000   0.000000   0.000000
     97       0.000000   0.000000   0.000000   0.000000   0.000000   0.000000
     98       0.000000   0.000000   0.000000   0.000000   0.000000   0.000000
     99       0.000000   0.000000   0.000000   0.000000   0.000000   0.000000
    100       0.000000   0.000000   0.000000   0.000000   0.000000   0.000000
    101       0.000000   0.000000   0.000000   0.000000   0.000000   0.000000
    102       0.000000   0.000000   0.000000   0.000000   0.000000   0.000000
    103       0.000000   0.000000   0.000000   0.000000   0.000000   0.000000
    104       0.000000   0.000000   0.000000   0.000000   0.000000   0.000000
    105       0.000000   0.000000   0.000000   0.000000   0.000000   0.000000
    106       0.000000   0.000000   0.000000   0.000000   0.000000   0.000000
    107       0.000000   0.000000   0.000000   0.000000   0.000000   0.000000
    108       0.000000   0.000000   0.000000   0.000000   0.000000   0.000000
    109       0.000000   0.000000   0.000000   0.000000   0.000000   0.000000
    110       0.000000   0.000000   0.000000   0.000000   0.000000   0.000000
    111       0.000000   0.000000   0.000000   0.000000   0.000000   0.000000
    112       0.000000   0.000000   0.000000   0.000000   0.000000   0.000000
    113       0.000000   0.000000   0.000000   0.000000   0.000000   0.000000
    114       0.000000   0.000000   0.000000   0.000000   0.000000   0.000000
    115       0.000000   0.000000   0.000000   0.000000   0.000000   0.000000
    116       0.000000   0.000000   0.000000   0.000000   0.000000   0.000000
    117       0.000000   0.000000   0.000000   0.000000   0.000000   0.000000
    118       0.000000   0.000000   0.000000   0.000000   0.000000   0.000000
    119       0.000000   0.000000   0.000000   0.000000   0.000000   0.000000
    120       0.000000   0.000000   0.000000   0.000000   0.000000   0.000000
    121       0.000000   0.000000   0.000000   0.000000   0.000000   0.000000
    122       0.000000   0.000000   0.000000   0.000000   0.000000   0.000000
    123       0.000000   0.000000   0.000000   0.000000   0.000000   0.000000
    124       0.000000   0.000000   0.000000   0.000000   0.000000   0.000000
    125       0.000000   0.000000   0.000000   0.000000   0.000000   0.000000
    126       0.000000   0.000000   0.000000   0.000000   0.000000   0.000000
    127       0.000000   0.000000   0.000000   0.000000   0.000000   0.000000
    128       0.000000   0.000000   0.000000   0.000000   0.000000   0.000000
    129       0.000000   0.000000   0.000000   0.000000   0.000000   0.000000
    130       0.000000   0.000000   0.000000   0.000000   0.000000   0.000000
    131       0.000000   0.000000   0.000000   0.000000   0.000000   0.000000
    132       0.000000   0.000000   0.000000   0.000000   0.000000   0.000000
    133       0.000000   0.000000   0.000000   0.000000   0.000000   0.000000
    134       0.000000   0.000000   0.000000   0.000000   0.000000   0.000000
    135       0.000000   0.000000   0.000000   0.000000   0.000000   0.000000
    136       0.000000   0.000000   0.000000   0.000000   0.000000   0.000000
    137       0.000000   0.000000   0.000000   0.000000   0.000000   0.000000
                  6          7          8          9         10         11    
      0       0.000671   0.012856   0.050180  -0.147321   0.037780   0.005068
      1       0.000381   0.183899  -0.037330   0.009636   0.065816   0.096417
      2      -0.000530   0.066086  -0.044450   0.073382  -0.041426   0.023059
      3       0.001844   0.015414   0.048589  -0.082032   0.002999   0.038440
      4       0.001444   0.129187  -0.012660  -0.021072   0.018392   0.086148
      5      -0.000965   0.048070  -0.036203   0.091595  -0.073515   0.034996
      6      -0.003561   0.019299   0.046051  -0.021400  -0.021114   0.035966
      7      -0.000431   0.091251   0.005667  -0.020090  -0.007933   0.007543
      8       0.001924   0.013865  -0.019000   0.042258  -0.073975  -0.026568
      9      -0.002087   0.022257   0.045165  -0.031818  -0.007925   0.001746
     10      -0.001182   0.118600  -0.005741   0.013771   0.015853  -0.063091
     11       0.000373   0.003370  -0.014759  -0.022568  -0.042958  -0.106152
     12      -0.000798   0.020183   0.046815  -0.097757   0.026274  -0.031372
     13       0.000359   0.174596  -0.031071   0.044164   0.060922  -0.053592
     14       0.000689   0.022793  -0.023370  -0.040915  -0.011988  -0.118348
     15       0.000750   0.014535   0.049798  -0.155876   0.049989  -0.029050
     16      -0.000135   0.205363  -0.045707   0.041253   0.087287   0.028893
     17      -0.000419   0.052501  -0.037813   0.007156  -0.011237  -0.053563
     18      -0.000109   0.013106   0.048800  -0.076435  -0.006753   0.063648
     19       0.000255   0.110453  -0.005905  -0.048023   0.001622   0.135113
     20       0.000254   0.058337  -0.042124   0.142623  -0.096747   0.090211
     21       0.001203   0.023205   0.045230   0.010239  -0.024371   0.006666
     22       0.001841   0.087958   0.008251   0.013308  -0.002533  -0.118708
     23       0.001015  -0.020702  -0.004079  -0.057305  -0.043471  -0.152304
     24      -0.000479   0.010831   0.051705  -0.205055   0.075413  -0.053183
     25       0.000323   0.243251  -0.062802   0.062968   0.120814   0.038531
     26      -0.001162   0.064360  -0.043072  -0.007198   0.012240  -0.061064
     27      -0.001632   0.044189   0.056342   0.070076  -0.033019   0.016434
     28       0.052522   0.011859   0.016581  -0.098679  -0.052863   0.065906
     29       0.005622  -0.047322   0.008879   0.050145  -0.111556   0.053195
     30       0.473580   0.047280   0.073098   0.077049  -0.057957  -0.058572
     31      -0.805456  -0.020142   0.020311  -0.096122  -0.052598  -0.001099
     32      -0.057896  -0.039489   0.057863   0.088465   0.004929   0.032861
     33       0.009349   0.034227   0.056596   0.020828  -0.033392   0.049811
     34       0.017694  -0.016195  -0.013107  -0.043157  -0.063602   0.104772
     35      -0.008059  -0.061832   0.003507   0.008993  -0.113832   0.094875
     36       0.020225   0.047380   0.105972   0.001835  -0.057083   0.051262
     37       0.009943  -0.020098  -0.040159  -0.034665  -0.047015   0.096419
     38      -0.038643  -0.081701   0.014792   0.017170  -0.142747   0.141468
     39       0.002003   0.024461   0.049662  -0.027754  -0.023510   0.078433
     40       0.003367  -0.024147   0.028087  -0.026620  -0.107709   0.136896
     41      -0.002546  -0.056538   0.009394   0.037156  -0.121058   0.079759
     42      -0.029912   0.051559   0.053299   0.104837  -0.024675  -0.005670
     43       0.145364   0.025662  -0.001016  -0.130873  -0.073087   0.079628
     44       0.059994  -0.046375   0.005044   0.021464  -0.122348   0.068928
     45       0.006625   0.010257   0.068699   0.087855  -0.087357  -0.127987
     46       0.026398  -0.028630   0.040241  -0.087917  -0.076931  -0.066622
     47       0.013308  -0.029185   0.080468   0.080837   0.127966   0.049492
     48       0.005291  -0.015371   0.079641   0.106445  -0.134451  -0.191081
     49       0.030929  -0.003776   0.050241  -0.092923  -0.052114  -0.053220
     50       0.041338  -0.006871   0.097793   0.081934   0.137799   0.039841
     51      -0.073845   0.043400   0.072919   0.088804  -0.115511  -0.083586
     52       0.252592  -0.043018   0.057140  -0.077645  -0.050403  -0.105584
     53       0.069634  -0.047588   0.054883   0.066423   0.122279   0.055104
     54       0.003089  -0.024974   0.016963   0.065802  -0.015747  -0.086958
     55       0.003632  -0.091595   0.026226  -0.068553  -0.112671  -0.096110
     56      -0.008602  -0.026895   0.060102   0.062167   0.186263   0.080492
     57       0.011968  -0.028718   0.045555   0.089225   0.078182  -0.038486
     58      -0.006856  -0.119944   0.019879  -0.058388  -0.124511  -0.102702
     59      -0.013771  -0.073778   0.064743   0.090365   0.214827   0.094417
     60      -0.020673  -0.025148  -0.004105   0.050472  -0.066754  -0.110549
     61       0.013350  -0.089522  -0.026271  -0.107080  -0.168904  -0.111334
     62       0.044279  -0.023451   0.024755   0.036211   0.248779   0.131550
     63      -0.057589   0.025322   0.042175   0.049028  -0.054160   0.075764
     64      -0.032856   0.015640   0.037751  -0.075739  -0.031030   0.013647
     65      -0.027045  -0.010154  -0.007213   0.050425  -0.095103  -0.002927
     66       0.058150   0.008938   0.031072   0.035534  -0.078096   0.128162
     67       0.023760  -0.012100   0.043600  -0.106405  -0.038886   0.034987
     68       0.021966   0.028041  -0.031728   0.092874  -0.110884   0.025198
     69       0.012798   0.036628   0.045393   0.091484  -0.071854   0.088834
     70      -0.043481  -0.003756   0.066331  -0.069797  -0.016394  -0.023707
     71      -0.004286  -0.034173   0.009949   0.013181  -0.066936  -0.040445
     72      -0.000953  -0.056882  -0.064190   0.027462  -0.005317  -0.037929
     73       0.000842  -0.123175   0.093155  -0.004599  -0.040430  -0.080667
     74       0.003623   0.039323   0.078423   0.036921   0.102068   0.011624
     75       0.001896  -0.051076  -0.077162   0.022452  -0.024513  -0.043706
     76      -0.003956  -0.092845   0.090722  -0.028685  -0.084136  -0.114045
     77      -0.005107   0.086718   0.068117  -0.001219   0.027338  -0.041344
     78       0.001875  -0.057185  -0.049707   0.033725   0.004765  -0.038343
     79       0.000729  -0.126066   0.141652   0.027567  -0.012192  -0.089817
     80      -0.004239   0.034029   0.135510   0.087259   0.127600  -0.007079
     81      -0.007132   0.018417  -0.002499   0.056036  -0.006334   0.029203
     82       0.000624  -0.032422  -0.071281  -0.005370  -0.041848   0.085977
     83       0.007673  -0.053906  -0.024953  -0.089944  -0.048463   0.092862
     84      -0.000808   0.004861  -0.058456   0.083967   0.023132  -0.003904
     85       0.002942  -0.026653  -0.047261  -0.014404  -0.051765   0.090001
     86      -0.000461  -0.045833   0.002365  -0.122883  -0.083210   0.176864
     87       0.001244   0.019211   0.030749   0.093867  -0.074554   0.088873
     88       0.000523  -0.031503  -0.088296  -0.038509  -0.033070   0.126996
     89      -0.000139  -0.054333  -0.042942  -0.110853  -0.011949   0.062650
     90      -0.000317   0.021870   0.046359  -0.103910   0.034792  -0.055190
     91       0.001197   0.191494  -0.038349   0.069021   0.074866  -0.104447
     92       0.001235   0.013558  -0.018306  -0.091736   0.011376  -0.173273
     93      -0.000665   0.008685   0.051593  -0.189371   0.053801   0.004654
     94       0.001379   0.206861  -0.048623   0.007882   0.084210   0.154203
     95       0.000031   0.088729  -0.055108   0.108990  -0.040267   0.071475
     96       0.001402  -0.092896  -0.147699  -0.014372   0.018528   0.047009
     97       0.000578  -0.192725   0.100426   0.052000   0.068032   0.003310
     98       0.000664   0.045520   0.034103  -0.004901   0.076559   0.022570
     99      -0.001440  -0.091061  -0.147900  -0.014700   0.037418   0.061124
    100      -0.000845  -0.222054   0.103368   0.076041   0.115111   0.041828
    101      -0.000439   0.002409   0.038400   0.031059   0.157277   0.087878
    102      -0.001065  -0.096265  -0.153292  -0.017136   0.008789   0.045347
    103      -0.000940  -0.195584   0.066495   0.025077   0.038848   0.009931
    104      -0.000792   0.051222  -0.021322  -0.054916   0.046784   0.043627
    105      -0.002943   0.021383  -0.032219   0.007521   0.077552  -0.044577
    106       0.001522  -0.056642  -0.142489   0.093856  -0.020350  -0.014354
    107       0.001724  -0.056145  -0.066519  -0.118359   0.033890   0.006996
    108      -0.001061   0.021725  -0.065028  -0.025644   0.154273  -0.119220
    109       0.000574  -0.059103  -0.134358   0.111194  -0.049233   0.008185
    110       0.002232  -0.056328  -0.048821  -0.100115  -0.007687   0.047128
    111      -0.000962   0.032821   0.017951  -0.031578   0.033675   0.042204
    112      -0.000512  -0.060971  -0.162216   0.109293  -0.002599  -0.049096
    113       0.000005  -0.064979  -0.099701  -0.092834   0.060108  -0.047895
    114       0.000120  -0.121444  -0.217300  -0.050139   0.025416   0.120180
    115       0.000475  -0.214884   0.147974   0.109662   0.152102   0.030682
    116       0.001340   0.098437   0.060315  -0.025716  -0.015531  -0.083301
    117       0.000206  -0.125035  -0.208231  -0.039223   0.046029   0.128412
    118      -0.000349  -0.218230   0.184076   0.142937   0.191755   0.028818
    119      -0.000237   0.103448   0.100003   0.002750  -0.005733  -0.112847
    120      -0.000165  -0.144811  -0.262670  -0.068798   0.044704   0.182312
    121       0.001415  -0.243973   0.140018   0.126309   0.199208   0.082536
    122       0.001490   0.095565   0.037904  -0.041872  -0.021179  -0.066851
    123      -0.000016  -0.113244  -0.228820  -0.067154  -0.011295   0.101170
    124      -0.000309  -0.197718   0.152317   0.099475   0.123939  -0.000016
    125      -0.000755   0.131201   0.060956  -0.051995  -0.082285  -0.144310
    126      -0.002160   0.009285  -0.083018   0.056663   0.118218  -0.136863
    127       0.000262  -0.069204  -0.192881   0.144596   0.016387  -0.103730
    128       0.001400  -0.046748  -0.087104  -0.200155   0.135572  -0.060402
    129      -0.003960   0.013027  -0.088288   0.022352   0.153494  -0.155364
    130       0.002510  -0.080359  -0.221226   0.202833   0.011929  -0.145687
    131       0.001160  -0.045933  -0.098350  -0.217503   0.166142  -0.086608
    132      -0.000027  -0.000088  -0.126871   0.092317   0.159242  -0.220240
    133       0.000396  -0.065593  -0.174155   0.131811  -0.003727  -0.066767
    134      -0.000521  -0.042873  -0.081231  -0.219473   0.145651  -0.057775
    135       0.000249   0.006931  -0.068188   0.088769   0.069741  -0.099209
    136       0.000208  -0.069670  -0.216977   0.133856   0.066935  -0.161578
    137      -0.000658  -0.045418  -0.096528  -0.219144   0.165447  -0.084236
                 12         13         14         15         16         17    
      0       0.040098  -0.000329  -0.088856   0.017637  -0.029191   0.011510
      1       0.155632  -0.042663  -0.118873   0.016937  -0.022046  -0.001461
      2       0.097283  -0.039127   0.002307  -0.024091   0.012520   0.003735
      3       0.048400  -0.015957   0.001120  -0.018049  -0.017783   0.006644
      4       0.192871   0.039526   0.010157   0.040713  -0.004174   0.018816
      5       0.113984  -0.016558   0.086122  -0.030606   0.022213   0.008694
      6      -0.014547  -0.033181   0.068168  -0.051303  -0.007125  -0.001050
      7       0.026846   0.082549   0.101291   0.036146   0.004951   0.018073
      8       0.029108   0.032867   0.104093  -0.005861   0.020165   0.014322
      9      -0.084160  -0.033399   0.058082  -0.051579  -0.007994  -0.002480
     10      -0.183599   0.050805   0.107122   0.006270   0.006089   0.004948
     11      -0.069382   0.063838   0.068368   0.023566   0.024501   0.021927
     12      -0.095011  -0.015523  -0.026439  -0.016220  -0.019099   0.002389
     13      -0.226641  -0.027709  -0.005319  -0.021114  -0.007199  -0.014210
     14      -0.089127   0.045349  -0.010207   0.031159   0.015204   0.017766
     15      -0.032997  -0.001314  -0.106470   0.017958  -0.031226   0.008008
     16      -0.055511  -0.079276  -0.140665  -0.014761  -0.027999  -0.021017
     17      -0.004333  -0.008834  -0.050579   0.006754   0.008936   0.007364
     18       0.100606  -0.016745   0.013638  -0.020197  -0.014747   0.008382
     19       0.330468   0.062619   0.021865   0.058970  -0.001631   0.028997
     20       0.189691  -0.040584   0.127062  -0.055426   0.030361   0.005552
     21      -0.117951  -0.051775   0.099561  -0.079044  -0.005561  -0.010384
     22      -0.290943   0.081647   0.169418   0.007882   0.011738   0.004781
     23      -0.123729   0.102701   0.081736   0.047918   0.026348   0.028124
     24      -0.039198   0.009716  -0.173956   0.043554  -0.039327   0.010518
     25      -0.085078  -0.141591  -0.247637  -0.032968  -0.044993  -0.038941
     26      -0.017878  -0.026572  -0.119398   0.011452  -0.000744   0.002023
[...]
  13:       142.00    0.000000  (  0.000000   0.000000   0.000000)
  14:       150.52    0.000000  (  0.000000   0.000000   0.000000)
  15:       166.22    0.000000  (  0.000000   0.000000   0.000000)
  16:       171.70    0.000000  (  0.000000   0.000000   0.000000)
  17:       182.96    0.000000  (  0.000000   0.000000   0.000000)
  18:       185.63    0.000000  (  0.000000   0.000000   0.000000)
  19:       191.43    0.000000  (  0.000000   0.000000   0.000000)
  20:       221.63    0.000000  (  0.000000   0.000000   0.000000)
  21:       235.82    0.000000  (  0.000000   0.000000   0.000000)
  22:       242.67    0.000000  (  0.000000   0.000000   0.000000)
  23:       253.96    0.000000  (  0.000000   0.000000   0.000000)
  24:       284.89    0.000000  (  0.000000   0.000000   0.000000)
  25:       347.99    0.000000  (  0.000000   0.000000   0.000000)
  26:       356.98    0.000000  (  0.000000   0.000000   0.000000)
  27:       378.16    0.000000  (  0.000000   0.000000   0.000000)
  28:       387.52    0.000000  (  0.000000   0.000000   0.000000)
  29:       394.28    0.000000  (  0.000000   0.000000   0.000000)
  30:       402.80    0.000000  (  0.000000   0.000000   0.000000)
  31:       409.71    0.000000  (  0.000000   0.000000   0.000000)
  32:       437.35    0.000000  (  0.000000   0.000000   0.000000)
  33:       491.15    0.000000  (  0.000000   0.000000   0.000000)
  34:       504.62    0.000000  (  0.000000   0.000000   0.000000)
  35:       583.48    0.000000  (  0.000000   0.000000   0.000000)
  36:       590.73    0.000000  (  0.000000   0.000000   0.000000)
  37:       631.37    0.000000  (  0.000000   0.000000   0.000000)
  38:       647.10    0.000000  (  0.000000   0.000000   0.000000)
  39:       677.88    0.000000  (  0.000000   0.000000   0.000000)
  40:       739.62    0.000000  (  0.000000   0.000000   0.000000)
  41:       782.47    0.000000  (  0.000000   0.000000   0.000000)
  42:       793.68    0.000000  (  0.000000   0.000000   0.000000)
  43:       803.12    0.000000  (  0.000000   0.000000   0.000000)
  44:       825.66    0.000000  (  0.000000   0.000000   0.000000)
  45:       848.03    0.000000  (  0.000000   0.000000   0.000000)
  46:       852.11    0.000000  (  0.000000   0.000000   0.000000)
  47:       897.88    0.000000  (  0.000000   0.000000   0.000000)
  48:       908.01    0.000000  (  0.000000   0.000000   0.000000)
  49:       926.16    0.000000  (  0.000000   0.000000   0.000000)
  50:       935.58    0.000000  (  0.000000   0.000000   0.000000)
  51:       947.15    0.000000  (  0.000000   0.000000   0.000000)
  52:       948.70    0.000000  (  0.000000   0.000000   0.000000)
  53:       953.82    0.000000  (  0.000000   0.000000   0.000000)
  54:       955.37    0.000000  (  0.000000   0.000000   0.000000)
  55:       966.59    0.000000  (  0.000000   0.000000   0.000000)
  56:       968.48    0.000000  (  0.000000   0.000000   0.000000)
  57:       971.47    0.000000  (  0.000000   0.000000   0.000000)
  58:      1009.23    0.000000  (  0.000000   0.000000   0.000000)
  59:      1028.47    0.000000  (  0.000000   0.000000   0.000000)
  60:      1042.42    0.000000  (  0.000000   0.000000   0.000000)
  61:      1051.21    0.000000  (  0.000000   0.000000   0.000000)
  62:      1061.18    0.000000  (  0.000000   0.000000   0.000000)
  63:      1064.93    0.000000  (  0.000000   0.000000   0.000000)
  64:      1075.29    0.000000  (  0.000000   0.000000   0.000000)
  65:      1092.37    0.000000  (  0.000000   0.000000   0.000000)
  66:      1095.82    0.000000  (  0.000000   0.000000   0.000000)
  67:      1101.59    0.000000  (  0.000000   0.000000   0.000000)
  68:      1120.62    0.000000  (  0.000000   0.000000   0.000000)
  69:      1132.14    0.000000  (  0.000000   0.000000   0.000000)
  70:      1135.91    0.000000  (  0.000000   0.000000   0.000000)
  71:      1164.86    0.000000  (  0.000000   0.000000   0.000000)
  72:      1180.88    0.000000  (  0.000000   0.000000   0.000000)
  73:      1191.49    0.000000  (  0.000000   0.000000   0.000000)
  74:      1200.68    0.000000  (  0.000000   0.000000   0.000000)
  75:      1211.39    0.000000  (  0.000000   0.000000   0.000000)
  76:      1224.40    0.000000  (  0.000000   0.000000   0.000000)
  77:      1238.43    0.000000  (  0.000000   0.000000   0.000000)
  78:      1243.50    0.000000  (  0.000000   0.000000   0.000000)
  79:      1253.16    0.000000  (  0.000000   0.000000   0.000000)
  80:      1274.29    0.000000  (  0.000000   0.000000   0.000000)
  81:      1275.31    0.000000  (  0.000000   0.000000   0.000000)
  82:      1283.15    0.000000  (  0.000000   0.000000   0.000000)
  83:      1284.20    0.000000  (  0.000000   0.000000   0.000000)
  84:      1287.62    0.000000  (  0.000000   0.000000   0.000000)
  85:      1290.37    0.000000  (  0.000000   0.000000   0.000000)
  86:      1306.47    0.000000  (  0.000000   0.000000   0.000000)
  87:      1317.11    0.000000  (  0.000000   0.000000   0.000000)
  88:      1345.13    0.000000  (  0.000000   0.000000   0.000000)
  89:      1350.86    0.000000  (  0.000000   0.000000   0.000000)
  90:      1374.28    0.000000  (  0.000000   0.000000   0.000000)
  91:      1375.46    0.000000  (  0.000000   0.000000   0.000000)
  92:      1406.37    0.000000  (  0.000000   0.000000   0.000000)
  93:      1408.01    0.000000  (  0.000000   0.000000   0.000000)
  94:      1434.56    0.000000  (  0.000000   0.000000   0.000000)
  95:      1434.62    0.000000  (  0.000000   0.000000   0.000000)
  96:      1440.94    0.000000  (  0.000000   0.000000   0.000000)
  97:      1478.96    0.000000  (  0.000000   0.000000   0.000000)
  98:      1486.00    0.000000  (  0.000000   0.000000   0.000000)
  99:      1496.04    0.000000  (  0.000000   0.000000   0.000000)
 100:      1502.83    0.000000  (  0.000000   0.000000   0.000000)
 101:      1504.41    0.000000  (  0.000000   0.000000   0.000000)
 102:      1507.85    0.000000  (  0.000000   0.000000   0.000000)
 103:      1508.22    0.000000  (  0.000000   0.000000   0.000000)
 104:      1508.96    0.000000  (  0.000000   0.000000   0.000000)
 105:      1510.62    0.000000  (  0.000000   0.000000   0.000000)
 106:      1512.42    0.000000  (  0.000000   0.000000   0.000000)
 107:      1514.27    0.000000  (  0.000000   0.000000   0.000000)
 108:      1516.51    0.000000  (  0.000000   0.000000   0.000000)
 109:      1531.34    0.000000  (  0.000000   0.000000   0.000000)
 110:      1537.42    0.000000  (  0.000000   0.000000   0.000000)
 111:      2576.41    0.000000  (  0.000000   0.000000   0.000000)
 112:      2734.51    0.000000  (  0.000000   0.000000   0.000000)
 113:      2862.48    0.000000  (  0.000000   0.000000   0.000000)
 114:      2868.55    0.000000  (  0.000000   0.000000   0.000000)
 115:      2873.34    0.000000  (  0.000000   0.000000   0.000000)
 116:      2877.83    0.000000  (  0.000000   0.000000   0.000000)
 117:      2883.88    0.000000  (  0.000000   0.000000   0.000000)
 118:      2897.64    0.000000  (  0.000000   0.000000   0.000000)
 119:      2897.95    0.000000  (  0.000000   0.000000   0.000000)
 120:      2902.26    0.000000  (  0.000000   0.000000   0.000000)
 121:      2903.35    0.000000  (  0.000000   0.000000   0.000000)
 122:      2911.87    0.000000  (  0.000000   0.000000   0.000000)
 123:      2912.81    0.000000  (  0.000000   0.000000   0.000000)
 124:      2914.36    0.000000  (  0.000000   0.000000   0.000000)
 125:      2917.80    0.000000  (  0.000000   0.000000   0.000000)
 126:      2919.82    0.000000  (  0.000000   0.000000   0.000000)
 127:      2921.27    0.000000  (  0.000000   0.000000   0.000000)
 128:      2930.86    0.000000  (  0.000000   0.000000   0.000000)
 129:      2932.54    0.000000  (  0.000000   0.000000   0.000000)
 130:      2946.58    0.000000  (  0.000000   0.000000   0.000000)
 131:      2955.98    0.000000  (  0.000000   0.000000   0.000000)
 132:      2974.26    0.000000  (  0.000000   0.000000   0.000000)
 133:      2978.24    0.000000  (  0.000000   0.000000   0.000000)
 134:      2989.97    0.000000  (  0.000000   0.000000   0.000000)
 135:      2998.03    0.000000  (  0.000000   0.000000   0.000000)
 136:      3253.43    0.000000  (  0.000000   0.000000   0.000000)
 137:      3306.29    0.000000  (  0.000000   0.000000   0.000000)

The first frequency considered to be a vibration is 7
The total number of vibrations considered is 131


--------------------------
THERMOCHEMISTRY AT 298.15K
--------------------------

Temperature         ... 298.15 K
Pressure            ... 1.00 atm
Total Mass          ... 252.40 AMU

Throughout the following assumptions are being made:
  (1) The electronic state is orbitally nondegenerate
  (2) There are no thermally accessible electronically excited states
  (3) Hindered rotations indicated by low frequency modes are not
      treated as such but are treated as vibrations and this may
      cause some error
  (4) All equations used are the standard statistical mechanics
      equations for an ideal gas
  (5) All vibrations are strictly harmonic

freq.      45.58  E(vib)   ...       0.53 
freq.      59.23  E(vib)   ...       0.51 
freq.      72.62  E(vib)   ...       0.49 
freq.      92.02  E(vib)   ...       0.47 
freq.     108.08  E(vib)   ...       0.45 
freq.     113.68  E(vib)   ...       0.44 
freq.     142.00  E(vib)   ...       0.41 
freq.     150.52  E(vib)   ...       0.40 
freq.     166.22  E(vib)   ...       0.39 
freq.     171.70  E(vib)   ...       0.38 
freq.     182.96  E(vib)   ...       0.37 
freq.     185.63  E(vib)   ...       0.37 
freq.     191.43  E(vib)   ...       0.36 
freq.     221.63  E(vib)   ...       0.33 
freq.     235.82  E(vib)   ...       0.32 
freq.     242.67  E(vib)   ...       0.31 
freq.     253.96  E(vib)   ...       0.30 
freq.     284.89  E(vib)   ...       0.28 
freq.     347.99  E(vib)   ...       0.23 
freq.     356.98  E(vib)   ...       0.22 
freq.     378.16  E(vib)   ...       0.21 
freq.     387.52  E(vib)   ...       0.20 
freq.     394.28  E(vib)   ...       0.20 
freq.     402.80  E(vib)   ...       0.19 
freq.     409.71  E(vib)   ...       0.19 
freq.     437.35  E(vib)   ...       0.17 
freq.     491.15  E(vib)   ...       0.14 
freq.     504.62  E(vib)   ...       0.14 
freq.     583.48  E(vib)   ...       0.11 
freq.     590.73  E(vib)   ...       0.10 
freq.     631.37  E(vib)   ...       0.09 
freq.     647.10  E(vib)   ...       0.09 
freq.     677.88  E(vib)   ...       0.08 
freq.     739.62  E(vib)   ...       0.06 
freq.     782.47  E(vib)   ...       0.05 
freq.     793.68  E(vib)   ...       0.05 
freq.     803.12  E(vib)   ...       0.05 
freq.     825.66  E(vib)   ...       0.04 
freq.     848.03  E(vib)   ...       0.04 
freq.     852.11  E(vib)   ...       0.04 
freq.     897.88  E(vib)   ...       0.03 
freq.     908.01  E(vib)   ...       0.03 
freq.     926.16  E(vib)   ...       0.03 
freq.     935.58  E(vib)   ...       0.03 
freq.     947.15  E(vib)   ...       0.03 
freq.     948.70  E(vib)   ...       0.03 
freq.     953.82  E(vib)   ...       0.03 
freq.     955.37  E(vib)   ...       0.03 
freq.     966.59  E(vib)   ...       0.03 
freq.     968.48  E(vib)   ...       0.03 
freq.     971.47  E(vib)   ...       0.03 
freq.    1009.23  E(vib)   ...       0.02 
freq.    1028.47  E(vib)   ...       0.02 
freq.    1042.42  E(vib)   ...       0.02 
freq.    1051.21  E(vib)   ...       0.02 
freq.    1061.18  E(vib)   ...       0.02 
freq.    1064.93  E(vib)   ...       0.02 
freq.    1075.29  E(vib)   ...       0.02 
freq.    1092.37  E(vib)   ...       0.02 
freq.    1095.82  E(vib)   ...       0.02 
freq.    1101.59  E(vib)   ...       0.02 
freq.    1120.62  E(vib)   ...       0.01 
freq.    1132.14  E(vib)   ...       0.01 
freq.    1135.91  E(vib)   ...       0.01 
freq.    1164.86  E(vib)   ...       0.01 
freq.    1180.88  E(vib)   ...       0.01 
freq.    1191.49  E(vib)   ...       0.01 
freq.    1200.68  E(vib)   ...       0.01 
freq.    1211.39  E(vib)   ...       0.01 
freq.    1224.40  E(vib)   ...       0.01 
freq.    1238.43  E(vib)   ...       0.01 
freq.    1243.50  E(vib)   ...       0.01 
freq.    1253.16  E(vib)   ...       0.01 
freq.    1274.29  E(vib)   ...       0.01 
freq.    1275.31  E(vib)   ...       0.01 
freq.    1283.15  E(vib)   ...       0.01 
freq.    1284.20  E(vib)   ...       0.01 
freq.    1287.62  E(vib)   ...       0.01 
freq.    1290.37  E(vib)   ...       0.01 
freq.    1306.47  E(vib)   ...       0.01 
freq.    1317.11  E(vib)   ...       0.01 
freq.    1345.13  E(vib)   ...       0.01 
freq.    1350.86  E(vib)   ...       0.01 
freq.    1374.28  E(vib)   ...       0.01 
freq.    1375.46  E(vib)   ...       0.01 
freq.    1406.37  E(vib)   ...       0.00 
freq.    1408.01  E(vib)   ...       0.00 
freq.    1434.56  E(vib)   ...       0.00 
freq.    1434.62  E(vib)   ...       0.00 
freq.    1440.94  E(vib)   ...       0.00 
freq.    1478.96  E(vib)   ...       0.00 
freq.    1486.00  E(vib)   ...       0.00 
freq.    1496.04  E(vib)   ...       0.00 
freq.    1502.83  E(vib)   ...       0.00 
freq.    1504.41  E(vib)   ...       0.00 
freq.    1507.85  E(vib)   ...       0.00 
freq.    1508.22  E(vib)   ...       0.00 
freq.    1508.96  E(vib)   ...       0.00 
freq.    1510.62  E(vib)   ...       0.00 
freq.    1512.42  E(vib)   ...       0.00 
freq.    1514.27  E(vib)   ...       0.00 
freq.    1516.51  E(vib)   ...       0.00 
freq.    1531.34  E(vib)   ...       0.00 
freq.    1537.42  E(vib)   ...       0.00 
freq.    2576.41  E(vib)   ...       0.00 
freq.    2734.51  E(vib)   ...       0.00 
freq.    2862.48  E(vib)   ...       0.00 
freq.    2868.55  E(vib)   ...       0.00 
freq.    2873.34  E(vib)   ...       0.00 
freq.    2877.83  E(vib)   ...       0.00 
freq.    2883.88  E(vib)   ...       0.00 
freq.    2897.64  E(vib)   ...       0.00 
freq.    2897.95  E(vib)   ...       0.00 
freq.    2902.26  E(vib)   ...       0.00 
freq.    2903.35  E(vib)   ...       0.00 
freq.    2911.87  E(vib)   ...       0.00 
freq.    2912.81  E(vib)   ...       0.00 
freq.    2914.36  E(vib)   ...       0.00 
freq.    2917.80  E(vib)   ...       0.00 
freq.    2919.82  E(vib)   ...       0.00 
freq.    2921.27  E(vib)   ...       0.00 
freq.    2930.86  E(vib)   ...       0.00 
freq.    2932.54  E(vib)   ...       0.00 
freq.    2946.58  E(vib)   ...       0.00 
freq.    2955.98  E(vib)   ...       0.00 
freq.    2974.26  E(vib)   ...       0.00 
freq.    2978.24  E(vib)   ...       0.00 
freq.    2989.97  E(vib)   ...       0.00 
freq.    2998.03  E(vib)   ...       0.00 
freq.    3253.43  E(vib)   ...       0.00 
freq.    3306.29  E(vib)   ...       0.00 

------------
INNER ENERGY
------------

The inner energy is: U= E(el) + E(ZPE) + E(vib) + E(rot) + E(trans)
    E(el)   - is the total energy from the electronic structure calculation
              = E(kin-el) + E(nuc-el) + E(el-el) + E(nuc-nuc)
    E(ZPE)  - the the zero temperature vibrational energy from the frequency calculation
    E(vib)  - the the finite temperature correction to E(ZPE) due to population
              of excited vibrational states
    E(rot)  - is the rotational thermal energy
    E(trans)- is the translational thermal energy

Summary of contributions to the inner energy U:
Electronic energy                ...    -56.27315991 Eh
Zero point energy                ...      0.39674866 Eh     248.96 kcal/mol
Thermal vibrational correction   ...      0.01687662 Eh      10.59 kcal/mol
Thermal rotational correction    ...      0.00141627 Eh       0.89 kcal/mol
Thermal translational correction ...      0.00141627 Eh       0.89 kcal/mol
-----------------------------------------------------------------------
Total thermal energy                    -55.85670209 Eh


Summary of corrections to the electronic energy:
(perhaps to be used in another calculation)
Total thermal correction                  0.01970916 Eh      12.37 kcal/mol
Non-thermal (ZPE) correction              0.39674866 Eh     248.96 kcal/mol
-----------------------------------------------------------------------
Total correction                          0.41645782 Eh     261.33 kcal/mol


--------
ENTHALPY
--------

The enthalpy is H = U + kB*T
                kB is Boltzmann's constant
Total free energy                 ...    -55.85670209 Eh 
Thermal Enthalpy correction       ...      0.00094421 Eh       0.59 kcal/mol
-----------------------------------------------------------------------
Total Enthalpy                    ...    -55.85575788 Eh


Note: Only C1 symmetry has been detected, increase convergence thresholds 
      if your molecule has a higher symmetry. Symmetry factor of 1.0 is   
      used for the rotational entropy correction. 
 

Note: Rotational entropy computed according to Herzberg 
Infrared and Raman Spectra, Chapter V,1, Van Nostrand Reinhold, 1945 
Point Group:  C1, Symmetry Number:   1  
Rotational constants in cm-1:     0.012001     0.007295     0.005486 

Vibrational entropy computed according to the QRRHO of S. Grimme
Chem.Eur.J. 2012 18 9955


-------
ENTROPY
-------

The entropy contributions are T*S = T*(S(el)+S(vib)+S(rot)+S(trans))
     S(el)   - electronic entropy
     S(vib)  - vibrational entropy
     S(rot)  - rotational entropy
     S(trans)- translational entropy
The entropies will be listed as mutliplied by the temperature to get
units of energy

Electronic entropy                ...      0.00000000 Eh      0.00 kcal/mol
Vibrational entropy               ...      0.02931057 Eh     18.39 kcal/mol
Rotational entropy                ...      0.01637924 Eh     10.28 kcal/mol
Translational entropy             ...      0.02018250 Eh     12.66 kcal/mol
-----------------------------------------------------------------------
Final entropy term                ...      0.06587231 Eh     41.34 kcal/mol

In case the symmetry of your molecule has not been determined correctly
or in case you have a reason to use a different symmetry number we print 
out the resulting rotational entropy values for sn=1,12 :
 --------------------------------------------------------
|  sn= 1 | S(rot)=       0.01637924 Eh     10.28 kcal/mol|
|  sn= 2 | S(rot)=       0.01572478 Eh      9.87 kcal/mol|
|  sn= 3 | S(rot)=       0.01534195 Eh      9.63 kcal/mol|
|  sn= 4 | S(rot)=       0.01507032 Eh      9.46 kcal/mol|
|  sn= 5 | S(rot)=       0.01485964 Eh      9.32 kcal/mol|
|  sn= 6 | S(rot)=       0.01468749 Eh      9.22 kcal/mol|
|  sn= 7 | S(rot)=       0.01454194 Eh      9.13 kcal/mol|
|  sn= 8 | S(rot)=       0.01441587 Eh      9.05 kcal/mol|
|  sn= 9 | S(rot)=       0.01430466 Eh      8.98 kcal/mol|
|  sn=10 | S(rot)=       0.01420518 Eh      8.91 kcal/mol|
|  sn=11 | S(rot)=       0.01411519 Eh      8.86 kcal/mol|
|  sn=12 | S(rot)=       0.01403303 Eh      8.81 kcal/mol|
 --------------------------------------------------------


-------------------
GIBBS FREE ENERGY
-------------------

The Gibbs free energy is G = H - T*S

Total enthalpy                    ...    -55.85575788 Eh 
Total entropy correction          ...     -0.06587231 Eh    -41.34 kcal/mol
-----------------------------------------------------------------------
Final Gibbs free energy         ...    -55.92163019 Eh

For completeness - the Gibbs free energy minus the electronic energy
G-E(el)                           ...      0.35152972 Eh    220.59 kcal/mol


Total Time for Numerical Frequencies  :       164.087 sec
Time for Reference State(s)           :         0.180 sec
Time for Displacements                :       142.630 sec

Timings for individual modules:

Sum of individual times         ...        0.356 sec (=   0.006 min)
XTB module                      ...        0.356 sec (=   0.006 min) 100.0 %
                             ****ORCA TERMINATED NORMALLY****
TOTAL RUN TIME: 0 days 0 hours 2 minutes 44 seconds 924 msec
(SLURM) EXECUTION TIME: 164.959652773 seconds.
