(SLURM) JOB ID:         408

                                 *****************
                                 * O   R   C   A *
                                 *****************

           --- An Ab Initio, DFT and Semiempirical electronic structure package ---

                  #######################################################
                  #                        -***-                        #
                  #          Department of theory and spectroscopy      #
                  #               Directorship: Frank Neese             #
                  #        Max Planck Institute fuer Kohlenforschung    #
                  #                Kaiser Wilhelm Platz 1               #
                  #                 D-45470 Muelheim/Ruhr               #
                  #                      Germany                        #
                  #                                                     #
                  #                  All rights reserved                #
                  #                        -***-                        #
                  #######################################################


                         Program Version 4.2.1 -  RELEASE  -


 With contributions from (in alphabetic order):
   Daniel Aravena         : Magnetic Suceptibility
   Michael Atanasov       : Ab Initio Ligand Field Theory (pilot matlab implementation)
   Alexander A. Auer      : GIAO ZORA, VPT2
   Ute Becker             : Parallelization
   Giovanni Bistoni       : ED, misc. LED, open-shell LED, HFLD
   Martin Brehm           : Molecular dynamics
   Dmytro Bykov           : SCF Hessian
   Vijay G. Chilkuri      : MRCI spin determinant printing, contributions to CSF-ICE
   Dipayan Datta          : RHF DLPNO-CCSD density
   Achintya Kumar Dutta   : EOM-CC, STEOM-CC
   Dmitry Ganyushin       : Spin-Orbit,Spin-Spin,Magnetic field MRCI
   Miquel Garcia          : C-PCM Hessian, Gaussian charge scheme
   Yang Guo               : DLPNO-NEVPT2, CIM, IAO-localization
   Andreas Hansen         : Spin unrestricted coupled pair/coupled cluster methods
   Benjamin Helmich-Paris : CASSCF linear response (MC-RPA)
   Lee Huntington         : MR-EOM, pCC
   Robert Izsak           : Overlap fitted RIJCOSX, COSX-SCS-MP3, EOM
   Christian Kollmar      : KDIIS, OOCD, Brueckner-CCSD(T), CCSD density
   Simone Kossmann        : Meta GGA functionals, TD-DFT gradient, OOMP2, MP2 Hessian
   Martin Krupicka        : AUTO-CI
   Lucas Lang             : DCDCAS
   Dagmar Lenk            : GEPOL surface, SMD
   Dimitrios Liakos       : Extrapolation schemes; Compound Job, initial MDCI parallelization
   Dimitrios Manganas     : Further ROCIS development; embedding schemes
   Dimitrios Pantazis     : SARC Basis sets
   Taras Petrenko         : DFT Hessian,TD-DFT gradient, ASA, ECA, R-Raman, ABS, FL, XAS/XES, NRVS
   Peter Pinski           : DLPNO-MP2, DLPNO-MP2 Gradient
   Christoph Reimann      : Effective Core Potentials
   Marius Retegan         : Local ZFS, SOC
   Christoph Riplinger    : Optimizer, TS searches, QM/MM, DLPNO-CCSD(T), (RO)-DLPNO pert. Triples
   Tobias Risthaus        : Range-separated hybrids, TD-DFT gradient, RPA, STAB
   Michael Roemelt        : Original ROCIS implementation
   Masaaki Saitow         : Open-shell DLPNO-CCSD energy and density
   Barbara Sandhoefer     : DKH picture change effects
   Avijit Sen             : IP-ROCIS
   Kantharuban Sivalingam : CASSCF convergence, NEVPT2, FIC-MRCI
   Bernardo de Souza      : ESD, SOC TD-DFT
   Georgi Stoychev        : AutoAux, RI-MP2 NMR
   Willem Van den Heuvel  : Paramagnetic NMR
   Boris Wezisla          : Elementary symmetry handling
   Frank Wennmohs         : Technical directorship


 We gratefully acknowledge several colleagues who have allowed us to
 interface, adapt or use parts of their codes:
   Stefan Grimme, W. Hujo, H. Kruse,             : VdW corrections, initial TS optimization,
                  C. Bannwarth                     DFT functionals, gCP, sTDA/sTD-DF
   Ed Valeev, F. Pavosevic, A. Kumar             : LibInt (2-el integral package), F12 methods
   Garnet Chan, S. Sharma, J. Yang, R. Olivares  : DMRG
   Ulf Ekstrom                                   : XCFun DFT Library
   Mihaly Kallay                                 : mrcc  (arbitrary order and MRCC methods)
   Andreas Klamt, Michael Diedenhofen            : otool_cosmo (COSMO solvation model)
   Jiri Pittner, Ondrej Demel                    : Mk-CCSD
   Frank Weinhold                                : gennbo (NPA and NBO analysis)
   Christopher J. Cramer and Donald G. Truhlar   : smd solvation model
   Lars Goerigk                                  : TD-DFT with DH, B97 family of functionals
   V. Asgeirsson, H. Jonsson                     : NEB implementation
   FAccTs GmbH                                   : IRC, NEB, NEB-TS, Multilevel, MM, QM/MM, CI optimization
   S Lehtola, MJT Oliveira, MAL Marques          : LibXC Library


 Your calculation uses the libint2 library for the computation of 2-el integrals
 For citations please refer to: http://libint.valeyev.net

 Your ORCA version has been built with support for libXC version: 4.2.3
 For citations please refer to: https://tddft.org/programs/libxc/

 This ORCA versions uses:
   CBLAS   interface :  Fast vector & matrix operations
   LAPACKE interface :  Fast linear algebra routines
   SCALAPACK package :  Parallel linear algebra routines




***************************************
The coordinates will be read from file: init.xyz
***************************************


Your calculation utilizes the SMD solvation module
Please cite in your paper:
A.V. Marenich, C.J. Cramer, D.G. Truhlar J. Phys. Chem. B, 113, (2009), 6378 

Your calculation utilizes the semiempirical GFN2-xTB method
Please cite in your paper:
C. Bannwarth, Ehlert S., S. Grimme,  J. Chem. Theory Comput., 15, (2019), 1652.
   

----- Orbital basis set information -----
Your calculation utilizes the basis: def2-SVP
   F. Weigend and R. Ahlrichs, Phys. Chem. Chem. Phys. 7, 3297 (2005).

================================================================================
                                        WARNINGS
                       Please study these warnings very carefully!
================================================================================

WARNING: Gradients needed for Numerical Frequencies
  ===> : Setting RunTyp to EnGrad

WARNING: The environment variable RSH_COMMAND is not set!
  ===> : All Displacements for the Numerical Hessian calculation
         will be started on localhost

WARNING: Found dipole moment calculation with XTB calculation
  ===> : Switching off dipole moment calculation


INFO   : the flag for use of LIBINT has been found!

================================================================================
                                       INPUT FILE
================================================================================
NAME = /tmp/slurm-scratch/freq.408/freq.inp
|  1> ! XTB2 NumFreq
|  2> %maxcore 1150
|  3> 
|  4> * xyzfile 0 1 init.xyz
|  5> 
|  6> %cpcm
|  7>  smd true
|  8>  smdsolvent "ch2cl2"
|  9> end
| 10> %pal nprocs 9 end
| 11> 
| 12>                          ****END OF INPUT****
================================================================================

                     *******************************
                     * Energy+Gradient Calculation *
                     *******************************

      -----------------------------------------------------------      
     |                   =====================                   |     
     |                           x T B                           |     
     |                   =====================                   |     
     |                         S. Grimme                         |     
     |          Mulliken Center for Theoretical Chemistry        |     
     |                    University of Bonn                     |     
      -----------------------------------------------------------      

   * xtb version 6.3.2 (30e43eb) compiled by 'schneider@apollo14' on 2020-08-08

   xtb is free software: you can redistribute it and/or modify it under
   the terms of the GNU Lesser General Public License as published by
   the Free Software Foundation, either version 3 of the License, or
   (at your option) any later version.
   
   xtb is distributed in the hope that it will be useful,
   but WITHOUT ANY WARRANTY; without even the implied warranty of
   MERCHANTABILITY or FITNESS FOR A PARTICULAR PURPOSE.  See the
   GNU Lesser General Public License for more details.
   
   Cite this work as:
   * S. Grimme, C. Bannwarth, P. Shushkov, J. Chem. Theory Comput., 2017,
     13, 1989-2009. DOI: 10.1021/acs.jctc.7b00118
   * C. Bannwarth, S. Ehlert and S. Grimme., J. Chem. Theory Comput., 2019,
     15, 1652-1671. DOI: 10.1021/acs.jctc.8b01176
   * P. Pracht, E. Caldeweyher, S. Ehlert, S. Grimme, ChemRxiv, 2019, preprint.
     DOI: 10.26434/chemrxiv.8326202.v1
   
   for GFN-FF:
   * S. Spicher and S. Grimme, Angew. Chem. Int. Ed., 2020,
     DOI: 10.1002/anie.202004239
   
   for DFT-D4:
   * E. Caldeweyher, C. Bannwarth and S. Grimme, J. Chem. Phys., 2017,
     147, 034112. DOI: 10.1063/1.4993215
   * E. Caldeweyher, S. Ehlert, A. Hansen, H. Neugebauer, S. Spicher,
     C. Bannwarth and S. Grimme, J. Chem. Phys., 2019, 150, 154122.
     DOI: 10.1063/1.5090222
   
   for sTDA-xTB:
   * S. Grimme and C. Bannwarth, J. Chem. Phys., 2016, 145, 054103.
     DOI: 10.1063/1.4959605
   
   in the mass-spec context:
   * V. Asgeirsson, C. Bauer and S. Grimme, Chem. Sci., 2017, 8, 4879.
     DOI: 10.1039/c7sc00601b
   * J. Koopman and S. Grimme, ACS Omega 2019, 4, 12, 15120-15133.
     DOI: 10.1021/acsomega.9b02011
   
   for metadynamics refer to:
   * S. Grimme, J. Chem. Theory Comput., 2019, 155, 2847-2862
     DOI: 10.1021/acs.jctc.9b00143
   
   with help from (in alphabetical order)
   C. Bannwarth, F. Bohle, G. Brandenburg, E. Caldeweyher, M. Checinski,
   S. Dohm, S. Ehlert, S. Ehrlich, F. März, H. Neugebauer, J. Pisarek,
   P. Pracht, P. Shushkov, and S. Spicher.
   
 * started run on 2020/08/21 at 15:09:10.161     

           -------------------------------------------------
          |                Calculation Setup                |
           -------------------------------------------------

          program call               : /opt/orca/otool_xtb /tmp/slurm-scratch/freq.408/freq_XTB.xyz --grad -c 0 -u 0 -P 9 --namespace /tmp/slurm-scratch/freq.408/freq --gbsa CH2Cl2
          hostname                   : apollo14
          calculation namespace      : /tmp/slurm-scratch/freq.408/freq
          coordinate file            : /tmp/slurm-scratch/freq.408/freq_XTB.xyz
          omp threads                :                     9
          number of atoms            :                    49
          number of electrons        :                   112
          charge                     :                     0
          spin                       :                   0.0
          first test random number   :      0.57167627168928

   ID    Z sym.   atoms
    1    6 C      1-7, 12, 14, 30, 33, 36, 39, 42, 46
    2    1 H      8-10, 13, 15-18, 21, 22, 24-29, 31, 32, 34, 35, 37, 38, 40,
                  41, 43-45, 47-49
    3    7 N      11, 20
    4    8 O      19, 23

molecular fragmentation (1/2 indicates fragments):
1111111111222222221222222121122222222222222222222
# atoms in fragment 1/2:    14    35
 fragment masses (1/2) :      106.12      164.29
CMA distance (Bohr)    :   7.066
constraining FC (au)   :  0.0500
########################################################################
[WARNING] Please study the warnings concerning your input carefully
-1- prog_main_parseArguments: Process number higher than OMP_NUM_THREADS, I hope you know what you are doing.
########################################################################

           -------------------------------------------------
          |                 G F N 2 - x T B                 |
           -------------------------------------------------

        Reference                      10.1021/acs.jctc.8b01176
      * Hamiltonian:
        H0-scaling (s, p, d)           1.850000    2.230000    2.230000
        zeta-weighting                 0.500000
      * Dispersion:
        s8                             2.700000
        a1                             0.520000
        a2                             5.000000
        s9                             5.000000
      * Repulsion:
        kExp                           1.500000    1.000000
        rExp                           1.000000
      * Coulomb:
        alpha                          2.000000
        third order                    shell-resolved
        anisotropic                    true
        a3                             3.000000
        a5                             4.000000
        cn-shift                       1.200000
        cn-exp                         4.000000
        max-rad                        5.000000

      * Solvation model:               GBSA
        Solvent                        CH2Cl2
        Parameter file                 internal GFN2-xTB/GBSA
        Dielectric constant                8.9300E+00
        Reference state                gsolv [1 M gas/solution]
        Free energy shift                  4.4408E-03 Eh       2.7867E+00 kcal/mol
        Temperature                        2.9815E+02 K
        Density                            1.3300E+00 kg/L
        Solvent mass                       8.4930E+01 g/mol
        Interaction kernel             Still
        Born radius scaling (c1)           1.4917E+00
        Born radii integrator          GBOBC
        Born offset                        0.0000E+00 a0       0.0000E+00 AA
        H-bond correction              false
        Ion screening                  false
        Surface tension                    1.0000E-05 Eh       1.5569E+01 dyn/cm
        Grid points                               230 per atom

          ...................................................
          :                      SETUP                      :
          :.................................................:
          :  # basis functions                 106          :
          :  # atomic orbitals                 106          :
          :  # shells                           68          :
          :  # electrons                       112          :
          :  max. iterations                   250          :
          :  Hamiltonian                  GFN2-xTB          :
          :  restarted?                      false          :
          :  GBSA solvation                   true          :
          :  PC potential                    false          :
          :  electronic temp.          300.0000000     K    :
          :  accuracy                    1.0000000          :
          :  -> integral cutoff          0.2500000E+02      :
          :  -> integral neglect         0.1000000E-07      :
          :  -> SCF convergence          0.1000000E-05 Eh   :
          :  -> wf. convergence          0.1000000E-03 e    :
          :  Broyden damping             0.4000000          :
          ...................................................

 iter      E             dE          RMSdq      gap      omega  full diag
   1    -62.0649591 -0.620650E+02  0.374E+00    2.39       0.0  T
   2    -62.1580579 -0.930989E-01  0.200E+00    2.17       1.0  T
   3    -62.1587387 -0.680727E-03  0.954E-01    2.29       1.0  T
   4    -62.1644785 -0.573985E-02  0.220E-01    2.07       1.0  T
   5    -62.1656781 -0.119955E-02  0.728E-02    2.11       1.0  T
   6    -62.1657267 -0.486722E-04  0.360E-02    2.12       1.0  T
   7    -62.1657463 -0.195756E-04  0.130E-02    2.12       1.1  T
   8    -62.1657478 -0.145165E-05  0.422E-03    2.12       3.4  T
   9    -62.1657480 -0.215655E-06  0.178E-03    2.12       8.0  T
  10    -62.1657480 -0.395110E-07  0.899E-04    2.12      15.9  T
  11    -62.1657480 -0.717586E-08  0.377E-04    2.12      37.9  T

   *** convergence criteria satisfied after 11 iterations ***

         #    Occupation            Energy/Eh            Energy/eV
      -------------------------------------------------------------
         1        2.0000           -0.7086040             -19.2821
       ...           ...                  ...                  ...
        50        2.0000           -0.4232215             -11.5164
        51        2.0000           -0.4230625             -11.5121
        52        2.0000           -0.4176123             -11.3638
        53        2.0000           -0.4159554             -11.3187
        54        2.0000           -0.4026008             -10.9553
        55        2.0000           -0.3867819             -10.5249
        56        2.0000           -0.3718399             -10.1183 (HOMO)
        57                         -0.2939298              -7.9982 (LUMO)
        58                         -0.2394597              -6.5160
        59                         -0.2075017              -5.6464
        60                         -0.1039830              -2.8295
        61                         -0.0073474              -0.1999
       ...                                ...                  ...
       106                          0.6157685              16.7559
      -------------------------------------------------------------
                  HL-Gap            0.0779102 Eh            2.1200 eV
             Fermi-level           -0.3328848 Eh           -9.0583 eV

 SCC (total)                   0 d,  0 h,  0 min,  0.193 sec
 SCC setup                      ...        0 min,  0.008 sec (  4.283%)
 Dispersion                     ...        0 min,  0.010 sec (  4.959%)
 classical contributions        ...        0 min,  0.003 sec (  1.789%)
 integral evaluation            ...        0 min,  0.024 sec ( 12.336%)
 iterations                     ...        0 min,  0.081 sec ( 42.199%)
 molecular gradient             ...        0 min,  0.066 sec ( 34.265%)
 printout                       ...        0 min,  0.000 sec (  0.156%)

         :::::::::::::::::::::::::::::::::::::::::::::::::::::
         ::                     SUMMARY                     ::
         :::::::::::::::::::::::::::::::::::::::::::::::::::::
         :: total energy             -61.361624316765 Eh    ::
         :: total w/o Gsasa/hb       -61.338643152129 Eh    ::
         :: gradient norm              0.057502240226 Eh/a0 ::
         :: HOMO-LUMO gap              2.120043545840 eV    ::
         ::.................................................::
         :: SCC energy               -62.165748036124 Eh    ::
         :: -> isotropic ES            0.095709165925 Eh    ::
         :: -> anisotropic ES          0.004720389672 Eh    ::
         :: -> anisotropic XC          0.039020000232 Eh    ::
         :: -> dispersion             -0.041856602053 Eh    ::
         :: -> Gsolv                  -0.033088962447 Eh    ::
         ::    -> Gborn               -0.010107797811 Eh    ::
         ::    -> Gsasa               -0.027421993809 Eh    ::
         ::    -> Ghb                  0.000000000000 Eh    ::
         ::    -> Gshift               0.004440829173 Eh    ::
         :: repulsion energy           0.802794265043 Eh    ::
         :: add. restraining           0.000000000000 Eh    ::
         :: total charge              -0.000000000000 e     ::
         :::::::::::::::::::::::::::::::::::::::::::::::::::::

           -------------------------------------------------
          |                Property Printout                |
           -------------------------------------------------

    * Orbital Energies and Occupations

         #    Occupation            Energy/Eh            Energy/eV
      -------------------------------------------------------------
         1        2.0000           -0.7086040             -19.2821
       ...           ...                  ...                  ...
        44        2.0000           -0.4402199             -11.9790
        45        2.0000           -0.4384079             -11.9297
        46        2.0000           -0.4356184             -11.8538
        47        2.0000           -0.4347793             -11.8309
        48        2.0000           -0.4340491             -11.8111
        49        2.0000           -0.4284062             -11.6575
        50        2.0000           -0.4232215             -11.5164
        51        2.0000           -0.4230625             -11.5121
        52        2.0000           -0.4176123             -11.3638
        53        2.0000           -0.4159554             -11.3187
        54        2.0000           -0.4026008             -10.9553
        55        2.0000           -0.3867819             -10.5249
        56        2.0000           -0.3718399             -10.1183 (HOMO)
        57                         -0.2939298              -7.9982 (LUMO)
        58                         -0.2394597              -6.5160
        59                         -0.2075017              -5.6464
        60                         -0.1039830              -2.8295
        61                         -0.0073474              -0.1999
        62                          0.0135037               0.3675
        63                          0.0549235               1.4945
        64                          0.0710161               1.9324
        65                          0.0812821               2.2118
        66                          0.0872617               2.3745
        67                          0.0955756               2.6007
       ...                                ...                  ...
       106                          0.6157685              16.7559
      -------------------------------------------------------------
                  HL-Gap            0.0779102 Eh            2.1200 eV
             Fermi-level           -0.3328848 Eh           -9.0583 eV

     #   Z          covCN         q      C6AA      α(0)
     1   6 C        2.961    -0.008    28.228     8.715
     2   6 C        2.913    -0.023    28.585     8.767
     3   6 C        2.907    -0.025    28.629     8.773
     4   6 C        2.910    -0.017    28.443     8.745
     5   6 C        2.908    -0.023    28.586     8.767
     6   6 C        2.912    -0.012    28.325     8.727
     7   6 C        2.763     0.208    23.595     7.955
     8   1 H        0.925     0.049     2.329     2.386
     9   1 H        0.925     0.050     2.322     2.383
    10   1 H        0.925     0.053     2.278     2.360
    11   7 N        2.626    -0.371    29.582     8.078
    12   6 C        3.727     0.023    20.278     6.429
    13   1 H        0.859     0.172     1.263     1.760
    14   6 C        3.797    -0.064    21.723     6.636
    15   1 H        0.922     0.009     2.900     2.663
    16   1 H        0.923     0.029     2.607     2.525
    17   1 H        0.923     0.040     2.450     2.448
    18   1 H        0.923     0.034     2.534     2.490
    19   8 O        0.856    -0.414    21.964     6.283
    20   7 N        2.626    -0.367    29.483     8.064
    21   1 H        0.859     0.172     1.261     1.759
    22   1 H        0.859     0.148     1.413     1.862
    23   8 O        1.599    -0.631    25.949     6.875
    24   1 H        0.796     0.306     0.706     1.321
    25   1 H        0.804     0.274     0.804     1.409
    26   1 H        0.922     0.034     2.533     2.489
    27   1 H        0.860     0.141     1.467     1.897
    28   1 H        0.925     0.051     2.309     2.376
    29   1 H        0.925     0.050     2.325     2.384
    30   6 C        3.795    -0.053    21.522     6.606
    31   1 H        0.923     0.031     2.572     2.508
    32   1 H        0.923     0.031     2.580     2.512
    33   6 C        3.727     0.017    20.381     6.446
    34   1 H        0.923     0.017     2.781     2.608
    35   1 H        0.923     0.037     2.487     2.466
    36   6 C        3.798    -0.070    21.841     6.654
    37   1 H        0.923     0.045     2.381     2.413
    38   1 H        0.923     0.037     2.488     2.467
    39   6 C        3.796    -0.054    21.547     6.610
    40   1 H        0.923     0.033     2.542     2.493
    41   1 H        0.923     0.034     2.537     2.491
    42   6 C        3.745    -0.100    22.489     6.765
    43   1 H        0.923     0.036     2.497     2.471
    44   1 H        0.923     0.034     2.532     2.488
    45   1 H        0.923     0.035     2.520     2.483
    46   6 C        3.746    -0.101    22.504     6.767
    47   1 H        0.923     0.039     2.465     2.455
    48   1 H        0.923     0.034     2.526     2.486
    49   1 H        0.923     0.033     2.550     2.497

 Mol. C6AA /au·bohr⁶  :      19232.163294
 Mol. C8AA /au·bohr⁸  :     416955.031433
 Mol. α(0) /au        :        212.013692


Wiberg/Mayer (AO) data.
largest (>0.10) Wiberg bond orders for each atom

 ---------------------------------------------------------------------------
     #   Z sym  total        # sym  WBO       # sym  WBO       # sym  WBO
 ---------------------------------------------------------------------------
     1   6 C    3.988 --     2 C    1.367     6 C    1.366     7 C    1.068
     2   6 C    3.988 --     3 C    1.460     1 C    1.367     8 H    0.966
                             5 C    0.104
     3   6 C    3.990 --     2 C    1.460     4 C    1.427    28 H    0.969
                             6 C    0.104
     4   6 C    3.988 --     3 C    1.427     5 C    1.427    10 H    0.970
     5   6 C    3.990 --     6 C    1.458     4 C    1.427    29 H    0.969
                             2 C    0.104
     6   6 C    3.988 --     5 C    1.458     1 C    1.366     9 H    0.966
                             3 C    0.104
     7   6 C    3.910 --    19 O    1.786     1 C    1.068    26 H    0.935
     8   1 H    0.998 --     2 C    0.966
     9   1 H    0.998 --     6 C    0.966
    10   1 H    0.997 --     4 C    0.970
    11   7 N    3.046 --    12 C    1.017    27 H    0.965    13 H    0.939
    12   6 C    3.984 --    11 N    1.017    14 C    1.006    16 H    0.975
                            15 H    0.970
    13   1 H    0.970 --    11 N    0.939
    14   6 C    3.995 --    30 C    1.007    12 C    1.006    18 H    0.975
                            17 H    0.975
    15   1 H    0.999 --    12 C    0.970
    16   1 H    0.999 --    12 C    0.975
    17   1 H    0.998 --    14 C    0.975
    18   1 H    0.999 --    14 C    0.975
    19   8 O    2.023 --     7 C    1.786
    20   7 N    3.085 --    33 C    1.007    22 H    0.965    21 H    0.944
    21   1 H    0.970 --    20 N    0.944
    22   1 H    0.978 --    20 N    0.965
    23   8 O    1.816 --    25 H    0.922    24 H    0.819
    24   1 H    0.907 --    23 O    0.819
    25   1 H    0.925 --    23 O    0.922
    26   1 H    0.998 --     7 C    0.935
    27   1 H    0.980 --    11 N    0.965
    28   1 H    0.997 --     3 C    0.969
    29   1 H    0.997 --     5 C    0.969
    30   6 C    3.997 --    42 C    1.019    14 C    1.007    31 H    0.978
                            32 H    0.978
    31   1 H    0.999 --    30 C    0.978
    32   1 H    0.999 --    30 C    0.978
    33   6 C    3.980 --    20 N    1.007    36 C    1.006    35 H    0.978
                            34 H    0.972
    34   1 H    1.000 --    33 C    0.972
    35   1 H    0.998 --    33 C    0.978
    36   6 C    3.994 --    33 C    1.006    39 C    1.006    37 H    0.975
                            38 H    0.971
    37   1 H    0.998 --    36 C    0.975
    38   1 H    0.999 --    36 C    0.971
    39   6 C    3.997 --    46 C    1.019    36 C    1.006    41 H    0.978
                            40 H    0.977
    40   1 H    0.999 --    39 C    0.977
    41   1 H    0.999 --    39 C    0.978
    42   6 C    3.996 --    30 C    1.019    44 H    0.988    45 H    0.988
                            43 H    0.987
    43   1 H    0.998 --    42 C    0.987
    44   1 H    0.999 --    42 C    0.988
    45   1 H    0.999 --    42 C    0.988
    46   6 C    3.996 --    39 C    1.019    48 H    0.988    49 H    0.988
                            47 H    0.987
    47   1 H    0.998 --    46 C    0.987
    48   1 H    0.999 --    46 C    0.988
    49   1 H    0.999 --    46 C    0.988
 ---------------------------------------------------------------------------

Topologies differ in total number of bonds
Writing topology from bond orders to xtbtopo.mol

molecular dipole:
                 x           y           z       tot (Debye)
 q only:       -1.409       0.547      -0.069
   full:       -1.362       0.542      -0.174       3.752
molecular quadrupole (traceless):
                xx          xy          yy          xz          yz          zz
 q only:        7.067       6.846       4.072       1.177       3.329     -11.140
  q+dip:        6.311       6.528       7.188       2.032       8.258     -13.499
   full:        5.722       6.408       5.893       1.762       6.858     -11.615


           -------------------------------------------------
          | TOTAL ENERGY              -61.361624316765 Eh   |
          | GRADIENT NORM               0.057502240226 Eh/α |
          | HOMO-LUMO GAP               2.120043545840 eV   |
           -------------------------------------------------

------------------------------------------------------------------------
 * finished run on 2020/08/21 at 15:09:10.439     
------------------------------------------------------------------------
 total:
 * wall-time:     0 d,  0 h,  0 min,  0.277 sec
 *  cpu-time:     0 d,  0 h,  0 min,  3.178 sec
 * ratio c/w:    11.460 speedup
 SCF:
 * wall-time:     0 d,  0 h,  0 min,  0.200 sec
 *  cpu-time:     0 d,  0 h,  0 min,  2.280 sec
 * ratio c/w:    11.420 speedup


-------------------------   --------------------
FINAL SINGLE POINT ENERGY       -61.361624316760
-------------------------   --------------------


----------------------------------------------------------------------------
                           ORCA NUMERICAL FREQUENCIES
                              (9-process run)
----------------------------------------------------------------------------

Number of atoms                ... 49
Central differences            ... used
Number of displacements        ... 294
Numerical increment            ... 5.000e-03 bohr
IR-spectrum generation         ... on
Raman-spectrum generation      ... off
Surface Crossing Hessian       ... off
List of participating nodes    ...  /tmp/slurm-scratch/freq.408/freq.hostnames

The output will be reduced. Please look at the following files:
SCF program output             ... >/tmp/slurm-scratch/freq.408/freq.lastscf
Integral program output        ... >/tmp/slurm-scratch/freq.408/freq.lastint
Gradient program output        ... >/tmp/slurm-scratch/freq.408/freq.lastgrad
Dipole moment program output   ... >/tmp/slurm-scratch/freq.408/freq.lastmom
AutoCI program output          ... >/tmp/slurm-scratch/freq.408/freq.lastautoci


         <<< Energy and Gradient at the input geometry >>>

        <<< Energy and Gradient at displaced geometries >>>
             <<<Displacing   1/coordinate 3 (+)>>>
             <<<Displacing   3/coordinate 2 (+)>>>
             <<<Displacing   2/coordinate 3 (+)>>>
             <<<Displacing   1/coordinate 2 (+)>>>
             <<<Displacing   1/coordinate 1 (+)>>>
             <<<Displacing   3/coordinate 1 (+)>>>
             <<<Displacing   2/coordinate 1 (+)>>>
             <<<Displacing   2/coordinate 2 (+)>>>
             <<<Displacing   3/coordinate 3 (+)>>>
             <<<Displacing   2/coordinate 3 (-)>>>
             <<<Displacing   1/coordinate 2 (-)>>>
             <<<Displacing   1/coordinate 1 (-)>>>
             <<<Displacing   1/coordinate 3 (-)>>>
             <<<Displacing   2/coordinate 1 (-)>>>
             <<<Displacing   3/coordinate 2 (-)>>>
             <<<Displacing   3/coordinate 1 (-)>>>
             <<<Displacing   2/coordinate 2 (-)>>>
             <<<Displacing   3/coordinate 3 (-)>>>
             <<<Displacing   4/coordinate 1 (+)>>>
             <<<Displacing   5/coordinate 1 (+)>>>
             <<<Displacing   4/coordinate 1 (-)>>>
             <<<Displacing   4/coordinate 3 (+)>>>
             <<<Displacing   4/coordinate 2 (+)>>>
             <<<Displacing   5/coordinate 1 (-)>>>
             <<<Displacing   5/coordinate 3 (+)>>>
             <<<Displacing   6/coordinate 1 (+)>>>
             <<<Displacing   4/coordinate 3 (-)>>>
             <<<Displacing   4/coordinate 2 (-)>>>
             <<<Displacing   5/coordinate 3 (-)>>>
             <<<Displacing   6/coordinate 1 (-)>>>
             <<<Displacing   6/coordinate 2 (+)>>>
             <<<Displacing   6/coordinate 3 (+)>>>
             <<<Displacing   5/coordinate 2 (+)>>>
             <<<Displacing   6/coordinate 2 (-)>>>
             <<<Displacing   6/coordinate 3 (-)>>>
             <<<Displacing   5/coordinate 2 (-)>>>
             <<<Displacing   7/coordinate 1 (+)>>>
             <<<Displacing   8/coordinate 1 (+)>>>
             <<<Displacing   7/coordinate 1 (-)>>>
             <<<Displacing   7/coordinate 2 (+)>>>
             <<<Displacing   8/coordinate 1 (-)>>>
             <<<Displacing   7/coordinate 3 (+)>>>
             <<<Displacing   7/coordinate 2 (-)>>>
             <<<Displacing   8/coordinate 2 (+)>>>
             <<<Displacing   8/coordinate 3 (+)>>>
             <<<Displacing   8/coordinate 2 (-)>>>
             <<<Displacing   7/coordinate 3 (-)>>>
             <<<Displacing   8/coordinate 3 (-)>>>
             <<<Displacing   9/coordinate 1 (+)>>>
             <<<Displacing   9/coordinate 2 (+)>>>
             <<<Displacing   9/coordinate 3 (+)>>>
             <<<Displacing   9/coordinate 1 (-)>>>
             <<<Displacing   9/coordinate 3 (-)>>>
             <<<Displacing   9/coordinate 2 (-)>>>
             <<<Displacing  10/coordinate 1 (+)>>>
             <<<Displacing  10/coordinate 3 (+)>>>
             <<<Displacing  10/coordinate 2 (+)>>>
             <<<Displacing  10/coordinate 1 (-)>>>
             <<<Displacing  10/coordinate 3 (-)>>>
             <<<Displacing  10/coordinate 2 (-)>>>
             <<<Displacing  11/coordinate 1 (+)>>>
             <<<Displacing  11/coordinate 2 (+)>>>
             <<<Displacing  11/coordinate 1 (-)>>>
             <<<Displacing  11/coordinate 2 (-)>>>
             <<<Displacing  11/coordinate 3 (+)>>>
             <<<Displacing  12/coordinate 1 (+)>>>
             <<<Displacing  12/coordinate 2 (+)>>>
             <<<Displacing  11/coordinate 3 (-)>>>
             <<<Displacing  12/coordinate 3 (+)>>>
             <<<Displacing  12/coordinate 2 (-)>>>
             <<<Displacing  12/coordinate 1 (-)>>>
             <<<Displacing  12/coordinate 3 (-)>>>
             <<<Displacing  13/coordinate 2 (+)>>>
             <<<Displacing  13/coordinate 1 (+)>>>
             <<<Displacing  13/coordinate 1 (-)>>>
             <<<Displacing  13/coordinate 2 (-)>>>
             <<<Displacing  13/coordinate 3 (+)>>>
             <<<Displacing  14/coordinate 1 (+)>>>
             <<<Displacing  14/coordinate 1 (-)>>>
             <<<Displacing  14/coordinate 3 (+)>>>
             <<<Displacing  13/coordinate 3 (-)>>>
             <<<Displacing  15/coordinate 1 (+)>>>
             <<<Displacing  14/coordinate 2 (+)>>>
             <<<Displacing  14/coordinate 3 (-)>>>
             <<<Displacing  15/coordinate 1 (-)>>>
             <<<Displacing  14/coordinate 2 (-)>>>
             <<<Displacing  15/coordinate 2 (+)>>>
             <<<Displacing  15/coordinate 2 (-)>>>
             <<<Displacing  15/coordinate 3 (+)>>>
             <<<Displacing  15/coordinate 3 (-)>>>
             <<<Displacing  16/coordinate 1 (+)>>>
             <<<Displacing  16/coordinate 1 (-)>>>
             <<<Displacing  16/coordinate 2 (+)>>>
             <<<Displacing  17/coordinate 1 (+)>>>
             <<<Displacing  16/coordinate 3 (+)>>>
             <<<Displacing  18/coordinate 2 (+)>>>
             <<<Displacing  17/coordinate 2 (+)>>>
             <<<Displacing  16/coordinate 2 (-)>>>
             <<<Displacing  16/coordinate 3 (-)>>>
             <<<Displacing  17/coordinate 1 (-)>>>
             <<<Displacing  18/coordinate 2 (-)>>>
             <<<Displacing  17/coordinate 2 (-)>>>
             <<<Displacing  18/coordinate 1 (+)>>>
             <<<Displacing  17/coordinate 3 (+)>>>
             <<<Displacing  18/coordinate 3 (+)>>>
             <<<Displacing  17/coordinate 3 (-)>>>
             <<<Displacing  18/coordinate 3 (-)>>>
             <<<Displacing  18/coordinate 1 (-)>>>
             <<<Displacing  20/coordinate 3 (+)>>>
             <<<Displacing  20/coordinate 1 (+)>>>
             <<<Displacing  20/coordinate 2 (+)>>>
             <<<Displacing  20/coordinate 1 (-)>>>
             <<<Displacing  19/coordinate 1 (+)>>>
             <<<Displacing  19/coordinate 2 (+)>>>
             <<<Displacing  20/coordinate 3 (-)>>>
             <<<Displacing  19/coordinate 3 (+)>>>
             <<<Displacing  20/coordinate 2 (-)>>>
             <<<Displacing  19/coordinate 2 (-)>>>
             <<<Displacing  19/coordinate 1 (-)>>>
             <<<Displacing  19/coordinate 3 (-)>>>
             <<<Displacing  21/coordinate 2 (+)>>>
             <<<Displacing  21/coordinate 1 (+)>>>
             <<<Displacing  21/coordinate 2 (-)>>>
             <<<Displacing  21/coordinate 3 (+)>>>
             <<<Displacing  21/coordinate 1 (-)>>>
             <<<Displacing  21/coordinate 3 (-)>>>
             <<<Displacing  22/coordinate 1 (+)>>>
             <<<Displacing  23/coordinate 1 (+)>>>
             <<<Displacing  22/coordinate 3 (+)>>>
             <<<Displacing  22/coordinate 1 (-)>>>
             <<<Displacing  23/coordinate 1 (-)>>>
             <<<Displacing  22/coordinate 3 (-)>>>
             <<<Displacing  22/coordinate 2 (+)>>>
             <<<Displacing  23/coordinate 3 (+)>>>
             <<<Displacing  23/coordinate 3 (-)>>>
             <<<Displacing  23/coordinate 2 (+)>>>
             <<<Displacing  22/coordinate 2 (-)>>>
             <<<Displacing  23/coordinate 2 (-)>>>
             <<<Displacing  24/coordinate 1 (+)>>>
             <<<Displacing  24/coordinate 2 (+)>>>
             <<<Displacing  24/coordinate 1 (-)>>>
             <<<Displacing  24/coordinate 3 (+)>>>
             <<<Displacing  24/coordinate 2 (-)>>>
             <<<Displacing  24/coordinate 3 (-)>>>
             <<<Displacing  25/coordinate 2 (+)>>>
             <<<Displacing  26/coordinate 1 (+)>>>
             <<<Displacing  25/coordinate 3 (+)>>>
             <<<Displacing  25/coordinate 2 (-)>>>
             <<<Displacing  25/coordinate 3 (-)>>>
             <<<Displacing  26/coordinate 1 (-)>>>
             <<<Displacing  25/coordinate 1 (+)>>>
             <<<Displacing  25/coordinate 1 (-)>>>
             <<<Displacing  26/coordinate 3 (+)>>>
             <<<Displacing  26/coordinate 2 (+)>>>
             <<<Displacing  26/coordinate 2 (-)>>>
             <<<Displacing  26/coordinate 3 (-)>>>
             <<<Displacing  27/coordinate 1 (+)>>>
             <<<Displacing  27/coordinate 1 (-)>>>
             <<<Displacing  27/coordinate 2 (+)>>>
             <<<Displacing  27/coordinate 3 (+)>>>
             <<<Displacing  27/coordinate 2 (-)>>>
             <<<Displacing  27/coordinate 3 (-)>>>
             <<<Displacing  28/coordinate 1 (+)>>>
             <<<Displacing  28/coordinate 2 (+)>>>
             <<<Displacing  28/coordinate 1 (-)>>>
             <<<Displacing  28/coordinate 2 (-)>>>
             <<<Displacing  28/coordinate 3 (+)>>>
             <<<Displacing  29/coordinate 1 (+)>>>
             <<<Displacing  28/coordinate 3 (-)>>>
             <<<Displacing  29/coordinate 1 (-)>>>
             <<<Displacing  29/coordinate 3 (+)>>>
             <<<Displacing  29/coordinate 2 (+)>>>
             <<<Displacing  29/coordinate 3 (-)>>>
             <<<Displacing  29/coordinate 2 (-)>>>
             <<<Displacing  30/coordinate 1 (+)>>>
             <<<Displacing  30/coordinate 1 (-)>>>
             <<<Displacing  30/coordinate 2 (+)>>>
             <<<Displacing  30/coordinate 2 (-)>>>
             <<<Displacing  30/coordinate 3 (+)>>>
             <<<Displacing  30/coordinate 3 (-)>>>
             <<<Displacing  31/coordinate 2 (+)>>>
             <<<Displacing  31/coordinate 1 (+)>>>
             <<<Displacing  31/coordinate 1 (-)>>>
             <<<Displacing  31/coordinate 2 (-)>>>
             <<<Displacing  32/coordinate 1 (+)>>>
             <<<Displacing  31/coordinate 3 (+)>>>
             <<<Displacing  32/coordinate 1 (-)>>>
             <<<Displacing  31/coordinate 3 (-)>>>
             <<<Displacing  32/coordinate 3 (+)>>>
             <<<Displacing  32/coordinate 2 (+)>>>
             <<<Displacing  33/coordinate 1 (+)>>>
             <<<Displacing  32/coordinate 3 (-)>>>
             <<<Displacing  32/coordinate 2 (-)>>>
             <<<Displacing  33/coordinate 1 (-)>>>
             <<<Displacing  33/coordinate 2 (+)>>>
             <<<Displacing  33/coordinate 2 (-)>>>
             <<<Displacing  33/coordinate 3 (+)>>>
             <<<Displacing  33/coordinate 3 (-)>>>
             <<<Displacing  34/coordinate 1 (+)>>>
             <<<Displacing  34/coordinate 2 (+)>>>
             <<<Displacing  34/coordinate 1 (-)>>>
             <<<Displacing  34/coordinate 2 (-)>>>
             <<<Displacing  34/coordinate 3 (+)>>>
             <<<Displacing  35/coordinate 1 (+)>>>
             <<<Displacing  34/coordinate 3 (-)>>>
             <<<Displacing  35/coordinate 3 (+)>>>
             <<<Displacing  35/coordinate 1 (-)>>>
             <<<Displacing  35/coordinate 3 (-)>>>
             <<<Displacing  35/coordinate 2 (+)>>>
             <<<Displacing  36/coordinate 1 (+)>>>
             <<<Displacing  35/coordinate 2 (-)>>>
             <<<Displacing  36/coordinate 1 (-)>>>
             <<<Displacing  36/coordinate 2 (+)>>>
             <<<Displacing  36/coordinate 2 (-)>>>
             <<<Displacing  36/coordinate 3 (+)>>>
             <<<Displacing  36/coordinate 3 (-)>>>
             <<<Displacing  37/coordinate 1 (+)>>>
             <<<Displacing  37/coordinate 2 (+)>>>
             <<<Displacing  37/coordinate 1 (-)>>>
             <<<Displacing  37/coordinate 2 (-)>>>
             <<<Displacing  38/coordinate 1 (+)>>>
             <<<Displacing  38/coordinate 1 (-)>>>
             <<<Displacing  37/coordinate 3 (+)>>>
             <<<Displacing  37/coordinate 3 (-)>>>
             <<<Displacing  38/coordinate 3 (+)>>>
             <<<Displacing  38/coordinate 2 (+)>>>
             <<<Displacing  38/coordinate 3 (-)>>>
             <<<Displacing  38/coordinate 2 (-)>>>
             <<<Displacing  39/coordinate 1 (+)>>>
             <<<Displacing  39/coordinate 2 (+)>>>
             <<<Displacing  39/coordinate 1 (-)>>>
             <<<Displacing  39/coordinate 2 (-)>>>
             <<<Displacing  39/coordinate 3 (+)>>>
             <<<Displacing  39/coordinate 3 (-)>>>
             <<<Displacing  40/coordinate 1 (+)>>>
             <<<Displacing  40/coordinate 1 (-)>>>
             <<<Displacing  40/coordinate 2 (+)>>>
             <<<Displacing  40/coordinate 2 (-)>>>
             <<<Displacing  40/coordinate 3 (+)>>>
             <<<Displacing  40/coordinate 3 (-)>>>
             <<<Displacing  41/coordinate 1 (+)>>>
             <<<Displacing  41/coordinate 2 (+)>>>
             <<<Displacing  41/coordinate 2 (-)>>>
             <<<Displacing  41/coordinate 1 (-)>>>
             <<<Displacing  42/coordinate 2 (+)>>>
             <<<Displacing  41/coordinate 3 (+)>>>
             <<<Displacing  42/coordinate 2 (-)>>>
             <<<Displacing  41/coordinate 3 (-)>>>
             <<<Displacing  42/coordinate 1 (+)>>>
             <<<Displacing  42/coordinate 1 (-)>>>
             <<<Displacing  42/coordinate 3 (+)>>>
             <<<Displacing  42/coordinate 3 (-)>>>
             <<<Displacing  43/coordinate 1 (+)>>>
             <<<Displacing  43/coordinate 2 (+)>>>
             <<<Displacing  43/coordinate 1 (-)>>>
             <<<Displacing  43/coordinate 2 (-)>>>
             <<<Displacing  43/coordinate 3 (+)>>>
             <<<Displacing  43/coordinate 3 (-)>>>
             <<<Displacing  44/coordinate 2 (+)>>>
             <<<Displacing  44/coordinate 1 (+)>>>
             <<<Displacing  44/coordinate 1 (-)>>>
             <<<Displacing  44/coordinate 2 (-)>>>
             <<<Displacing  44/coordinate 3 (+)>>>
             <<<Displacing  44/coordinate 3 (-)>>>
             <<<Displacing  45/coordinate 1 (+)>>>
             <<<Displacing  45/coordinate 1 (-)>>>
             <<<Displacing  45/coordinate 2 (+)>>>
             <<<Displacing  45/coordinate 2 (-)>>>
             <<<Displacing  45/coordinate 3 (+)>>>
             <<<Displacing  46/coordinate 1 (+)>>>
             <<<Displacing  45/coordinate 3 (-)>>>
             <<<Displacing  46/coordinate 1 (-)>>>
             <<<Displacing  46/coordinate 2 (+)>>>
             <<<Displacing  46/coordinate 2 (-)>>>
             <<<Displacing  46/coordinate 3 (+)>>>
             <<<Displacing  46/coordinate 3 (-)>>>
             <<<Displacing  47/coordinate 1 (+)>>>
             <<<Displacing  47/coordinate 2 (+)>>>
             <<<Displacing  47/coordinate 1 (-)>>>
             <<<Displacing  47/coordinate 2 (-)>>>
             <<<Displacing  47/coordinate 3 (+)>>>
             <<<Displacing  47/coordinate 3 (-)>>>
             <<<Displacing  48/coordinate 1 (+)>>>
             <<<Displacing  48/coordinate 1 (-)>>>
             <<<Displacing  48/coordinate 2 (+)>>>
             <<<Displacing  48/coordinate 2 (-)>>>
             <<<Displacing  49/coordinate 1 (+)>>>
             <<<Displacing  48/coordinate 3 (+)>>>
             <<<Displacing  49/coordinate 1 (-)>>>
             <<<Displacing  48/coordinate 3 (-)>>>
             <<<Displacing  49/coordinate 2 (+)>>>
             <<<Displacing  49/coordinate 3 (+)>>>
             <<<Displacing  49/coordinate 2 (-)>>>
             <<<Displacing  49/coordinate 3 (-)>>>

-----------------------
VIBRATIONAL FREQUENCIES
-----------------------

Scaling factor for frequencies =  1.000000000 (already applied!)

   0:         0.00 cm**-1
   1:         0.00 cm**-1
   2:         0.00 cm**-1
   3:         0.00 cm**-1
   4:         0.00 cm**-1
   5:         0.00 cm**-1
   6:       -53.59 cm**-1 ***imaginary mode***
   7:        41.06 cm**-1
   8:        50.83 cm**-1
   9:        56.52 cm**-1
  10:        59.42 cm**-1
  11:        68.87 cm**-1
  12:        74.88 cm**-1
  13:        79.58 cm**-1
  14:        81.19 cm**-1
  15:       103.36 cm**-1
  16:       113.33 cm**-1
  17:       127.38 cm**-1
  18:       162.88 cm**-1
  19:       164.81 cm**-1
  20:       184.36 cm**-1
  21:       189.31 cm**-1
  22:       194.19 cm**-1
  23:       199.98 cm**-1
  24:       210.71 cm**-1
  25:       229.70 cm**-1
  26:       232.04 cm**-1
  27:       239.61 cm**-1
  28:       265.90 cm**-1
  29:       335.38 cm**-1
  30:       355.37 cm**-1
  31:       356.95 cm**-1
  32:       390.71 cm**-1
  33:       392.63 cm**-1
  34:       406.28 cm**-1
  35:       427.02 cm**-1
  36:       427.35 cm**-1
  37:       430.20 cm**-1
  38:       447.24 cm**-1
  39:       466.85 cm**-1
  40:       475.01 cm**-1
  41:       484.51 cm**-1
  42:       588.14 cm**-1
  43:       627.68 cm**-1
  44:       628.52 cm**-1
  45:       672.20 cm**-1
  46:       781.54 cm**-1
  47:       796.18 cm**-1
  48:       798.82 cm**-1
  49:       816.74 cm**-1
  50:       839.58 cm**-1
  51:       852.24 cm**-1
  52:       857.09 cm**-1
  53:       905.80 cm**-1
  54:       914.05 cm**-1
  55:       933.84 cm**-1
  56:       936.15 cm**-1
  57:       943.84 cm**-1
  58:       953.43 cm**-1
  59:       955.35 cm**-1
  60:       958.54 cm**-1
  61:       963.08 cm**-1
  62:       973.98 cm**-1
  63:       987.17 cm**-1
  64:       990.16 cm**-1
  65:      1001.16 cm**-1
  66:      1024.59 cm**-1
  67:      1052.43 cm**-1
  68:      1056.25 cm**-1
  69:      1065.01 cm**-1
  70:      1070.04 cm**-1
  71:      1072.95 cm**-1
  72:      1105.60 cm**-1
  73:      1107.45 cm**-1
  74:      1108.33 cm**-1
  75:      1145.53 cm**-1
  76:      1150.49 cm**-1
  77:      1167.68 cm**-1
  78:      1184.40 cm**-1
  79:      1197.78 cm**-1
  80:      1206.42 cm**-1
  81:      1208.16 cm**-1
  82:      1238.82 cm**-1
  83:      1248.57 cm**-1
  84:      1252.62 cm**-1
  85:      1273.96 cm**-1
  86:      1281.69 cm**-1
  87:      1282.73 cm**-1
  88:      1283.77 cm**-1
  89:      1284.76 cm**-1
  90:      1298.09 cm**-1
  91:      1299.75 cm**-1
  92:      1350.38 cm**-1
  93:      1355.63 cm**-1
  94:      1357.89 cm**-1
  95:      1378.64 cm**-1
  96:      1380.98 cm**-1
  97:      1411.57 cm**-1
  98:      1433.45 cm**-1
  99:      1434.65 cm**-1
 100:      1435.33 cm**-1
 101:      1495.48 cm**-1
 102:      1502.79 cm**-1
 103:      1507.52 cm**-1
 104:      1508.52 cm**-1
 105:      1509.49 cm**-1
 106:      1511.76 cm**-1
 107:      1512.86 cm**-1
 108:      1513.71 cm**-1
 109:      1517.74 cm**-1
 110:      1518.85 cm**-1
 111:      1524.70 cm**-1
 112:      1534.89 cm**-1
 113:      1553.06 cm**-1
 114:      1561.19 cm**-1
 115:      1576.47 cm**-1
 116:      1581.65 cm**-1
 117:      2628.00 cm**-1
 118:      2767.35 cm**-1
 119:      2781.27 cm**-1
 120:      2823.48 cm**-1
 121:      2868.05 cm**-1
 122:      2874.92 cm**-1
 123:      2875.47 cm**-1
 124:      2883.37 cm**-1
 125:      2894.47 cm**-1
 126:      2898.59 cm**-1
 127:      2904.12 cm**-1
 128:      2907.86 cm**-1
 129:      2909.71 cm**-1
 130:      2911.36 cm**-1
 131:      2914.08 cm**-1
 132:      2917.04 cm**-1
 133:      2917.65 cm**-1
 134:      2929.23 cm**-1
 135:      2930.56 cm**-1
 136:      2934.06 cm**-1
 137:      2983.93 cm**-1
 138:      2990.04 cm**-1
 139:      2995.27 cm**-1
 140:      3003.25 cm**-1
 141:      3011.12 cm**-1
 142:      3224.80 cm**-1
 143:      3249.59 cm**-1
 144:      3306.46 cm**-1
 145:      3320.14 cm**-1
 146:      3438.40 cm**-1


------------
NORMAL MODES
------------

These modes are the cartesian displacements weighted by the diagonal matrix
M(i,i)=1/sqrt(m[i]) where m[i] is the mass of the displaced atom
Thus, these vectors are normalized but *not* orthogonal

                  0          1          2          3          4          5    
      0       0.000000   0.000000   0.000000   0.000000   0.000000   0.000000
      1       0.000000   0.000000   0.000000   0.000000   0.000000   0.000000
      2       0.000000   0.000000   0.000000   0.000000   0.000000   0.000000
      3       0.000000   0.000000   0.000000   0.000000   0.000000   0.000000
      4       0.000000   0.000000   0.000000   0.000000   0.000000   0.000000
      5       0.000000   0.000000   0.000000   0.000000   0.000000   0.000000
      6       0.000000   0.000000   0.000000   0.000000   0.000000   0.000000
      7       0.000000   0.000000   0.000000   0.000000   0.000000   0.000000
      8       0.000000   0.000000   0.000000   0.000000   0.000000   0.000000
      9       0.000000   0.000000   0.000000   0.000000   0.000000   0.000000
     10       0.000000   0.000000   0.000000   0.000000   0.000000   0.000000
     11       0.000000   0.000000   0.000000   0.000000   0.000000   0.000000
     12       0.000000   0.000000   0.000000   0.000000   0.000000   0.000000
     13       0.000000   0.000000   0.000000   0.000000   0.000000   0.000000
     14       0.000000   0.000000   0.000000   0.000000   0.000000   0.000000
     15       0.000000   0.000000   0.000000   0.000000   0.000000   0.000000
     16       0.000000   0.000000   0.000000   0.000000   0.000000   0.000000
     17       0.000000   0.000000   0.000000   0.000000   0.000000   0.000000
     18       0.000000   0.000000   0.000000   0.000000   0.000000   0.000000
     19       0.000000   0.000000   0.000000   0.000000   0.000000   0.000000
     20       0.000000   0.000000   0.000000   0.000000   0.000000   0.000000
     21       0.000000   0.000000   0.000000   0.000000   0.000000   0.000000
     22       0.000000   0.000000   0.000000   0.000000   0.000000   0.000000
     23       0.000000   0.000000   0.000000   0.000000   0.000000   0.000000
     24       0.000000   0.000000   0.000000   0.000000   0.000000   0.000000
     25       0.000000   0.000000   0.000000   0.000000   0.000000   0.000000
     26       0.000000   0.000000   0.000000   0.000000   0.000000   0.000000
     27       0.000000   0.000000   0.000000   0.000000   0.000000   0.000000
     28       0.000000   0.000000   0.000000   0.000000   0.000000   0.000000
     29       0.000000   0.000000   0.000000   0.000000   0.000000   0.000000
     30       0.000000   0.000000   0.000000   0.000000   0.000000   0.000000
     31       0.000000   0.000000   0.000000   0.000000   0.000000   0.000000
     32       0.000000   0.000000   0.000000   0.000000   0.000000   0.000000
     33       0.000000   0.000000   0.000000   0.000000   0.000000   0.000000
     34       0.000000   0.000000   0.000000   0.000000   0.000000   0.000000
     35       0.000000   0.000000   0.000000   0.000000   0.000000   0.000000
     36       0.000000   0.000000   0.000000   0.000000   0.000000   0.000000
     37       0.000000   0.000000   0.000000   0.000000   0.000000   0.000000
     38       0.000000   0.000000   0.000000   0.000000   0.000000   0.000000
     39       0.000000   0.000000   0.000000   0.000000   0.000000   0.000000
     40       0.000000   0.000000   0.000000   0.000000   0.000000   0.000000
     41       0.000000   0.000000   0.000000   0.000000   0.000000   0.000000
     42       0.000000   0.000000   0.000000   0.000000   0.000000   0.000000
     43       0.000000   0.000000   0.000000   0.000000   0.000000   0.000000
     44       0.000000   0.000000   0.000000   0.000000   0.000000   0.000000
     45       0.000000   0.000000   0.000000   0.000000   0.000000   0.000000
     46       0.000000   0.000000   0.000000   0.000000   0.000000   0.000000
     47       0.000000   0.000000   0.000000   0.000000   0.000000   0.000000
     48       0.000000   0.000000   0.000000   0.000000   0.000000   0.000000
     49       0.000000   0.000000   0.000000   0.000000   0.000000   0.000000
     50       0.000000   0.000000   0.000000   0.000000   0.000000   0.000000
     51       0.000000   0.000000   0.000000   0.000000   0.000000   0.000000
     52       0.000000   0.000000   0.000000   0.000000   0.000000   0.000000
     53       0.000000   0.000000   0.000000   0.000000   0.000000   0.000000
     54       0.000000   0.000000   0.000000   0.000000   0.000000   0.000000
     55       0.000000   0.000000   0.000000   0.000000   0.000000   0.000000
     56       0.000000   0.000000   0.000000   0.000000   0.000000   0.000000
     57       0.000000   0.000000   0.000000   0.000000   0.000000   0.000000
     58       0.000000   0.000000   0.000000   0.000000   0.000000   0.000000
     59       0.000000   0.000000   0.000000   0.000000   0.000000   0.000000
     60       0.000000   0.000000   0.000000   0.000000   0.000000   0.000000
     61       0.000000   0.000000   0.000000   0.000000   0.000000   0.000000
     62       0.000000   0.000000   0.000000   0.000000   0.000000   0.000000
     63       0.000000   0.000000   0.000000   0.000000   0.000000   0.000000
     64       0.000000   0.000000   0.000000   0.000000   0.000000   0.000000
     65       0.000000   0.000000   0.000000   0.000000   0.000000   0.000000
     66       0.000000   0.000000   0.000000   0.000000   0.000000   0.000000
     67       0.000000   0.000000   0.000000   0.000000   0.000000   0.000000
     68       0.000000   0.000000   0.000000   0.000000   0.000000   0.000000
     69       0.000000   0.000000   0.000000   0.000000   0.000000   0.000000
     70       0.000000   0.000000   0.000000   0.000000   0.000000   0.000000
     71       0.000000   0.000000   0.000000   0.000000   0.000000   0.000000
     72       0.000000   0.000000   0.000000   0.000000   0.000000   0.000000
     73       0.000000   0.000000   0.000000   0.000000   0.000000   0.000000
     74       0.000000   0.000000   0.000000   0.000000   0.000000   0.000000
     75       0.000000   0.000000   0.000000   0.000000   0.000000   0.000000
     76       0.000000   0.000000   0.000000   0.000000   0.000000   0.000000
     77       0.000000   0.000000   0.000000   0.000000   0.000000   0.000000
     78       0.000000   0.000000   0.000000   0.000000   0.000000   0.000000
     79       0.000000   0.000000   0.000000   0.000000   0.000000   0.000000
     80       0.000000   0.000000   0.000000   0.000000   0.000000   0.000000
     81       0.000000   0.000000   0.000000   0.000000   0.000000   0.000000
     82       0.000000   0.000000   0.000000   0.000000   0.000000   0.000000
     83       0.000000   0.000000   0.000000   0.000000   0.000000   0.000000
     84       0.000000   0.000000   0.000000   0.000000   0.000000   0.000000
     85       0.000000   0.000000   0.000000   0.000000   0.000000   0.000000
     86       0.000000   0.000000   0.000000   0.000000   0.000000   0.000000
     87       0.000000   0.000000   0.000000   0.000000   0.000000   0.000000
     88       0.000000   0.000000   0.000000   0.000000   0.000000   0.000000
     89       0.000000   0.000000   0.000000   0.000000   0.000000   0.000000
     90       0.000000   0.000000   0.000000   0.000000   0.000000   0.000000
     91       0.000000   0.000000   0.000000   0.000000   0.000000   0.000000
     92       0.000000   0.000000   0.000000   0.000000   0.000000   0.000000
     93       0.000000   0.000000   0.000000   0.000000   0.000000   0.000000
     94       0.000000   0.000000   0.000000   0.000000   0.000000   0.000000
     95       0.000000   0.000000   0.000000   0.000000   0.000000   0.000000
     96       0.000000   0.000000   0.000000   0.000000   0.000000   0.000000
     97       0.000000   0.000000   0.000000   0.000000   0.000000   0.000000
     98       0.000000   0.000000   0.000000   0.000000   0.000000   0.000000
     99       0.000000   0.000000   0.000000   0.000000   0.000000   0.000000
    100       0.000000   0.000000   0.000000   0.000000   0.000000   0.000000
    101       0.000000   0.000000   0.000000   0.000000   0.000000   0.000000
    102       0.000000   0.000000   0.000000   0.000000   0.000000   0.000000
    103       0.000000   0.000000   0.000000   0.000000   0.000000   0.000000
    104       0.000000   0.000000   0.000000   0.000000   0.000000   0.000000
    105       0.000000   0.000000   0.000000   0.000000   0.000000   0.000000
    106       0.000000   0.000000   0.000000   0.000000   0.000000   0.000000
    107       0.000000   0.000000   0.000000   0.000000   0.000000   0.000000
    108       0.000000   0.000000   0.000000   0.000000   0.000000   0.000000
    109       0.000000   0.000000   0.000000   0.000000   0.000000   0.000000
    110       0.000000   0.000000   0.000000   0.000000   0.000000   0.000000
    111       0.000000   0.000000   0.000000   0.000000   0.000000   0.000000
    112       0.000000   0.000000   0.000000   0.000000   0.000000   0.000000
    113       0.000000   0.000000   0.000000   0.000000   0.000000   0.000000
    114       0.000000   0.000000   0.000000   0.000000   0.000000   0.000000
    115       0.000000   0.000000   0.000000   0.000000   0.000000   0.000000
    116       0.000000   0.000000   0.000000   0.000000   0.000000   0.000000
    117       0.000000   0.000000   0.000000   0.000000   0.000000   0.000000
    118       0.000000   0.000000   0.000000   0.000000   0.000000   0.000000
    119       0.000000   0.000000   0.000000   0.000000   0.000000   0.000000
    120       0.000000   0.000000   0.000000   0.000000   0.000000   0.000000
    121       0.000000   0.000000   0.000000   0.000000   0.000000   0.000000
    122       0.000000   0.000000   0.000000   0.000000   0.000000   0.000000
    123       0.000000   0.000000   0.000000   0.000000   0.000000   0.000000
    124       0.000000   0.000000   0.000000   0.000000   0.000000   0.000000
    125       0.000000   0.000000   0.000000   0.000000   0.000000   0.000000
    126       0.000000   0.000000   0.000000   0.000000   0.000000   0.000000
    127       0.000000   0.000000   0.000000   0.000000   0.000000   0.000000
    128       0.000000   0.000000   0.000000   0.000000   0.000000   0.000000
    129       0.000000   0.000000   0.000000   0.000000   0.000000   0.000000
    130       0.000000   0.000000   0.000000   0.000000   0.000000   0.000000
    131       0.000000   0.000000   0.000000   0.000000   0.000000   0.000000
    132       0.000000   0.000000   0.000000   0.000000   0.000000   0.000000
    133       0.000000   0.000000   0.000000   0.000000   0.000000   0.000000
    134       0.000000   0.000000   0.000000   0.000000   0.000000   0.000000
    135       0.000000   0.000000   0.000000   0.000000   0.000000   0.000000
    136       0.000000   0.000000   0.000000   0.000000   0.000000   0.000000
    137       0.000000   0.000000   0.000000   0.000000   0.000000   0.000000
    138       0.000000   0.000000   0.000000   0.000000   0.000000   0.000000
    139       0.000000   0.000000   0.000000   0.000000   0.000000   0.000000
    140       0.000000   0.000000   0.000000   0.000000   0.000000   0.000000
    141       0.000000   0.000000   0.000000   0.000000   0.000000   0.000000
    142       0.000000   0.000000   0.000000   0.000000   0.000000   0.000000
    143       0.000000   0.000000   0.000000   0.000000   0.000000   0.000000
    144       0.000000   0.000000   0.000000   0.000000   0.000000   0.000000
    145       0.000000   0.000000   0.000000   0.000000   0.000000   0.000000
    146       0.000000   0.000000   0.000000   0.000000   0.000000   0.000000
                  6          7          8          9         10         11    
      0      -0.068942  -0.072975  -0.049770   0.071285   0.056017   0.028243
      1      -0.029489   0.031899  -0.076921  -0.034523   0.014064   0.007261
      2      -0.133297  -0.003857   0.072452  -0.027372   0.021203  -0.027073
      3      -0.032639  -0.082717  -0.067343   0.073389   0.075884   0.005294
      4      -0.034664   0.040329  -0.101423  -0.051960   0.009654  -0.030793
      5      -0.084617  -0.029461   0.101591   0.007572   0.049468   0.023233
      6      -0.022537  -0.087307  -0.068326   0.078897   0.082592   0.012452
      7      -0.029222   0.046166  -0.127742  -0.072052   0.010427  -0.091415
      8      -0.028579  -0.056656   0.102849   0.041327   0.085508   0.075443
      9      -0.043789  -0.082557  -0.052917   0.082885   0.071137   0.042625
     10      -0.020500   0.044118  -0.130122  -0.075603   0.015545  -0.116641
     11      -0.008072  -0.060864   0.075580   0.042749   0.095337   0.082067
     12      -0.076272  -0.072943  -0.036668   0.080874   0.052136   0.065747
     13      -0.023777   0.036818  -0.104519  -0.058900   0.019220  -0.082973
     14      -0.033765  -0.038773   0.042972   0.010012   0.071015   0.040538
     15      -0.088711  -0.068309  -0.035695   0.075550   0.045463   0.059363
     16      -0.028730   0.030633  -0.077572  -0.038171   0.017713  -0.021930
     17      -0.095976  -0.010503   0.040321  -0.025665   0.034940  -0.013391
     18      -0.089241  -0.067197  -0.046532   0.065658   0.047254   0.019746
     19      -0.036148   0.026842  -0.049178  -0.014741   0.011007   0.075442
     20      -0.198416   0.027392   0.073515  -0.054503  -0.009301  -0.080595
     21      -0.014252  -0.086576  -0.079023   0.070893   0.084995  -0.016238
     22      -0.044645   0.042316  -0.099381  -0.049913   0.005166  -0.012455
     23      -0.098480  -0.025822   0.122470   0.006405   0.041187   0.017565
     24      -0.110152  -0.060087  -0.024418   0.073747   0.032727   0.075974
     25      -0.028886   0.023763  -0.057397  -0.023775   0.020773   0.005786
     26      -0.115754   0.009965   0.014027  -0.053570   0.017354  -0.048744
     27      -0.036839  -0.085721  -0.053404   0.086620   0.075547   0.047061
     28      -0.013351   0.047487  -0.149845  -0.089974   0.017108  -0.160076
     29       0.029498  -0.079500   0.077047   0.066971   0.119978   0.116934
     30       0.078911  -0.096149   0.062871  -0.096449  -0.042335  -0.071665
     31       0.046396  -0.067939   0.024519  -0.069899  -0.040653   0.091667
     32       0.335560  -0.022118  -0.032372   0.007468   0.128577   0.009495
     33       0.100297  -0.081085   0.066688  -0.120782  -0.040029  -0.015096
     34       0.051333  -0.081871   0.019510  -0.057010  -0.028520   0.048004
     35       0.220205  -0.019077  -0.019724   0.033547   0.060295  -0.016022
     36       0.094029  -0.100232   0.059425  -0.076401  -0.031475  -0.105573
     37       0.057816  -0.068162   0.019561  -0.067531  -0.029397   0.083383
     38       0.345693  -0.019404  -0.040425  -0.012025   0.144258   0.031449
     39       0.038917  -0.075126   0.075445  -0.109679  -0.084943  -0.024529
     40       0.028792  -0.121306   0.016736  -0.030364  -0.020386  -0.060260
     41       0.111661   0.006646  -0.002687   0.048022  -0.026562   0.001983
     42       0.199479  -0.096902   0.052988  -0.136108   0.029479  -0.015281
     43       0.096515  -0.075920   0.014136  -0.065250  -0.013904   0.071432
     44       0.198592  -0.017336  -0.016815   0.037523   0.046209  -0.018810
     45       0.067513  -0.056522   0.076206  -0.131255  -0.074640   0.042761
     46       0.038062  -0.076602   0.023251  -0.060309  -0.037578   0.063353
     47       0.225537  -0.035847  -0.022314   0.037911   0.080478  -0.049456
     48      -0.044800  -0.059748   0.089134  -0.096327  -0.151820  -0.024059
     49       0.024858  -0.123676   0.033632  -0.036653  -0.058623  -0.070087
     50       0.126865   0.004237  -0.007472   0.046680  -0.009579   0.003148
     51       0.055382  -0.105956   0.061736  -0.095934  -0.038643  -0.091964
     52       0.026051  -0.129732   0.008147  -0.021644   0.000312  -0.081518
     53       0.085541   0.020590  -0.008872   0.054142  -0.027255   0.025864
     54      -0.102544  -0.061049  -0.033356   0.071216   0.043273   0.046853
     55      -0.022349   0.026252  -0.042383  -0.002701   0.015292   0.106860
     56      -0.229843   0.034872   0.072705  -0.072608  -0.020373  -0.110447
     57       0.007559   0.168371   0.018218  -0.078498   0.063747  -0.001117
     58       0.005867   0.063097   0.023334   0.022861  -0.002146   0.151359
     59      -0.012786   0.031353  -0.026322  -0.079734   0.044888  -0.002509
     60       0.006413   0.165706   0.036692  -0.072778   0.082815  -0.029532
     61      -0.003043   0.065983   0.016598   0.023639   0.000992   0.146574
     62      -0.021702   0.034628  -0.037766  -0.078278   0.048469  -0.005900
     63      -0.002197   0.174032   0.012948  -0.130602   0.084316   0.044038
     64      -0.002747   0.067940   0.009932   0.006170   0.002377   0.169720
     65      -0.008767   0.028653  -0.012001  -0.095261   0.053470   0.005931
     66       0.042004   0.109831   0.010562   0.064905  -0.040853  -0.092963
     67      -0.054360   0.014162   0.039886  -0.044254  -0.075749   0.233127
     68       0.022644   0.086647  -0.040331  -0.168512   0.166067   0.017243
     69       0.031012   0.129711   0.007588   0.034507  -0.017962  -0.071206
     70      -0.013334   0.019226   0.033488  -0.027571  -0.050749   0.207577
     71       0.015084   0.071648  -0.037607  -0.157668   0.142185   0.013073
     72       0.038020   0.114564   0.010366   0.056681  -0.035208  -0.088286
     73      -0.042555   0.024200   0.034415  -0.040635  -0.066468   0.240998
     74       0.008673   0.105227  -0.041593  -0.197921   0.187454   0.035095
     75      -0.053966  -0.069679  -0.063119   0.057763   0.052816  -0.011301
     76      -0.073243   0.028046  -0.038556  -0.011063   0.006098   0.091650
     77      -0.078738   0.028300   0.058264  -0.048604   0.007246  -0.071482
     78       0.121198  -0.093837   0.062856  -0.099958  -0.027523  -0.063264
     79       0.070774  -0.057124   0.022607  -0.097210  -0.027799   0.140614
     80       0.400828  -0.021213  -0.031850   0.008765   0.150142   0.010743
     81       0.000231  -0.093868  -0.080408   0.079439   0.095560  -0.005404
     82      -0.031885   0.051609  -0.144772  -0.084116   0.006963  -0.117258
     83      -0.002837  -0.072949   0.123773   0.064534   0.104001   0.107447
     84      -0.092905  -0.069323  -0.025615   0.082995   0.042362   0.087323
     85      -0.019384   0.035103  -0.104574  -0.060535   0.024088  -0.101645
     86      -0.009052  -0.042230   0.018502   0.009868   0.079219   0.047018
     87       0.066363  -0.050630   0.082935  -0.133798  -0.098399   0.052766
     88       0.019010  -0.146256   0.004648  -0.011219   0.010761  -0.127718
     89       0.032205   0.018729   0.029869   0.053260  -0.133769  -0.011630
     90       0.061531  -0.025186   0.098034  -0.150138  -0.142073   0.113133
     91       0.015790  -0.136308   0.012615  -0.018049  -0.011445  -0.104164
     92       0.029254   0.014045   0.032577   0.055022  -0.139239  -0.022931
     93       0.113069  -0.059960   0.064403  -0.136256  -0.034966   0.058888
     94       0.042980  -0.150604  -0.009269  -0.010667   0.052141  -0.126494
     95       0.021961   0.020762   0.034581   0.053535  -0.149115  -0.012719
     96       0.006696   0.164390   0.005905  -0.070070   0.045389   0.012040
     97       0.021409   0.056733   0.052137   0.074247  -0.005413   0.082171
     98      -0.001790   0.014053  -0.040272  -0.009578  -0.014427  -0.019930
     99      -0.000738   0.178606   0.020641  -0.116922   0.085207   0.020682
    100       0.027038   0.044835   0.037723   0.093456  -0.015687   0.078788
    101       0.003257   0.004279  -0.050094   0.025625  -0.045013  -0.025810
    102       0.000862   0.162992  -0.016432  -0.078740   0.027571   0.050582
    103       0.021538   0.061697   0.063820   0.073689  -0.000983   0.070626
    104      -0.000861   0.024414  -0.013474  -0.009282  -0.003008  -0.048849
    105       0.025661   0.144185   0.001360   0.014357  -0.002213  -0.037705
    106       0.028461   0.064398   0.088275   0.098556   0.002565   0.023632
    107       0.002247  -0.006508  -0.080376   0.015985  -0.051571   0.011533
    108       0.032457   0.132966  -0.040619   0.056010  -0.052306  -0.037950
    109       0.020009   0.078425   0.073779   0.077472  -0.000752   0.027481
    110      -0.002456   0.000965  -0.050728  -0.012355  -0.016711   0.011509
    111       0.037000   0.142828   0.065206   0.028474   0.034703  -0.086646
    112       0.030538   0.057922   0.079935   0.094371   0.000789   0.040343
    113       0.007022  -0.020017  -0.088200   0.010309  -0.050088   0.041853
    114       0.026089   0.141652  -0.030683   0.021284  -0.026890  -0.022276
    115       0.039059   0.063614   0.157253   0.152956   0.019770  -0.061810
    116       0.012771  -0.018581  -0.150151   0.083374  -0.132894   0.005786
    117       0.018719   0.149448   0.014361  -0.016887   0.021951  -0.021505
    118       0.045514   0.058206   0.159092   0.162649   0.016582  -0.070470
    119       0.017275  -0.023376  -0.180046   0.108249  -0.165059   0.005887
    120       0.023695   0.138770  -0.092964   0.009773  -0.062282   0.025886
    121       0.037681   0.066463   0.171079   0.159416   0.025241  -0.075257
    122       0.009940  -0.013171  -0.129532   0.095274  -0.126052  -0.015960
    123       0.035535  -0.048818   0.094205  -0.130808  -0.136898   0.037987
    124      -0.011471  -0.176746   0.001455   0.011588   0.015610  -0.220888
    125      -0.015248   0.033398   0.052000   0.051780  -0.207774  -0.006889
    126       0.053049  -0.036293   0.093836  -0.140389  -0.133213   0.080092
    127      -0.019215  -0.187285  -0.000886   0.018855   0.021249  -0.252209
    128      -0.047884   0.033499   0.064588   0.055452  -0.249379  -0.025962
    129       0.035100  -0.067641   0.085765  -0.119764  -0.111686  -0.008508
    130      -0.013578  -0.182275  -0.000809   0.015282   0.021709  -0.236752
    131      -0.019771   0.043626   0.057148   0.046888  -0.224801   0.012978
    132      -0.002105  -0.041471   0.110707  -0.130224  -0.191905   0.031564
    133      -0.021840  -0.181308   0.004543   0.014849   0.006140  -0.236344
    134      -0.009294   0.032855   0.049539   0.051364  -0.199600  -0.004583
    135       0.038827   0.133615  -0.038520   0.089167  -0.066068  -0.070184
    136       0.038440   0.068840   0.203363   0.179960   0.035725  -0.110539
    137       0.021256  -0.029452  -0.207252   0.095931  -0.175724   0.030488
    138       0.038660   0.133990  -0.048646   0.091816  -0.073271  -0.064134
    139       0.043824   0.066249   0.228319   0.209326   0.035984  -0.152026
    140       0.025813  -0.030516  -0.225621   0.133647  -0.204684   0.017122
    141       0.044306   0.130648  -0.062099   0.122364  -0.096648  -0.078368
    142       0.030515   0.078641   0.226061   0.172627   0.054990  -0.113570
    143       0.018387  -0.028210  -0.194145   0.075961  -0.158071   0.035671
    144       0.043440   0.129372  -0.010599   0.097005  -0.053863  -0.099185
    145       0.040508   0.064870   0.186178   0.174949   0.026869  -0.097875
    146       0.026007  -0.037638  -0.242808   0.085716  -0.194023   0.055749
                 12         13         14         15         16         17    
      0      -0.016687   0.004848   0.002834   0.005437   0.011391   0.000106
      1       0.034559   0.015719  -0.014994  -0.074989  -0.061216   0.002797
      2      -0.034518   0.044134  -0.034320   0.011968   0.014967  -0.004836
      3      -0.057967  -0.052741   0.073852   0.061867   0.047109   0.028678
      4      -0.008682   0.003791   0.017184  -0.060884  -0.057838  -0.089654
      5       0.007841   0.010456  -0.025951   0.040161   0.042930   0.199555
      6      -0.058532  -0.069192   0.088242   0.060927   0.047800   0.026755
      7      -0.070419  -0.018948   0.068575   0.011119  -0.017229  -0.088743
      8       0.020126  -0.078622   0.044247   0.017603   0.034138   0.187028
      9      -0.018329  -0.028033   0.032392   0.004097   0.012470  -0.004237
     10      -0.092271  -0.030759   0.089719   0.071114   0.023207   0.010972
     11      -0.005051  -0.135852   0.106450  -0.033208  -0.007232  -0.041045
     12       0.022853   0.028889  -0.037554  -0.052129  -0.023743  -0.030459
     13      -0.053309  -0.016976   0.056741   0.060617   0.024691   0.103667
     14      -0.040164  -0.109997   0.104236  -0.065260  -0.042821  -0.237727
     15       0.023498   0.045082  -0.051807  -0.052316  -0.023942  -0.026277
     16       0.010098   0.006819   0.003428  -0.010635  -0.016994   0.095905
     17      -0.055413  -0.023118   0.037535  -0.045722  -0.033094  -0.214126
     18      -0.015890   0.022827  -0.014228   0.005220   0.012061   0.001536
     19       0.104536   0.045511  -0.074570  -0.149836  -0.104708   0.004488
     20      -0.059246   0.142860  -0.111770   0.036507   0.038669  -0.006993
     21      -0.088253  -0.082180   0.114783   0.103761   0.073213   0.049904
     22       0.009072   0.011512   0.001523  -0.105673  -0.088092  -0.157166
     23       0.025923   0.055631  -0.074262   0.076668   0.071041   0.350622
     24       0.054416   0.086843  -0.102674  -0.094132  -0.050956  -0.040129
     25       0.041216   0.017542  -0.023316  -0.018474  -0.015921   0.154555
     26      -0.083749  -0.003520   0.038661  -0.070270  -0.060157  -0.337494
     27      -0.018884  -0.039730   0.042497   0.003863   0.012750  -0.007508
     28      -0.137696  -0.050589   0.130476   0.123962   0.052998   0.014956
     29       0.001965  -0.197238   0.154316  -0.046789  -0.012424  -0.060113
     30       0.092160   0.019489  -0.016168   0.069592  -0.079530  -0.011108
     31      -0.143365  -0.016686  -0.033792  -0.152825   0.183932   0.013486
     32      -0.115199   0.152977  -0.067300   0.012473   0.008912  -0.020180
     33       0.050076   0.045919  -0.049812   0.043876  -0.059910  -0.016101
     34      -0.118267  -0.029401  -0.010098  -0.139937   0.184610   0.020746
     35      -0.065392   0.107434  -0.047035   0.046149  -0.054191  -0.033688
     36       0.101286   0.038373   0.007613   0.079262  -0.082224  -0.004465
     37      -0.135225  -0.024162  -0.019052  -0.149262   0.186041   0.020290
     38      -0.108012   0.107857  -0.057941   0.016323   0.008999  -0.009723
     39       0.071781  -0.001431  -0.021265   0.042397  -0.064168  -0.016288
     40      -0.034644  -0.044748   0.007061  -0.055905   0.097625   0.017091
     41      -0.052135   0.023594   0.002190   0.014713  -0.032638  -0.032626
     42       0.027377   0.112696  -0.087986   0.056248  -0.062316  -0.014532
     43      -0.148017  -0.039189   0.003652  -0.182446   0.245929   0.031794
     44      -0.057589   0.096743  -0.041953   0.049761  -0.062662  -0.035435
     45       0.019998   0.034912  -0.056188   0.013567  -0.041130  -0.018506
     46      -0.123695  -0.021007  -0.022805  -0.134617   0.169297   0.016589
     47      -0.040879   0.141248  -0.071010   0.095274  -0.113781  -0.041480
     48       0.092372  -0.070626   0.020175   0.026207  -0.051777  -0.011993
     49      -0.011614  -0.080387   0.026710  -0.062025   0.109064   0.029410
     50      -0.058784   0.040405  -0.007717   0.018224  -0.036011  -0.034838
     51       0.111575   0.025805  -0.036175   0.111630  -0.137338  -0.026377
     52      -0.024978  -0.031105   0.000864  -0.029332   0.066500   0.009647
     53      -0.073585   0.025711   0.003017   0.000264  -0.024772  -0.040099
     54       0.012144   0.069099  -0.070176  -0.035497  -0.000580  -0.005619
     55       0.143896   0.059586  -0.101013  -0.181062  -0.138930   0.017925
     56      -0.103941   0.173543  -0.128513   0.043121   0.089373  -0.042561
     57      -0.017613  -0.047358   0.024692   0.027711   0.005198   0.008685
     58       0.154721   0.046045   0.015383   0.188902   0.129681  -0.114344
     59       0.077170   0.037038   0.108364  -0.028010  -0.046736   0.079395
     60      -0.010522  -0.053380   0.001435   0.028547   0.032144   0.024992
     61       0.187148   0.056632  -0.006322   0.190583   0.158969  -0.135084
     62       0.121903   0.051195   0.080578  -0.026239  -0.009631   0.050441
     63      -0.020229  -0.051606   0.051519   0.056961  -0.006902   0.007702
     64       0.185090   0.056018   0.013189   0.201635   0.150558  -0.137848
     65       0.032620   0.019833   0.129794  -0.023529  -0.084667   0.110210
     66       0.091492   0.247607   0.289040  -0.113972   0.107761   0.031300
     67      -0.213525   0.060311   0.102273   0.166335  -0.223246   0.068701
     68       0.167795  -0.163485  -0.074242   0.004252   0.058967   0.041031
     69       0.069427   0.176917   0.231764  -0.091275   0.079467   0.036581
     70      -0.129703   0.056137   0.075321   0.150665  -0.110259   0.019192
     71       0.146510  -0.116872  -0.022979  -0.013830   0.030613   0.064886
     72       0.090614   0.228132   0.273642  -0.107606   0.104403   0.031279
     73      -0.229459   0.059815   0.095046   0.175159  -0.240740   0.067390
     74       0.162921  -0.234738  -0.131352   0.028432   0.045293   0.040346
     75      -0.050507  -0.007977   0.032107   0.050653   0.029626   0.006164
     76       0.120904   0.055457  -0.094867  -0.177108  -0.109377  -0.004681
     77      -0.039142   0.179804  -0.137891   0.040890  -0.000480   0.029949
     78       0.072297   0.051457  -0.027971   0.061453  -0.069135  -0.011177
     79      -0.172016  -0.020820  -0.057250  -0.170997   0.201677   0.012993
     80      -0.140630   0.208270  -0.080549   0.003535   0.021842  -0.020078
[...]
  28:       265.90    0.000000  (  0.000000   0.000000   0.000000)
  29:       335.38    0.000000  (  0.000000   0.000000   0.000000)
  30:       355.37    0.000000  (  0.000000   0.000000   0.000000)
  31:       356.95    0.000000  (  0.000000   0.000000   0.000000)
  32:       390.71    0.000000  (  0.000000   0.000000   0.000000)
  33:       392.63    0.000000  (  0.000000   0.000000   0.000000)
  34:       406.28    0.000000  (  0.000000   0.000000   0.000000)
  35:       427.02    0.000000  (  0.000000   0.000000   0.000000)
  36:       427.35    0.000000  (  0.000000   0.000000   0.000000)
  37:       430.20    0.000000  (  0.000000   0.000000   0.000000)
  38:       447.24    0.000000  (  0.000000   0.000000   0.000000)
  39:       466.85    0.000000  (  0.000000   0.000000   0.000000)
  40:       475.01    0.000000  (  0.000000   0.000000   0.000000)
  41:       484.51    0.000000  (  0.000000   0.000000   0.000000)
  42:       588.14    0.000000  (  0.000000   0.000000   0.000000)
  43:       627.68    0.000000  (  0.000000   0.000000   0.000000)
  44:       628.52    0.000000  (  0.000000   0.000000   0.000000)
  45:       672.20    0.000000  (  0.000000   0.000000   0.000000)
  46:       781.54    0.000000  (  0.000000   0.000000   0.000000)
  47:       796.18    0.000000  (  0.000000   0.000000   0.000000)
  48:       798.82    0.000000  (  0.000000   0.000000   0.000000)
  49:       816.74    0.000000  (  0.000000   0.000000   0.000000)
  50:       839.58    0.000000  (  0.000000   0.000000   0.000000)
  51:       852.24    0.000000  (  0.000000   0.000000   0.000000)
  52:       857.09    0.000000  (  0.000000   0.000000   0.000000)
  53:       905.80    0.000000  (  0.000000   0.000000   0.000000)
  54:       914.05    0.000000  (  0.000000   0.000000   0.000000)
  55:       933.84    0.000000  (  0.000000   0.000000   0.000000)
  56:       936.15    0.000000  (  0.000000   0.000000   0.000000)
  57:       943.84    0.000000  (  0.000000   0.000000   0.000000)
  58:       953.43    0.000000  (  0.000000   0.000000   0.000000)
  59:       955.35    0.000000  (  0.000000   0.000000   0.000000)
  60:       958.54    0.000000  (  0.000000   0.000000   0.000000)
  61:       963.08    0.000000  (  0.000000   0.000000   0.000000)
  62:       973.98    0.000000  (  0.000000   0.000000   0.000000)
  63:       987.17    0.000000  (  0.000000   0.000000   0.000000)
  64:       990.16    0.000000  (  0.000000   0.000000   0.000000)
  65:      1001.16    0.000000  (  0.000000   0.000000   0.000000)
  66:      1024.59    0.000000  (  0.000000   0.000000   0.000000)
  67:      1052.43    0.000000  (  0.000000   0.000000   0.000000)
  68:      1056.25    0.000000  (  0.000000   0.000000   0.000000)
  69:      1065.01    0.000000  (  0.000000   0.000000   0.000000)
  70:      1070.04    0.000000  (  0.000000   0.000000   0.000000)
  71:      1072.95    0.000000  (  0.000000   0.000000   0.000000)
  72:      1105.60    0.000000  (  0.000000   0.000000   0.000000)
  73:      1107.45    0.000000  (  0.000000   0.000000   0.000000)
  74:      1108.33    0.000000  (  0.000000   0.000000   0.000000)
  75:      1145.53    0.000000  (  0.000000   0.000000   0.000000)
  76:      1150.49    0.000000  (  0.000000   0.000000   0.000000)
  77:      1167.68    0.000000  (  0.000000   0.000000   0.000000)
  78:      1184.40    0.000000  (  0.000000   0.000000   0.000000)
  79:      1197.78    0.000000  (  0.000000   0.000000   0.000000)
  80:      1206.42    0.000000  (  0.000000   0.000000   0.000000)
  81:      1208.16    0.000000  (  0.000000   0.000000   0.000000)
  82:      1238.82    0.000000  (  0.000000   0.000000   0.000000)
  83:      1248.57    0.000000  (  0.000000   0.000000   0.000000)
  84:      1252.62    0.000000  (  0.000000   0.000000   0.000000)
  85:      1273.96    0.000000  (  0.000000   0.000000   0.000000)
  86:      1281.69    0.000000  (  0.000000   0.000000   0.000000)
  87:      1282.73    0.000000  (  0.000000   0.000000   0.000000)
  88:      1283.77    0.000000  (  0.000000   0.000000   0.000000)
  89:      1284.76    0.000000  (  0.000000   0.000000   0.000000)
  90:      1298.09    0.000000  (  0.000000   0.000000   0.000000)
  91:      1299.75    0.000000  (  0.000000   0.000000   0.000000)
  92:      1350.38    0.000000  (  0.000000   0.000000   0.000000)
  93:      1355.63    0.000000  (  0.000000   0.000000   0.000000)
  94:      1357.89    0.000000  (  0.000000   0.000000   0.000000)
  95:      1378.64    0.000000  (  0.000000   0.000000   0.000000)
  96:      1380.98    0.000000  (  0.000000   0.000000   0.000000)
  97:      1411.57    0.000000  (  0.000000   0.000000   0.000000)
  98:      1433.45    0.000000  (  0.000000   0.000000   0.000000)
  99:      1434.65    0.000000  (  0.000000   0.000000   0.000000)
 100:      1435.33    0.000000  (  0.000000   0.000000   0.000000)
 101:      1495.48    0.000000  (  0.000000   0.000000   0.000000)
 102:      1502.79    0.000000  (  0.000000   0.000000   0.000000)
 103:      1507.52    0.000000  (  0.000000   0.000000   0.000000)
 104:      1508.52    0.000000  (  0.000000   0.000000   0.000000)
 105:      1509.49    0.000000  (  0.000000   0.000000   0.000000)
 106:      1511.76    0.000000  (  0.000000   0.000000   0.000000)
 107:      1512.86    0.000000  (  0.000000   0.000000   0.000000)
 108:      1513.71    0.000000  (  0.000000   0.000000   0.000000)
 109:      1517.74    0.000000  (  0.000000   0.000000   0.000000)
 110:      1518.85    0.000000  (  0.000000   0.000000   0.000000)
 111:      1524.70    0.000000  (  0.000000   0.000000   0.000000)
 112:      1534.89    0.000000  (  0.000000   0.000000   0.000000)
 113:      1553.06    0.000000  (  0.000000   0.000000   0.000000)
 114:      1561.19    0.000000  (  0.000000   0.000000   0.000000)
 115:      1576.47    0.000000  (  0.000000   0.000000   0.000000)
 116:      1581.65    0.000000  (  0.000000   0.000000   0.000000)
 117:      2628.00    0.000000  (  0.000000   0.000000   0.000000)
 118:      2767.35    0.000000  (  0.000000   0.000000   0.000000)
 119:      2781.27    0.000000  (  0.000000   0.000000   0.000000)
 120:      2823.48    0.000000  (  0.000000   0.000000   0.000000)
 121:      2868.05    0.000000  (  0.000000   0.000000   0.000000)
 122:      2874.92    0.000000  (  0.000000   0.000000   0.000000)
 123:      2875.47    0.000000  (  0.000000   0.000000   0.000000)
 124:      2883.37    0.000000  (  0.000000   0.000000   0.000000)
 125:      2894.47    0.000000  (  0.000000   0.000000   0.000000)
 126:      2898.59    0.000000  (  0.000000   0.000000   0.000000)
 127:      2904.12    0.000000  (  0.000000   0.000000   0.000000)
 128:      2907.86    0.000000  (  0.000000   0.000000   0.000000)
 129:      2909.71    0.000000  (  0.000000   0.000000   0.000000)
 130:      2911.36    0.000000  (  0.000000   0.000000   0.000000)
 131:      2914.08    0.000000  (  0.000000   0.000000   0.000000)
 132:      2917.04    0.000000  (  0.000000   0.000000   0.000000)
 133:      2917.65    0.000000  (  0.000000   0.000000   0.000000)
 134:      2929.23    0.000000  (  0.000000   0.000000   0.000000)
 135:      2930.56    0.000000  (  0.000000   0.000000   0.000000)
 136:      2934.06    0.000000  (  0.000000   0.000000   0.000000)
 137:      2983.93    0.000000  (  0.000000   0.000000   0.000000)
 138:      2990.04    0.000000  (  0.000000   0.000000   0.000000)
 139:      2995.27    0.000000  (  0.000000   0.000000   0.000000)
 140:      3003.25    0.000000  (  0.000000   0.000000   0.000000)
 141:      3011.12    0.000000  (  0.000000   0.000000   0.000000)
 142:      3224.80    0.000000  (  0.000000   0.000000   0.000000)
 143:      3249.59    0.000000  (  0.000000   0.000000   0.000000)
 144:      3306.46    0.000000  (  0.000000   0.000000   0.000000)
 145:      3320.14    0.000000  (  0.000000   0.000000   0.000000)
 146:      3438.40    0.000000  (  0.000000   0.000000   0.000000)

The first frequency considered to be a vibration is 7
The total number of vibrations considered is 140


--------------------------
THERMOCHEMISTRY AT 298.15K
--------------------------

Temperature         ... 298.15 K
Pressure            ... 1.00 atm
Total Mass          ... 270.42 AMU

Throughout the following assumptions are being made:
  (1) The electronic state is orbitally nondegenerate
  (2) There are no thermally accessible electronically excited states
  (3) Hindered rotations indicated by low frequency modes are not
      treated as such but are treated as vibrations and this may
      cause some error
  (4) All equations used are the standard statistical mechanics
      equations for an ideal gas
  (5) All vibrations are strictly harmonic

freq.      41.06  E(vib)   ...       0.54 
freq.      50.83  E(vib)   ...       0.52 
freq.      56.52  E(vib)   ...       0.52 
freq.      59.42  E(vib)   ...       0.51 
freq.      68.87  E(vib)   ...       0.50 
freq.      74.88  E(vib)   ...       0.49 
freq.      79.58  E(vib)   ...       0.49 
freq.      81.19  E(vib)   ...       0.48 
freq.     103.36  E(vib)   ...       0.46 
freq.     113.33  E(vib)   ...       0.45 
freq.     127.38  E(vib)   ...       0.43 
freq.     162.88  E(vib)   ...       0.39 
freq.     164.81  E(vib)   ...       0.39 
freq.     184.36  E(vib)   ...       0.37 
freq.     189.31  E(vib)   ...       0.36 
freq.     194.19  E(vib)   ...       0.36 
freq.     199.98  E(vib)   ...       0.35 
freq.     210.71  E(vib)   ...       0.34 
freq.     229.70  E(vib)   ...       0.32 
freq.     232.04  E(vib)   ...       0.32 
freq.     239.61  E(vib)   ...       0.31 
freq.     265.90  E(vib)   ...       0.29 
freq.     335.38  E(vib)   ...       0.24 
freq.     355.37  E(vib)   ...       0.22 
freq.     356.95  E(vib)   ...       0.22 
freq.     390.71  E(vib)   ...       0.20 
freq.     392.63  E(vib)   ...       0.20 
freq.     406.28  E(vib)   ...       0.19 
freq.     427.02  E(vib)   ...       0.18 
freq.     427.35  E(vib)   ...       0.18 
freq.     430.20  E(vib)   ...       0.18 
freq.     447.24  E(vib)   ...       0.17 
freq.     466.85  E(vib)   ...       0.16 
freq.     475.01  E(vib)   ...       0.15 
freq.     484.51  E(vib)   ...       0.15 
freq.     588.14  E(vib)   ...       0.10 
freq.     627.68  E(vib)   ...       0.09 
freq.     628.52  E(vib)   ...       0.09 
freq.     672.20  E(vib)   ...       0.08 
freq.     781.54  E(vib)   ...       0.05 
freq.     796.18  E(vib)   ...       0.05 
freq.     798.82  E(vib)   ...       0.05 
freq.     816.74  E(vib)   ...       0.05 
freq.     839.58  E(vib)   ...       0.04 
freq.     852.24  E(vib)   ...       0.04 
freq.     857.09  E(vib)   ...       0.04 
freq.     905.80  E(vib)   ...       0.03 
freq.     914.05  E(vib)   ...       0.03 
freq.     933.84  E(vib)   ...       0.03 
freq.     936.15  E(vib)   ...       0.03 
freq.     943.84  E(vib)   ...       0.03 
freq.     953.43  E(vib)   ...       0.03 
freq.     955.35  E(vib)   ...       0.03 
freq.     958.54  E(vib)   ...       0.03 
freq.     963.08  E(vib)   ...       0.03 
freq.     973.98  E(vib)   ...       0.03 
freq.     987.17  E(vib)   ...       0.02 
freq.     990.16  E(vib)   ...       0.02 
freq.    1001.16  E(vib)   ...       0.02 
freq.    1024.59  E(vib)   ...       0.02 
freq.    1052.43  E(vib)   ...       0.02 
freq.    1056.25  E(vib)   ...       0.02 
freq.    1065.01  E(vib)   ...       0.02 
freq.    1070.04  E(vib)   ...       0.02 
freq.    1072.95  E(vib)   ...       0.02 
freq.    1105.60  E(vib)   ...       0.02 
freq.    1107.45  E(vib)   ...       0.02 
freq.    1108.33  E(vib)   ...       0.02 
freq.    1145.53  E(vib)   ...       0.01 
freq.    1150.49  E(vib)   ...       0.01 
freq.    1167.68  E(vib)   ...       0.01 
freq.    1184.40  E(vib)   ...       0.01 
freq.    1197.78  E(vib)   ...       0.01 
freq.    1206.42  E(vib)   ...       0.01 
freq.    1208.16  E(vib)   ...       0.01 
freq.    1238.82  E(vib)   ...       0.01 
freq.    1248.57  E(vib)   ...       0.01 
freq.    1252.62  E(vib)   ...       0.01 
freq.    1273.96  E(vib)   ...       0.01 
freq.    1281.69  E(vib)   ...       0.01 
freq.    1282.73  E(vib)   ...       0.01 
freq.    1283.77  E(vib)   ...       0.01 
freq.    1284.76  E(vib)   ...       0.01 
freq.    1298.09  E(vib)   ...       0.01 
freq.    1299.75  E(vib)   ...       0.01 
freq.    1350.38  E(vib)   ...       0.01 
freq.    1355.63  E(vib)   ...       0.01 
freq.    1357.89  E(vib)   ...       0.01 
freq.    1378.64  E(vib)   ...       0.01 
freq.    1380.98  E(vib)   ...       0.01 
freq.    1411.57  E(vib)   ...       0.00 
freq.    1433.45  E(vib)   ...       0.00 
freq.    1434.65  E(vib)   ...       0.00 
freq.    1435.33  E(vib)   ...       0.00 
freq.    1495.48  E(vib)   ...       0.00 
freq.    1502.79  E(vib)   ...       0.00 
freq.    1507.52  E(vib)   ...       0.00 
freq.    1508.52  E(vib)   ...       0.00 
freq.    1509.49  E(vib)   ...       0.00 
freq.    1511.76  E(vib)   ...       0.00 
freq.    1512.86  E(vib)   ...       0.00 
freq.    1513.71  E(vib)   ...       0.00 
freq.    1517.74  E(vib)   ...       0.00 
freq.    1518.85  E(vib)   ...       0.00 
freq.    1524.70  E(vib)   ...       0.00 
freq.    1534.89  E(vib)   ...       0.00 
freq.    1553.06  E(vib)   ...       0.00 
freq.    1561.19  E(vib)   ...       0.00 
freq.    1576.47  E(vib)   ...       0.00 
freq.    1581.65  E(vib)   ...       0.00 
freq.    2628.00  E(vib)   ...       0.00 
freq.    2767.35  E(vib)   ...       0.00 
freq.    2781.27  E(vib)   ...       0.00 
freq.    2823.48  E(vib)   ...       0.00 
freq.    2868.05  E(vib)   ...       0.00 
freq.    2874.92  E(vib)   ...       0.00 
freq.    2875.47  E(vib)   ...       0.00 
freq.    2883.37  E(vib)   ...       0.00 
freq.    2894.47  E(vib)   ...       0.00 
freq.    2898.59  E(vib)   ...       0.00 
freq.    2904.12  E(vib)   ...       0.00 
freq.    2907.86  E(vib)   ...       0.00 
freq.    2909.71  E(vib)   ...       0.00 
freq.    2911.36  E(vib)   ...       0.00 
freq.    2914.08  E(vib)   ...       0.00 
freq.    2917.04  E(vib)   ...       0.00 
freq.    2917.65  E(vib)   ...       0.00 
freq.    2929.23  E(vib)   ...       0.00 
freq.    2930.56  E(vib)   ...       0.00 
freq.    2934.06  E(vib)   ...       0.00 
freq.    2983.93  E(vib)   ...       0.00 
freq.    2990.04  E(vib)   ...       0.00 
freq.    2995.27  E(vib)   ...       0.00 
freq.    3003.25  E(vib)   ...       0.00 
freq.    3011.12  E(vib)   ...       0.00 
freq.    3224.80  E(vib)   ...       0.00 
freq.    3249.59  E(vib)   ...       0.00 
freq.    3306.46  E(vib)   ...       0.00 
freq.    3320.14  E(vib)   ...       0.00 
freq.    3438.40  E(vib)   ...       0.00 

------------
INNER ENERGY
------------

The inner energy is: U= E(el) + E(ZPE) + E(vib) + E(rot) + E(trans)
    E(el)   - is the total energy from the electronic structure calculation
              = E(kin-el) + E(nuc-el) + E(el-el) + E(nuc-nuc)
    E(ZPE)  - the the zero temperature vibrational energy from the frequency calculation
    E(vib)  - the the finite temperature correction to E(ZPE) due to population
              of excited vibrational states
    E(rot)  - is the rotational thermal energy
    E(trans)- is the translational thermal energy

Summary of contributions to the inner energy U:
Electronic energy                ...    -61.36162432 Eh
Zero point energy                ...      0.42335497 Eh     265.66 kcal/mol
Thermal vibrational correction   ...      0.02081898 Eh      13.06 kcal/mol
Thermal rotational correction    ...      0.00141627 Eh       0.89 kcal/mol
Thermal translational correction ...      0.00141627 Eh       0.89 kcal/mol
-----------------------------------------------------------------------
Total thermal energy                    -60.91461783 Eh


Summary of corrections to the electronic energy:
(perhaps to be used in another calculation)
Total thermal correction                  0.02365152 Eh      14.84 kcal/mol
Non-thermal (ZPE) correction              0.42335497 Eh     265.66 kcal/mol
-----------------------------------------------------------------------
Total correction                          0.44700649 Eh     280.50 kcal/mol


--------
ENTHALPY
--------

The enthalpy is H = U + kB*T
                kB is Boltzmann's constant
Total free energy                 ...    -60.91461783 Eh 
Thermal Enthalpy correction       ...      0.00094421 Eh       0.59 kcal/mol
-----------------------------------------------------------------------
Total Enthalpy                    ...    -60.91367362 Eh


Note: Only C1 symmetry has been detected, increase convergence thresholds 
      if your molecule has a higher symmetry. Symmetry factor of 1.0 is   
      used for the rotational entropy correction. 
 

Note: Rotational entropy computed according to Herzberg 
Infrared and Raman Spectra, Chapter V,1, Van Nostrand Reinhold, 1945 
Point Group:  C1, Symmetry Number:   1  
Rotational constants in cm-1:     0.013218     0.006693     0.005584 

Vibrational entropy computed according to the QRRHO of S. Grimme
Chem.Eur.J. 2012 18 9955


-------
ENTROPY
-------

The entropy contributions are T*S = T*(S(el)+S(vib)+S(rot)+S(trans))
     S(el)   - electronic entropy
     S(vib)  - vibrational entropy
     S(rot)  - rotational entropy
     S(trans)- translational entropy
The entropies will be listed as mutliplied by the temperature to get
units of energy

Electronic entropy                ...      0.00000000 Eh      0.00 kcal/mol
Vibrational entropy               ...      0.03702486 Eh     23.23 kcal/mol
Rotational entropy                ...      0.01636596 Eh     10.27 kcal/mol
Translational entropy             ...      0.02028014 Eh     12.73 kcal/mol
-----------------------------------------------------------------------
Final entropy term                ...      0.07367096 Eh     46.23 kcal/mol

In case the symmetry of your molecule has not been determined correctly
or in case you have a reason to use a different symmetry number we print 
out the resulting rotational entropy values for sn=1,12 :
 --------------------------------------------------------
|  sn= 1 | S(rot)=       0.01636596 Eh     10.27 kcal/mol|
|  sn= 2 | S(rot)=       0.01571151 Eh      9.86 kcal/mol|
|  sn= 3 | S(rot)=       0.01532867 Eh      9.62 kcal/mol|
|  sn= 4 | S(rot)=       0.01505705 Eh      9.45 kcal/mol|
|  sn= 5 | S(rot)=       0.01484636 Eh      9.32 kcal/mol|
|  sn= 6 | S(rot)=       0.01467422 Eh      9.21 kcal/mol|
|  sn= 7 | S(rot)=       0.01452867 Eh      9.12 kcal/mol|
|  sn= 8 | S(rot)=       0.01440259 Eh      9.04 kcal/mol|
|  sn= 9 | S(rot)=       0.01429139 Eh      8.97 kcal/mol|
|  sn=10 | S(rot)=       0.01419191 Eh      8.91 kcal/mol|
|  sn=11 | S(rot)=       0.01410192 Eh      8.85 kcal/mol|
|  sn=12 | S(rot)=       0.01401976 Eh      8.80 kcal/mol|
 --------------------------------------------------------


-------------------
GIBBS FREE ENERGY
-------------------

The Gibbs free energy is G = H - T*S

Total enthalpy                    ...    -60.91367362 Eh 
Total entropy correction          ...     -0.07367096 Eh    -46.23 kcal/mol
-----------------------------------------------------------------------
Final Gibbs free energy         ...    -60.98734459 Eh

For completeness - the Gibbs free energy minus the electronic energy
G-E(el)                           ...      0.37427973 Eh    234.86 kcal/mol


Total Time for Numerical Frequencies  :       195.244 sec
Time for Reference State(s)           :         0.232 sec
Time for Displacements                :       177.111 sec

Timings for individual modules:

Sum of individual times         ...        0.519 sec (=   0.009 min)
XTB module                      ...        0.519 sec (=   0.009 min) 100.0 %
                             ****ORCA TERMINATED NORMALLY****
TOTAL RUN TIME: 0 days 0 hours 3 minutes 16 seconds 567 msec
(SLURM) EXECUTION TIME: 197.259675794 seconds.
