(SLURM) JOB ID:         134

                                 *****************
                                 * O   R   C   A *
                                 *****************

           --- An Ab Initio, DFT and Semiempirical electronic structure package ---

                  #######################################################
                  #                        -***-                        #
                  #          Department of theory and spectroscopy      #
                  #               Directorship: Frank Neese             #
                  #        Max Planck Institute fuer Kohlenforschung    #
                  #                Kaiser Wilhelm Platz 1               #
                  #                 D-45470 Muelheim/Ruhr               #
                  #                      Germany                        #
                  #                                                     #
                  #                  All rights reserved                #
                  #                        -***-                        #
                  #######################################################


                         Program Version 4.2.1 -  RELEASE  -


 With contributions from (in alphabetic order):
   Daniel Aravena         : Magnetic Suceptibility
   Michael Atanasov       : Ab Initio Ligand Field Theory (pilot matlab implementation)
   Alexander A. Auer      : GIAO ZORA, VPT2
   Ute Becker             : Parallelization
   Giovanni Bistoni       : ED, misc. LED, open-shell LED, HFLD
   Martin Brehm           : Molecular dynamics
   Dmytro Bykov           : SCF Hessian
   Vijay G. Chilkuri      : MRCI spin determinant printing, contributions to CSF-ICE
   Dipayan Datta          : RHF DLPNO-CCSD density
   Achintya Kumar Dutta   : EOM-CC, STEOM-CC
   Dmitry Ganyushin       : Spin-Orbit,Spin-Spin,Magnetic field MRCI
   Miquel Garcia          : C-PCM Hessian, Gaussian charge scheme
   Yang Guo               : DLPNO-NEVPT2, CIM, IAO-localization
   Andreas Hansen         : Spin unrestricted coupled pair/coupled cluster methods
   Benjamin Helmich-Paris : CASSCF linear response (MC-RPA)
   Lee Huntington         : MR-EOM, pCC
   Robert Izsak           : Overlap fitted RIJCOSX, COSX-SCS-MP3, EOM
   Christian Kollmar      : KDIIS, OOCD, Brueckner-CCSD(T), CCSD density
   Simone Kossmann        : Meta GGA functionals, TD-DFT gradient, OOMP2, MP2 Hessian
   Martin Krupicka        : AUTO-CI
   Lucas Lang             : DCDCAS
   Dagmar Lenk            : GEPOL surface, SMD
   Dimitrios Liakos       : Extrapolation schemes; Compound Job, initial MDCI parallelization
   Dimitrios Manganas     : Further ROCIS development; embedding schemes
   Dimitrios Pantazis     : SARC Basis sets
   Taras Petrenko         : DFT Hessian,TD-DFT gradient, ASA, ECA, R-Raman, ABS, FL, XAS/XES, NRVS
   Peter Pinski           : DLPNO-MP2, DLPNO-MP2 Gradient
   Christoph Reimann      : Effective Core Potentials
   Marius Retegan         : Local ZFS, SOC
   Christoph Riplinger    : Optimizer, TS searches, QM/MM, DLPNO-CCSD(T), (RO)-DLPNO pert. Triples
   Tobias Risthaus        : Range-separated hybrids, TD-DFT gradient, RPA, STAB
   Michael Roemelt        : Original ROCIS implementation
   Masaaki Saitow         : Open-shell DLPNO-CCSD energy and density
   Barbara Sandhoefer     : DKH picture change effects
   Avijit Sen             : IP-ROCIS
   Kantharuban Sivalingam : CASSCF convergence, NEVPT2, FIC-MRCI
   Bernardo de Souza      : ESD, SOC TD-DFT
   Georgi Stoychev        : AutoAux, RI-MP2 NMR
   Willem Van den Heuvel  : Paramagnetic NMR
   Boris Wezisla          : Elementary symmetry handling
   Frank Wennmohs         : Technical directorship


 We gratefully acknowledge several colleagues who have allowed us to
 interface, adapt or use parts of their codes:
   Stefan Grimme, W. Hujo, H. Kruse,             : VdW corrections, initial TS optimization,
                  C. Bannwarth                     DFT functionals, gCP, sTDA/sTD-DF
   Ed Valeev, F. Pavosevic, A. Kumar             : LibInt (2-el integral package), F12 methods
   Garnet Chan, S. Sharma, J. Yang, R. Olivares  : DMRG
   Ulf Ekstrom                                   : XCFun DFT Library
   Mihaly Kallay                                 : mrcc  (arbitrary order and MRCC methods)
   Andreas Klamt, Michael Diedenhofen            : otool_cosmo (COSMO solvation model)
   Jiri Pittner, Ondrej Demel                    : Mk-CCSD
   Frank Weinhold                                : gennbo (NPA and NBO analysis)
   Christopher J. Cramer and Donald G. Truhlar   : smd solvation model
   Lars Goerigk                                  : TD-DFT with DH, B97 family of functionals
   V. Asgeirsson, H. Jonsson                     : NEB implementation
   FAccTs GmbH                                   : IRC, NEB, NEB-TS, Multilevel, MM, QM/MM, CI optimization
   S Lehtola, MJT Oliveira, MAL Marques          : LibXC Library


 Your calculation uses the libint2 library for the computation of 2-el integrals
 For citations please refer to: http://libint.valeyev.net

 Your ORCA version has been built with support for libXC version: 4.2.3
 For citations please refer to: https://tddft.org/programs/libxc/

 This ORCA versions uses:
   CBLAS   interface :  Fast vector & matrix operations
   LAPACKE interface :  Fast linear algebra routines
   SCALAPACK package :  Parallel linear algebra routines




***************************************
The coordinates will be read from file: init.xyz
***************************************


Your calculation utilizes the SMD solvation module
Please cite in your paper:
A.V. Marenich, C.J. Cramer, D.G. Truhlar J. Phys. Chem. B, 113, (2009), 6378 

Your calculation utilizes the semiempirical GFN2-xTB method
Please cite in your paper:
C. Bannwarth, Ehlert S., S. Grimme,  J. Chem. Theory Comput., 15, (2019), 1652.
   

----- Orbital basis set information -----
Your calculation utilizes the basis: def2-SVP
   F. Weigend and R. Ahlrichs, Phys. Chem. Chem. Phys. 7, 3297 (2005).

================================================================================
                                        WARNINGS
                       Please study these warnings very carefully!
================================================================================

WARNING: Gradients needed for Numerical Frequencies
  ===> : Setting RunTyp to EnGrad

WARNING: The environment variable RSH_COMMAND is not set!
  ===> : All Displacements for the Numerical Hessian calculation
         will be started on localhost

WARNING: Found dipole moment calculation with XTB calculation
  ===> : Switching off dipole moment calculation


INFO   : the flag for use of LIBINT has been found!

================================================================================
                                       INPUT FILE
================================================================================
NAME = /tmp/slurm-scratch/freq.134/freq.inp
|  1> ! XTB2 NumFreq
|  2> %maxcore 1450
|  3> 
|  4> * xyzfile 0 1 init.xyz
|  5> 
|  6> %cpcm
|  7>  smd true
|  8>  smdsolvent "ch2cl2"
|  9> end
| 10> %pal nprocs 8 end
| 11> 
| 12>                          ****END OF INPUT****
================================================================================

                     *******************************
                     * Energy+Gradient Calculation *
                     *******************************

      -----------------------------------------------------------      
     |                   =====================                   |     
     |                           x T B                           |     
     |                   =====================                   |     
     |                         S. Grimme                         |     
     |          Mulliken Center for Theoretical Chemistry        |     
     |                    University of Bonn                     |     
      -----------------------------------------------------------      

   * xtb version 6.3.0 (preview) compiled by 'ehlert@majestix' on 2020-01-15

   This program is distributed in the hope that it will be useful,
   but WITHOUT ANY WARRANTY; without even the implied warranty of
   MERCHANTABILITY or FITNESS FOR A PARTICULAR PURPOSE.
   
   FOR NON-COMMERCIAL, ACADEMIA USE ONLY.
   
   Cite this work as:
   * S. Grimme, C. Bannwarth, P. Shushkov, J. Chem. Theory Comput., 2017,
     13, 1989-2009. DOI: 10.1021/acs.jctc.7b00118
   * C. Bannwarth, S. Ehlert and S. Grimme., J. Chem. Theory Comput., 2019,
     15, 1652-1671. DOI: 10.1021/acs.jctc.8b01176
   * P. Pracht, E. Caldeweyher, S. Ehlert, S. Grimme, ChemRxiv, 2019, preprint.
     DOI: 10.26434/chemrxiv.8326202.v1
   * S. Grimme, S. Spicher unpublished
   
   for DFT-D4:
   * E. Caldeweyher, C. Bannwarth and S. Grimme, J. Chem. Phys., 2017,
     147, 034112. DOI: 10.1063/1.4993215
   * E. Caldeweyher, S. Ehlert, A. Hansen, H. Neugebauer, S. Spicher,
     C. Bannwarth and S. Grimme, J. Chem. Phys., 2019, 150, 154122.
     DOI: 10.1063/1.5090222
   
   for sTDA-xTB:
   * S. Grimme and C. Bannwarth, J. Chem. Phys., 2016, 145, 054103.
     DOI: 10.1063/1.4959605
   
   in the mass-spec context:
   * V. Asgeirsson, C. Bauer and S. Grimme, Chem. Sci., 2017, 8, 4879.
     DOI: 10.1039/c7sc00601b
   
   for metadynamics refer to:
   * S. Grimme, J. Chem. Theory Comput., 2019, 155, 2847-2862
     DOI: 10.1021/acs.jctc.9b00143
   
   with help from (in alphabetical order)
   C. Bannwarth, F. Bohle, G. Brandenburg, E. Caldeweyher, M. Checinski,
   S. Dohm, S. Ehlert, S. Ehrlich, F. März, H. Neugebauer, J. Pisarek,
   P. Pracht, P. Shushkov, and S. Spicher.
   
 * started run on 2020/08/23 at 19:45:48.471     

           -------------------------------------------------
          |                Calculation Setup                |
           -------------------------------------------------

          program call               : /opt/orca/otool_xtb /tmp/slurm-scratch/freq.134/freq_XTB.xyz --grad -c 0 -u 0 -P 8 --namespace /tmp/slurm-scratch/freq.134/freq --gbsa CH2Cl2
          hostname                   : headnode-pbs
          calculation namespace      : /tmp/slurm-scratch/freq.134/freq
          coordinate file            : /tmp/slurm-scratch/freq.134/freq_XTB.xyz
          omp threads                :                     8
          number of atoms            :                    33
          number of electrons        :                    80
          charge                     :                     0
          spin                       :                   0.0
          first test random number   :      0.59223415858108


molecular fragmentation (1/2 indicates fragments):
111111111222222221112222222112222
# atoms in fragment 1/2:    14    19
 fragment masses (1/2) :      106.12       91.15
CMA distance (Bohr)    :   9.033
constraining FC (au)   :  0.0500

########################################################################
# WARNING! Please study the warnings concerning your input carefully
#  - Process number higher than OMP_NUM_THREADS, I hope you know what you are doing.
########################################################################

           ------------------------------------------------- 
          |                 G F N 2 - x T B                 |
          | Geometry, Frequencies, Noncovalent interactions |
          |            JCTC 2019 parametrisation            |
           ------------------------------------------------- 
             k(s)              :                1.8500
             k(p)              :                2.2300
             k(d)              :                2.2300
             k(f)              :                2.0000
             kEN (H0ij)        :               -2.0000
             D4 a1             :                0.5200
             D4 a2             :                5.0000
             D4 s6             :                1.0000
             D4 s8             :                2.7000
             D4 s9             :                5.0000
             alphaj            :                2.0000

  Z AO/shell   Hii/eV     exponent
  1     Wed Apr 25 08:07:45 CEST 2018   EN: 2.200 GM2: 0.406  GM3: 0.0800  RAES: 1.40
     1s    -10.707211    1.230000
  6     Wed Apr 25 08:07:45 CEST 2018   EN: 2.550 GM2: 0.538  GM3: 0.1500  RAES: 3.00
     2s    -13.970922    2.096432
     2p    -10.063292    1.800000
  7     Wed Apr 25 08:07:45 CEST 2018   EN: 3.040 GM2: 0.461  GM3:-0.0640  RAES: 1.90
     2s    -16.686243    2.339881
     2p    -12.523956    2.014332
  8     Wed Apr 25 08:07:45 CEST 2018   EN: 3.440 GM2: 0.452  GM3:-0.0517  RAES: 1.80
     2s    -20.229985    2.439742
     2p    -15.503117    2.137023

 Solvent             : CH2Cl2
 Using internal parameter file: .param_gbsa2_CH2Cl2
 Gsolv ref. state (COSMO-RS): gsolv [1 M gas/solution]
 temperature (mdtemp)       :    298.150000000000     
 dielectric constant        :    8.93000000000000     
 rho                        :    1.33000000000000     
 mass                       :    84.9300000000000     
 surface tension            :    15.5689454083859     
 probe radius               :   0.719875900000000     
 Gshift (Eh)                :   4.440829173451759E-003
 c1                         :    1.49173776000000     
 soset                      :   0.000000000000000E+000
 HB correction              :  F
           ------------------------------------------------- 
          |        Self-Consistent Charge Iterations        |
           ------------------------------------------------- 

          ...................................................
          :                      SETUP                      :
          :.................................................:
          :  # basis functions                  75          :
          :  # atomic orbitals                  75          :
          :  # shells                           47          :
          :  # electrons                        80          :
          :  max. iterations                   250          :
          :  Hamiltonian                  GFN2-xTB          :
          :  GBSA solvation                   true          :
          :  PC potential                    false          :
          :  electronic temp.          300.0000000     K    :
          :  accuracy                    1.0000000          :
          :  -> integral cutoff          0.2500000E+02      :
          :  -> integral neglect         0.1000000E-07      :
          :  -> SCF convergence          0.1000000E-05 Eh   :
          :  -> wf. convergence          0.1000000E-03 e    :
          :  Broyden damping             0.4000000          :
          ...................................................
  Checking positiv definite overlap ...  done.
 

 iter      E             dE          RMSdq      gap      omega  full diag
   1    -44.8053560 -0.448054E+02  0.383E+00    2.35       0.0  T
   2    -44.8636531 -0.582972E-01  0.206E+00    2.12       1.0  T
   3    -44.8635975  0.556861E-04  0.992E-01    2.27       1.0  T
   4    -44.8692025 -0.560506E-02  0.201E-01    2.08       1.0  T
   5    -44.8697714 -0.568923E-03  0.731E-02    2.10       1.0  T
   6    -44.8698239 -0.524360E-04  0.372E-02    2.11       1.0  T
   7    -44.8698375 -0.135998E-04  0.131E-02    2.11       1.3  T
   8    -44.8698380 -0.564217E-06  0.406E-03    2.11       4.3  T
   9    -44.8698382 -0.133005E-06  0.171E-03    2.11      10.2  T
  10    -44.8698382 -0.219379E-07  0.869E-04    2.11      20.0  T
  11    -44.8698382 -0.347888E-08  0.368E-04    2.11      47.3  T

   *** convergence criteria satisfied after 11 iterations ***

         #    Occupation            Energy/Eh            Energy/eV
      -------------------------------------------------------------
         1        2.0000           -0.7170405             -19.5117
       ...           ...                  ...                  ...
        34        2.0000           -0.4348519             -11.8329
        35        2.0000           -0.4315942             -11.7443
        36        2.0000           -0.4244384             -11.5496
        37        2.0000           -0.4192788             -11.4092
        38        2.0000           -0.4162340             -11.3263
        39        2.0000           -0.4063178             -11.0565
        40        2.0000           -0.3735102             -10.1637 (HOMO)
        41                         -0.2958578              -8.0507 (LUMO)
        42                         -0.2353613              -6.4045
        43                         -0.2037307              -5.5438
        44                         -0.0962590              -2.6193
        45                          0.0233929               0.6366
       ...                                ...                  ...
        75                          0.6490665              17.6620
      -------------------------------------------------------------
                  HL-Gap            0.0776525 Eh            2.1130 eV
             Fermi-level           -0.3346840 Eh           -9.1072 eV

 SCC (total)                   0 d,  0 h,  0 min,  0.214 sec
 SCC setup                      ...        0 min,  0.009 sec (  4.009%)
 Dispersion                     ...        0 min,  0.003 sec (  1.370%)
 integral evaluation            ...        0 min,  0.028 sec ( 13.145%)
 zeroth order Hamiltonian       ...        0 min,  0.000 sec (  0.018%)
 iterations                     ...        0 min,  0.160 sec ( 74.716%)
 molecular gradient             ...        0 min,  0.013 sec (  5.945%)
 printout                       ...        0 min,  0.002 sec (  0.745%)

         :::::::::::::::::::::::::::::::::::::::::::::::::::::
         ::                     SUMMARY                     ::
         :::::::::::::::::::::::::::::::::::::::::::::::::::::
         :: total energy             -44.264216525284 Eh    ::
         :: total w/o Gsasa/hb       -44.246272728372 Eh    ::
         :: gradient norm              0.023539585138 Eh/a0 ::
         :: HOMO-LUMO gap              2.113031544303 eV    ::
         ::.................................................::
         :: SCC energy               -44.887782004729 Eh    ::
         :: -> isotropic ES            0.078993484044 Eh    ::
         :: -> anisotropic ES          0.000357922875 Eh    ::
         :: -> anisotropic XC          0.024813672929 Eh    ::
         :: -> dispersion             -0.025053970711 Eh    ::
         :: -> Gsolv                  -0.025787639331 Eh    ::
         ::    -> Gborn               -0.007843842419 Eh    ::
         ::    -> Gsasa               -0.022384626086 Eh    ::
         ::    -> Ghb                  0.000000000000 Eh    ::
         ::    -> Gshift               0.004440829173 Eh    ::
         :: repulsion energy           0.623377341801 Eh    ::
         :: add. restraining           0.000000000000 Eh    ::
         :::::::::::::::::::::::::::::::::::::::::::::::::::::

           -------------------------------------------------
          |                Property Printout                |
           -------------------------------------------------

    * Orbital Energies and Occupations

         #    Occupation            Energy/Eh            Energy/eV
      -------------------------------------------------------------
         1        2.0000           -0.7170405             -19.5117
       ...           ...                  ...                  ...
        28        2.0000           -0.4805181             -13.0756
        29        2.0000           -0.4660037             -12.6806
        30        2.0000           -0.4491647             -12.2224
        31        2.0000           -0.4486927             -12.2095
        32        2.0000           -0.4460583             -12.1379
        33        2.0000           -0.4372195             -11.8973
        34        2.0000           -0.4348519             -11.8329
        35        2.0000           -0.4315942             -11.7443
        36        2.0000           -0.4244384             -11.5496
        37        2.0000           -0.4192788             -11.4092
        38        2.0000           -0.4162340             -11.3263
        39        2.0000           -0.4063178             -11.0565
        40        2.0000           -0.3735102             -10.1637 (HOMO)
        41                         -0.2958578              -8.0507 (LUMO)
        42                         -0.2353613              -6.4045
        43                         -0.2037307              -5.5438
        44                         -0.0962590              -2.6193
        45                          0.0233929               0.6366
        46                          0.0772370               2.1017
        47                          0.0878056               2.3893
        48                          0.0926256               2.5205
        49                          0.1101732               2.9980
        50                          0.1173275               3.1926
        51                          0.1290399               3.5114
       ...                                ...                  ...
        75                          0.6490665              17.6620
      -------------------------------------------------------------
                  HL-Gap            0.0776525 Eh            2.1130 eV
             Fermi-level           -0.3346840 Eh           -9.1072 eV

     #   Z        covCN         q      C6AA      α(0)
     1   6 C      2.913    -0.024    28.602     8.770
     2   6 C      2.922    -0.021    28.532     8.759
     3   6 C      2.968    -0.008    28.208     8.712
     4   6 C      2.918    -0.012    28.320     8.727
     5   6 C      2.914    -0.024    28.613     8.771
     6   6 C      2.917    -0.016    28.414     8.741
     7   1 H      0.925     0.053     2.277     2.360
     8   1 H      0.926     0.058     2.222     2.331
     9   1 H      0.925     0.054     2.266     2.354
    10   7 N      2.629    -0.374    29.650     8.087
    11   1 H      0.860     0.157     1.352     1.821
    12   6 C      3.731     0.024    20.263     6.426
    13   1 H      0.923     0.004     2.982     2.701
    14   1 H      0.924     0.032     2.562     2.503
    15   1 H      0.860     0.142     1.456     1.890
    16   1 H      0.805     0.288     0.757     1.366
    17   1 H      0.804     0.312     0.685     1.300
    18   6 C      2.768     0.214    23.481     7.936
    19   1 H      0.923     0.035     2.523     2.484
    20   8 O      0.856    -0.410    21.886     6.272
    21   6 C      3.802    -0.063    21.715     6.634
    22   1 H      0.924     0.040     2.452     2.449
    23   1 H      0.924     0.034     2.536     2.490
    24   8 O      1.609    -0.614    25.524     6.819
    25   6 C      3.800    -0.053    21.526     6.606
    26   1 H      0.924     0.030     2.591     2.517
    27   1 H      0.924     0.031     2.578     2.511
    28   1 H      0.925     0.052     2.301     2.372
    29   1 H      0.925     0.054     2.272     2.357
    30   6 C      3.749    -0.102    22.509     6.766
    31   1 H      0.924     0.036     2.498     2.471
    32   1 H      0.924     0.036     2.502     2.473
    33   1 H      0.924     0.035     2.512     2.479

 Mol. C6AA /au·bohr⁶  :       9601.040152
 Mol. C8AA /au·bohr⁸  :     213699.064950
 Mol. α(0) /au        :        151.257161


Wiberg/Mayer (AO) data.
largest (>0.10) Wiberg bond orders for each atom
          total WBO             WBO to atom ...
     1  C   3.991        C    2 1.460    C    6 1.429    H   29 0.969    C    4 0.104
     2  C   3.989        C    1 1.460    C    3 1.364    H    7 0.966    C    5 0.104
     3  C   3.989        C    2 1.364    C    4 1.361    C   18 1.082
     4  C   3.988        C    5 1.464    C    3 1.361    H    8 0.965    C    1 0.104
     5  C   3.991        C    4 1.464    C    6 1.424    H   28 0.969    C    2 0.104
     6  C   3.987        C    1 1.429    C    5 1.424    H    9 0.970
     7  H   0.997        C    2 0.966
     8  H   0.997        C    4 0.965
     9  H   0.997        C    6 0.970
    10  N   3.014        C   12 1.018    H   15 0.966    H   11 0.951
    11  H   0.975        N   10 0.951
    12  C   3.984        N   10 1.018    C   21 1.006    H   14 0.975    H   13 0.970
    13  H   1.000        C   12 0.970
    14  H   0.999        C   12 0.975
    15  H   0.980        N   10 0.966
    16  H   0.917        O   24 0.916
    17  H   0.902        O   24 0.865
    18  C   3.907        O   20 1.780    C    3 1.082    H   19 0.936
    19  H   0.998        C   18 0.936
    20  O   2.037        C   18 1.780
    21  C   3.996        C   25 1.007    C   12 1.006    H   23 0.976    H   22 0.976
    22  H   0.998        C   21 0.976
    23  H   0.999        C   21 0.976
    24  O   1.823        H   16 0.916    H   17 0.865
    25  C   3.997        C   30 1.020    C   21 1.007    H   27 0.978    H   26 0.978
    26  H   0.999        C   25 0.978
    27  H   0.999        C   25 0.978
    28  H   0.997        C    5 0.969
    29  H   0.997        C    1 0.969
    30  C   3.996        C   25 1.020    H   33 0.988    H   32 0.988    H   31 0.987
    31  H   0.998        C   30 0.987
    32  H   0.999        C   30 0.988
    33  H   0.999        C   30 0.988

molecular dipole:
                 x           y           z       tot (Debye)
 q only:       -0.293       0.923      -0.877
   full:       -0.499       0.640      -0.696       2.718
molecular quadrupole (traceless):
                xx          xy          yy          xz          yz          zz
 q only:        4.161       1.441      -2.287      -4.820      -3.264      -1.873
  q+dip:        3.518       2.885      -1.344      -5.051      -6.482      -2.174
   full:        2.871       4.532      -0.190      -4.319      -4.904      -2.681

           -------------------------------------------------
          |                Property Printout                |
           -------------------------------------------------

    * Orbital Energies and Occupations

         #    Occupation            Energy/Eh            Energy/eV
      -------------------------------------------------------------
         1        2.0000           -0.7170405             -19.5117
       ...           ...                  ...                  ...
        28        2.0000           -0.4805181             -13.0756
        29        2.0000           -0.4660037             -12.6806
        30        2.0000           -0.4491647             -12.2224
        31        2.0000           -0.4486927             -12.2095
        32        2.0000           -0.4460583             -12.1379
        33        2.0000           -0.4372195             -11.8973
        34        2.0000           -0.4348519             -11.8329
        35        2.0000           -0.4315942             -11.7443
        36        2.0000           -0.4244384             -11.5496
        37        2.0000           -0.4192788             -11.4092
        38        2.0000           -0.4162340             -11.3263
        39        2.0000           -0.4063178             -11.0565
        40        2.0000           -0.3735102             -10.1637 (HOMO)
        41                         -0.2958578              -8.0507 (LUMO)
        42                         -0.2353613              -6.4045
        43                         -0.2037307              -5.5438
        44                         -0.0962590              -2.6193
        45                          0.0233929               0.6366
        46                          0.0772370               2.1017
        47                          0.0878056               2.3893
        48                          0.0926256               2.5205
        49                          0.1101732               2.9980
        50                          0.1173275               3.1926
        51                          0.1290399               3.5114
       ...                                ...                  ...
        75                          0.6490665              17.6620
      -------------------------------------------------------------
                  HL-Gap            0.0776525 Eh            2.1130 eV
             Fermi-level           -0.3346840 Eh           -9.1072 eV

     #   Z        covCN         q      C6AA      α(0)
     1   6 C      2.913    -0.024    28.602     8.770
     2   6 C      2.922    -0.021    28.532     8.759
     3   6 C      2.968    -0.008    28.208     8.712
     4   6 C      2.918    -0.012    28.320     8.727
     5   6 C      2.914    -0.024    28.613     8.771
     6   6 C      2.917    -0.016    28.414     8.741
     7   1 H      0.925     0.053     2.277     2.360
     8   1 H      0.926     0.058     2.222     2.331
     9   1 H      0.925     0.054     2.266     2.354
    10   7 N      2.629    -0.374    29.650     8.087
    11   1 H      0.860     0.157     1.352     1.821
    12   6 C      3.731     0.024    20.263     6.426
    13   1 H      0.923     0.004     2.982     2.701
    14   1 H      0.924     0.032     2.562     2.503
    15   1 H      0.860     0.142     1.456     1.890
    16   1 H      0.805     0.288     0.757     1.366
    17   1 H      0.804     0.312     0.685     1.300
    18   6 C      2.768     0.214    23.481     7.936
    19   1 H      0.923     0.035     2.523     2.484
    20   8 O      0.856    -0.410    21.886     6.272
    21   6 C      3.802    -0.063    21.715     6.634
    22   1 H      0.924     0.040     2.452     2.449
    23   1 H      0.924     0.034     2.536     2.490
    24   8 O      1.609    -0.614    25.524     6.819
    25   6 C      3.800    -0.053    21.526     6.606
    26   1 H      0.924     0.030     2.591     2.517
    27   1 H      0.924     0.031     2.578     2.511
    28   1 H      0.925     0.052     2.301     2.372
    29   1 H      0.925     0.054     2.272     2.357
    30   6 C      3.749    -0.102    22.509     6.766
    31   1 H      0.924     0.036     2.498     2.471
    32   1 H      0.924     0.036     2.502     2.473
    33   1 H      0.924     0.035     2.512     2.479

 Mol. C6AA /au·bohr⁶  :       9601.040152
 Mol. C8AA /au·bohr⁸  :     213699.064950
 Mol. α(0) /au        :        151.257161


Wiberg/Mayer (AO) data.
largest (>0.10) Wiberg bond orders for each atom
          total WBO             WBO to atom ...
     1  C   3.991        C    2 1.460    C    6 1.429    H   29 0.969    C    4 0.104
     2  C   3.989        C    1 1.460    C    3 1.364    H    7 0.966    C    5 0.104
     3  C   3.989        C    2 1.364    C    4 1.361    C   18 1.082
     4  C   3.988        C    5 1.464    C    3 1.361    H    8 0.965    C    1 0.104
     5  C   3.991        C    4 1.464    C    6 1.424    H   28 0.969    C    2 0.104
     6  C   3.987        C    1 1.429    C    5 1.424    H    9 0.970
     7  H   0.997        C    2 0.966
     8  H   0.997        C    4 0.965
     9  H   0.997        C    6 0.970
    10  N   3.014        C   12 1.018    H   15 0.966    H   11 0.951
    11  H   0.975        N   10 0.951
    12  C   3.984        N   10 1.018    C   21 1.006    H   14 0.975    H   13 0.970
    13  H   1.000        C   12 0.970
    14  H   0.999        C   12 0.975
    15  H   0.980        N   10 0.966
    16  H   0.917        O   24 0.916
    17  H   0.902        O   24 0.865
    18  C   3.907        O   20 1.780    C    3 1.082    H   19 0.936
    19  H   0.998        C   18 0.936
    20  O   2.037        C   18 1.780
    21  C   3.996        C   25 1.007    C   12 1.006    H   23 0.976    H   22 0.976
    22  H   0.998        C   21 0.976
    23  H   0.999        C   21 0.976
    24  O   1.823        H   16 0.916    H   17 0.865
    25  C   3.997        C   30 1.020    C   21 1.007    H   27 0.978    H   26 0.978
    26  H   0.999        C   25 0.978
    27  H   0.999        C   25 0.978
    28  H   0.997        C    5 0.969
    29  H   0.997        C    1 0.969
    30  C   3.996        C   25 1.020    H   33 0.988    H   32 0.988    H   31 0.987
    31  H   0.998        C   30 0.987
    32  H   0.999        C   30 0.988
    33  H   0.999        C   30 0.988

molecular dipole:
                 x           y           z       tot (Debye)
 q only:       -0.293       0.923      -0.877
   full:       -0.499       0.640      -0.696       2.718
molecular quadrupole (traceless):
                xx          xy          yy          xz          yz          zz
 q only:        4.161       1.441      -2.287      -4.820      -3.264      -1.873
  q+dip:        3.518       2.885      -1.344      -5.051      -6.482      -2.174
   full:        2.871       4.532      -0.190      -4.319      -4.904      -2.681


           -------------------------------------------------
          | TOTAL ENERGY              -44.264216525284 Eh   |
          | GRADIENT NORM               0.023539585138 Eh/α |
          | HOMO-LUMO GAP               2.113031544303 eV   |
           -------------------------------------------------

------------------------------------------------------------------------
 * finished run on 2020/08/23 at 19:45:48.948     
------------------------------------------------------------------------
 total:
 * wall-time:     0 d,  0 h,  0 min,  0.477 sec
 *  cpu-time:     0 d,  0 h,  0 min,  2.474 sec
 * ratio c/w:     5.192 speedup
 SCF:
 * wall-time:     0 d,  0 h,  0 min,  0.230 sec
 *  cpu-time:     0 d,  0 h,  0 min,  1.139 sec
 * ratio c/w:     4.941 speedup


-------------------------   --------------------
FINAL SINGLE POINT ENERGY       -44.264216525280
-------------------------   --------------------


----------------------------------------------------------------------------
                           ORCA NUMERICAL FREQUENCIES
                              (8-process run)
----------------------------------------------------------------------------

Number of atoms                ... 33
Central differences            ... used
Number of displacements        ... 198
Numerical increment            ... 5.000e-03 bohr
IR-spectrum generation         ... on
Raman-spectrum generation      ... off
Surface Crossing Hessian       ... off
List of participating nodes    ...  /tmp/slurm-scratch/freq.134/freq.hostnames

The output will be reduced. Please look at the following files:
SCF program output             ... >/tmp/slurm-scratch/freq.134/freq.lastscf
Integral program output        ... >/tmp/slurm-scratch/freq.134/freq.lastint
Gradient program output        ... >/tmp/slurm-scratch/freq.134/freq.lastgrad
Dipole moment program output   ... >/tmp/slurm-scratch/freq.134/freq.lastmom
AutoCI program output          ... >/tmp/slurm-scratch/freq.134/freq.lastautoci


         <<< Energy and Gradient at the input geometry >>>

        <<< Energy and Gradient at displaced geometries >>>
             <<<Displacing   2/coordinate 3 (+)>>>
             <<<Displacing   1/coordinate 3 (+)>>>
             <<<Displacing   2/coordinate 1 (+)>>>
             <<<Displacing   1/coordinate 2 (+)>>>
             <<<Displacing   2/coordinate 2 (+)>>>
             <<<Displacing   3/coordinate 2 (+)>>>
             <<<Displacing   3/coordinate 1 (+)>>>
             <<<Displacing   1/coordinate 1 (+)>>>
             <<<Displacing   3/coordinate 1 (-)>>>
             <<<Displacing   1/coordinate 1 (-)>>>
             <<<Displacing   1/coordinate 3 (-)>>>
             <<<Displacing   2/coordinate 2 (-)>>>
             <<<Displacing   2/coordinate 3 (-)>>>
             <<<Displacing   1/coordinate 2 (-)>>>
             <<<Displacing   2/coordinate 1 (-)>>>
             <<<Displacing   3/coordinate 2 (-)>>>
             <<<Displacing   5/coordinate 3 (+)>>>
             <<<Displacing   4/coordinate 2 (+)>>>
             <<<Displacing   5/coordinate 3 (-)>>>
             <<<Displacing   4/coordinate 2 (-)>>>
             <<<Displacing   4/coordinate 1 (+)>>>
             <<<Displacing   3/coordinate 3 (+)>>>
             <<<Displacing   4/coordinate 3 (+)>>>
             <<<Displacing   4/coordinate 1 (-)>>>
             <<<Displacing   3/coordinate 3 (-)>>>
             <<<Displacing   5/coordinate 1 (+)>>>
             <<<Displacing   4/coordinate 3 (-)>>>
             <<<Displacing   5/coordinate 1 (-)>>>
             <<<Displacing   5/coordinate 2 (+)>>>
             <<<Displacing   6/coordinate 1 (+)>>>
             <<<Displacing   5/coordinate 2 (-)>>>
             <<<Displacing   6/coordinate 1 (-)>>>
             <<<Displacing   6/coordinate 2 (+)>>>
             <<<Displacing   7/coordinate 2 (+)>>>
             <<<Displacing   6/coordinate 2 (-)>>>
             <<<Displacing   7/coordinate 2 (-)>>>
             <<<Displacing   8/coordinate 1 (+)>>>
             <<<Displacing   8/coordinate 1 (-)>>>
             <<<Displacing   8/coordinate 3 (+)>>>
             <<<Displacing   8/coordinate 3 (-)>>>
             <<<Displacing   7/coordinate 1 (+)>>>
             <<<Displacing   6/coordinate 3 (+)>>>
             <<<Displacing   7/coordinate 1 (-)>>>
             <<<Displacing   7/coordinate 3 (+)>>>
             <<<Displacing   6/coordinate 3 (-)>>>
             <<<Displacing   7/coordinate 3 (-)>>>
             <<<Displacing   8/coordinate 2 (+)>>>
             <<<Displacing   8/coordinate 2 (-)>>>
             <<<Displacing   9/coordinate 1 (+)>>>
             <<<Displacing   9/coordinate 1 (-)>>>
             <<<Displacing   9/coordinate 3 (+)>>>
             <<<Displacing   9/coordinate 2 (+)>>>
             <<<Displacing   9/coordinate 3 (-)>>>
             <<<Displacing   9/coordinate 2 (-)>>>
             <<<Displacing  10/coordinate 1 (+)>>>
             <<<Displacing  10/coordinate 2 (+)>>>
             <<<Displacing  10/coordinate 1 (-)>>>
             <<<Displacing  10/coordinate 2 (-)>>>
             <<<Displacing  10/coordinate 3 (+)>>>
             <<<Displacing  10/coordinate 3 (-)>>>
             <<<Displacing  11/coordinate 1 (+)>>>
             <<<Displacing  11/coordinate 1 (-)>>>
             <<<Displacing  11/coordinate 2 (+)>>>
             <<<Displacing  11/coordinate 2 (-)>>>
             <<<Displacing  11/coordinate 3 (+)>>>
             <<<Displacing  11/coordinate 3 (-)>>>
             <<<Displacing  12/coordinate 3 (+)>>>
             <<<Displacing  12/coordinate 3 (-)>>>
             <<<Displacing  12/coordinate 1 (+)>>>
             <<<Displacing  12/coordinate 1 (-)>>>
             <<<Displacing  12/coordinate 2 (+)>>>
             <<<Displacing  12/coordinate 2 (-)>>>
             <<<Displacing  13/coordinate 1 (+)>>>
             <<<Displacing  13/coordinate 1 (-)>>>
             <<<Displacing  13/coordinate 2 (+)>>>
             <<<Displacing  13/coordinate 3 (+)>>>
             <<<Displacing  13/coordinate 2 (-)>>>
             <<<Displacing  13/coordinate 3 (-)>>>
             <<<Displacing  14/coordinate 1 (+)>>>
             <<<Displacing  14/coordinate 1 (-)>>>
             <<<Displacing  14/coordinate 2 (+)>>>
             <<<Displacing  14/coordinate 2 (-)>>>
             <<<Displacing  14/coordinate 3 (+)>>>
             <<<Displacing  15/coordinate 1 (+)>>>
             <<<Displacing  14/coordinate 3 (-)>>>
             <<<Displacing  15/coordinate 1 (-)>>>
             <<<Displacing  15/coordinate 2 (+)>>>
             <<<Displacing  15/coordinate 2 (-)>>>
             <<<Displacing  15/coordinate 3 (+)>>>
             <<<Displacing  16/coordinate 1 (+)>>>
             <<<Displacing  15/coordinate 3 (-)>>>
             <<<Displacing  16/coordinate 1 (-)>>>
             <<<Displacing  16/coordinate 2 (+)>>>
             <<<Displacing  16/coordinate 2 (-)>>>
             <<<Displacing  16/coordinate 3 (+)>>>
             <<<Displacing  16/coordinate 3 (-)>>>
             <<<Displacing  17/coordinate 2 (+)>>>
             <<<Displacing  17/coordinate 1 (+)>>>
             <<<Displacing  17/coordinate 3 (+)>>>
             <<<Displacing  17/coordinate 2 (-)>>>
             <<<Displacing  17/coordinate 1 (-)>>>
             <<<Displacing  17/coordinate 3 (-)>>>
             <<<Displacing  18/coordinate 1 (+)>>>
             <<<Displacing  18/coordinate 1 (-)>>>
             <<<Displacing  18/coordinate 2 (+)>>>
             <<<Displacing  18/coordinate 2 (-)>>>
             <<<Displacing  18/coordinate 3 (+)>>>
             <<<Displacing  18/coordinate 3 (-)>>>
             <<<Displacing  19/coordinate 2 (+)>>>
             <<<Displacing  19/coordinate 2 (-)>>>
             <<<Displacing  19/coordinate 1 (+)>>>
             <<<Displacing  19/coordinate 1 (-)>>>
             <<<Displacing  20/coordinate 1 (+)>>>
             <<<Displacing  20/coordinate 2 (+)>>>
             <<<Displacing  20/coordinate 1 (-)>>>
             <<<Displacing  19/coordinate 3 (+)>>>
             <<<Displacing  20/coordinate 2 (-)>>>
             <<<Displacing  19/coordinate 3 (-)>>>
             <<<Displacing  20/coordinate 3 (+)>>>
             <<<Displacing  20/coordinate 3 (-)>>>
             <<<Displacing  21/coordinate 2 (+)>>>
             <<<Displacing  21/coordinate 2 (-)>>>
             <<<Displacing  21/coordinate 1 (+)>>>
             <<<Displacing  21/coordinate 1 (-)>>>
             <<<Displacing  22/coordinate 1 (+)>>>
             <<<Displacing  21/coordinate 3 (+)>>>
             <<<Displacing  22/coordinate 1 (-)>>>
             <<<Displacing  21/coordinate 3 (-)>>>
             <<<Displacing  22/coordinate 3 (+)>>>
             <<<Displacing  22/coordinate 2 (+)>>>
             <<<Displacing  22/coordinate 3 (-)>>>
             <<<Displacing  22/coordinate 2 (-)>>>
             <<<Displacing  23/coordinate 1 (+)>>>
             <<<Displacing  23/coordinate 1 (-)>>>
             <<<Displacing  23/coordinate 2 (+)>>>
             <<<Displacing  23/coordinate 2 (-)>>>
             <<<Displacing  23/coordinate 3 (+)>>>
             <<<Displacing  23/coordinate 3 (-)>>>
             <<<Displacing  24/coordinate 1 (+)>>>
             <<<Displacing  24/coordinate 1 (-)>>>
             <<<Displacing  24/coordinate 2 (+)>>>
             <<<Displacing  24/coordinate 3 (+)>>>
             <<<Displacing  24/coordinate 2 (-)>>>
             <<<Displacing  24/coordinate 3 (-)>>>
             <<<Displacing  25/coordinate 1 (+)>>>
             <<<Displacing  25/coordinate 1 (-)>>>
             <<<Displacing  25/coordinate 2 (+)>>>
             <<<Displacing  25/coordinate 2 (-)>>>
             <<<Displacing  25/coordinate 3 (+)>>>
             <<<Displacing  25/coordinate 3 (-)>>>
             <<<Displacing  26/coordinate 1 (+)>>>
             <<<Displacing  26/coordinate 1 (-)>>>
             <<<Displacing  26/coordinate 2 (+)>>>
             <<<Displacing  26/coordinate 2 (-)>>>
             <<<Displacing  26/coordinate 3 (+)>>>
             <<<Displacing  26/coordinate 3 (-)>>>
             <<<Displacing  27/coordinate 1 (+)>>>
             <<<Displacing  27/coordinate 1 (-)>>>
             <<<Displacing  27/coordinate 2 (+)>>>
             <<<Displacing  27/coordinate 2 (-)>>>
             <<<Displacing  27/coordinate 3 (+)>>>
             <<<Displacing  27/coordinate 3 (-)>>>
             <<<Displacing  28/coordinate 2 (+)>>>
             <<<Displacing  28/coordinate 2 (-)>>>
             <<<Displacing  28/coordinate 1 (+)>>>
             <<<Displacing  28/coordinate 1 (-)>>>
             <<<Displacing  29/coordinate 1 (+)>>>
             <<<Displacing  29/coordinate 1 (-)>>>
             <<<Displacing  28/coordinate 3 (+)>>>
             <<<Displacing  28/coordinate 3 (-)>>>
             <<<Displacing  29/coordinate 3 (+)>>>
             <<<Displacing  29/coordinate 3 (-)>>>
             <<<Displacing  29/coordinate 2 (+)>>>
             <<<Displacing  29/coordinate 2 (-)>>>
             <<<Displacing  30/coordinate 1 (+)>>>
             <<<Displacing  30/coordinate 1 (-)>>>
             <<<Displacing  30/coordinate 2 (+)>>>
             <<<Displacing  30/coordinate 2 (-)>>>
             <<<Displacing  30/coordinate 3 (+)>>>
             <<<Displacing  30/coordinate 3 (-)>>>
             <<<Displacing  31/coordinate 1 (+)>>>
             <<<Displacing  31/coordinate 1 (-)>>>
             <<<Displacing  31/coordinate 2 (+)>>>
             <<<Displacing  31/coordinate 2 (-)>>>
             <<<Displacing  32/coordinate 1 (+)>>>
             <<<Displacing  32/coordinate 1 (-)>>>
             <<<Displacing  31/coordinate 3 (+)>>>
             <<<Displacing  31/coordinate 3 (-)>>>
             <<<Displacing  32/coordinate 2 (+)>>>
             <<<Displacing  33/coordinate 1 (+)>>>
             <<<Displacing  32/coordinate 2 (-)>>>
             <<<Displacing  33/coordinate 1 (-)>>>
             <<<Displacing  32/coordinate 3 (+)>>>
             <<<Displacing  32/coordinate 3 (-)>>>
             <<<Displacing  33/coordinate 2 (+)>>>
             <<<Displacing  33/coordinate 2 (-)>>>
             <<<Displacing  33/coordinate 3 (+)>>>
             <<<Displacing  33/coordinate 3 (-)>>>

-----------------------
VIBRATIONAL FREQUENCIES
-----------------------

Scaling factor for frequencies =  1.000000000 (already applied!)

   0:         0.00 cm**-1
   1:         0.00 cm**-1
   2:         0.00 cm**-1
   3:         0.00 cm**-1
   4:         0.00 cm**-1
   5:         0.00 cm**-1
   6:       -61.97 cm**-1 ***imaginary mode***
   7:        34.73 cm**-1
   8:        43.06 cm**-1
   9:        51.29 cm**-1
  10:        52.29 cm**-1
  11:        67.33 cm**-1
  12:        71.22 cm**-1
  13:        88.23 cm**-1
  14:       113.36 cm**-1
  15:       129.52 cm**-1
  16:       139.05 cm**-1
  17:       176.02 cm**-1
  18:       204.31 cm**-1
  19:       227.81 cm**-1
  20:       252.60 cm**-1
  21:       256.08 cm**-1
  22:       277.53 cm**-1
  23:       322.72 cm**-1
  24:       372.28 cm**-1
  25:       383.33 cm**-1
  26:       394.52 cm**-1
  27:       424.80 cm**-1
  28:       435.08 cm**-1
  29:       440.43 cm**-1
  30:       578.96 cm**-1
  31:       586.65 cm**-1
  32:       628.72 cm**-1
  33:       658.86 cm**-1
  34:       744.58 cm**-1
  35:       772.83 cm**-1
  36:       823.70 cm**-1
  37:       828.12 cm**-1
  38:       875.60 cm**-1
  39:       897.81 cm**-1
  40:       916.33 cm**-1
  41:       920.42 cm**-1
  42:       933.72 cm**-1
  43:       933.94 cm**-1
  44:       938.37 cm**-1
  45:       973.41 cm**-1
  46:       984.31 cm**-1
  47:      1006.91 cm**-1
  48:      1065.78 cm**-1
  49:      1066.81 cm**-1
  50:      1097.87 cm**-1
  51:      1115.46 cm**-1
  52:      1122.03 cm**-1
  53:      1146.78 cm**-1
  54:      1177.03 cm**-1
  55:      1180.19 cm**-1
  56:      1200.99 cm**-1
  57:      1211.02 cm**-1
  58:      1233.16 cm**-1
  59:      1269.99 cm**-1
  60:      1274.39 cm**-1
  61:      1279.43 cm**-1
  62:      1291.90 cm**-1
  63:      1305.10 cm**-1
  64:      1352.65 cm**-1
  65:      1360.89 cm**-1
  66:      1379.08 cm**-1
  67:      1426.47 cm**-1
  68:      1428.80 cm**-1
  69:      1448.29 cm**-1
  70:      1500.96 cm**-1
  71:      1505.65 cm**-1
  72:      1507.44 cm**-1
  73:      1509.36 cm**-1
  74:      1513.10 cm**-1
  75:      1544.26 cm**-1
  76:      1554.99 cm**-1
  77:      1561.58 cm**-1
  78:      1568.56 cm**-1
  79:      1650.33 cm**-1
  80:      2840.02 cm**-1
  81:      2856.79 cm**-1
  82:      2929.49 cm**-1
  83:      2943.48 cm**-1
  84:      2962.33 cm**-1
  85:      2965.72 cm**-1
  86:      2970.87 cm**-1
  87:      2978.92 cm**-1
  88:      2984.11 cm**-1
  89:      2996.79 cm**-1
  90:      3057.08 cm**-1
  91:      3060.99 cm**-1
  92:      3068.24 cm**-1
  93:      3076.03 cm**-1
  94:      3083.86 cm**-1
  95:      3367.78 cm**-1
  96:      3379.39 cm**-1
  97:      3407.48 cm**-1
  98:      3578.07 cm**-1


------------
NORMAL MODES
------------

These modes are the cartesian displacements weighted by the diagonal matrix
M(i,i)=1/sqrt(m[i]) where m[i] is the mass of the displaced atom
Thus, these vectors are normalized but *not* orthogonal

                  0          1          2          3          4          5    
      0       0.000000   0.000000   0.000000   0.000000   0.000000   0.000000
      1       0.000000   0.000000   0.000000   0.000000   0.000000   0.000000
      2       0.000000   0.000000   0.000000   0.000000   0.000000   0.000000
      3       0.000000   0.000000   0.000000   0.000000   0.000000   0.000000
      4       0.000000   0.000000   0.000000   0.000000   0.000000   0.000000
      5       0.000000   0.000000   0.000000   0.000000   0.000000   0.000000
      6       0.000000   0.000000   0.000000   0.000000   0.000000   0.000000
      7       0.000000   0.000000   0.000000   0.000000   0.000000   0.000000
      8       0.000000   0.000000   0.000000   0.000000   0.000000   0.000000
      9       0.000000   0.000000   0.000000   0.000000   0.000000   0.000000
     10       0.000000   0.000000   0.000000   0.000000   0.000000   0.000000
     11       0.000000   0.000000   0.000000   0.000000   0.000000   0.000000
     12       0.000000   0.000000   0.000000   0.000000   0.000000   0.000000
     13       0.000000   0.000000   0.000000   0.000000   0.000000   0.000000
     14       0.000000   0.000000   0.000000   0.000000   0.000000   0.000000
     15       0.000000   0.000000   0.000000   0.000000   0.000000   0.000000
     16       0.000000   0.000000   0.000000   0.000000   0.000000   0.000000
     17       0.000000   0.000000   0.000000   0.000000   0.000000   0.000000
     18       0.000000   0.000000   0.000000   0.000000   0.000000   0.000000
     19       0.000000   0.000000   0.000000   0.000000   0.000000   0.000000
     20       0.000000   0.000000   0.000000   0.000000   0.000000   0.000000
     21       0.000000   0.000000   0.000000   0.000000   0.000000   0.000000
     22       0.000000   0.000000   0.000000   0.000000   0.000000   0.000000
     23       0.000000   0.000000   0.000000   0.000000   0.000000   0.000000
     24       0.000000   0.000000   0.000000   0.000000   0.000000   0.000000
     25       0.000000   0.000000   0.000000   0.000000   0.000000   0.000000
     26       0.000000   0.000000   0.000000   0.000000   0.000000   0.000000
     27       0.000000   0.000000   0.000000   0.000000   0.000000   0.000000
     28       0.000000   0.000000   0.000000   0.000000   0.000000   0.000000
     29       0.000000   0.000000   0.000000   0.000000   0.000000   0.000000
     30       0.000000   0.000000   0.000000   0.000000   0.000000   0.000000
     31       0.000000   0.000000   0.000000   0.000000   0.000000   0.000000
     32       0.000000   0.000000   0.000000   0.000000   0.000000   0.000000
     33       0.000000   0.000000   0.000000   0.000000   0.000000   0.000000
     34       0.000000   0.000000   0.000000   0.000000   0.000000   0.000000
     35       0.000000   0.000000   0.000000   0.000000   0.000000   0.000000
     36       0.000000   0.000000   0.000000   0.000000   0.000000   0.000000
     37       0.000000   0.000000   0.000000   0.000000   0.000000   0.000000
     38       0.000000   0.000000   0.000000   0.000000   0.000000   0.000000
     39       0.000000   0.000000   0.000000   0.000000   0.000000   0.000000
     40       0.000000   0.000000   0.000000   0.000000   0.000000   0.000000
     41       0.000000   0.000000   0.000000   0.000000   0.000000   0.000000
     42       0.000000   0.000000   0.000000   0.000000   0.000000   0.000000
     43       0.000000   0.000000   0.000000   0.000000   0.000000   0.000000
     44       0.000000   0.000000   0.000000   0.000000   0.000000   0.000000
     45       0.000000   0.000000   0.000000   0.000000   0.000000   0.000000
     46       0.000000   0.000000   0.000000   0.000000   0.000000   0.000000
     47       0.000000   0.000000   0.000000   0.000000   0.000000   0.000000
     48       0.000000   0.000000   0.000000   0.000000   0.000000   0.000000
     49       0.000000   0.000000   0.000000   0.000000   0.000000   0.000000
     50       0.000000   0.000000   0.000000   0.000000   0.000000   0.000000
     51       0.000000   0.000000   0.000000   0.000000   0.000000   0.000000
     52       0.000000   0.000000   0.000000   0.000000   0.000000   0.000000
     53       0.000000   0.000000   0.000000   0.000000   0.000000   0.000000
     54       0.000000   0.000000   0.000000   0.000000   0.000000   0.000000
     55       0.000000   0.000000   0.000000   0.000000   0.000000   0.000000
     56       0.000000   0.000000   0.000000   0.000000   0.000000   0.000000
     57       0.000000   0.000000   0.000000   0.000000   0.000000   0.000000
     58       0.000000   0.000000   0.000000   0.000000   0.000000   0.000000
     59       0.000000   0.000000   0.000000   0.000000   0.000000   0.000000
     60       0.000000   0.000000   0.000000   0.000000   0.000000   0.000000
     61       0.000000   0.000000   0.000000   0.000000   0.000000   0.000000
     62       0.000000   0.000000   0.000000   0.000000   0.000000   0.000000
     63       0.000000   0.000000   0.000000   0.000000   0.000000   0.000000
     64       0.000000   0.000000   0.000000   0.000000   0.000000   0.000000
     65       0.000000   0.000000   0.000000   0.000000   0.000000   0.000000
     66       0.000000   0.000000   0.000000   0.000000   0.000000   0.000000
     67       0.000000   0.000000   0.000000   0.000000   0.000000   0.000000
     68       0.000000   0.000000   0.000000   0.000000   0.000000   0.000000
     69       0.000000   0.000000   0.000000   0.000000   0.000000   0.000000
     70       0.000000   0.000000   0.000000   0.000000   0.000000   0.000000
     71       0.000000   0.000000   0.000000   0.000000   0.000000   0.000000
     72       0.000000   0.000000   0.000000   0.000000   0.000000   0.000000
     73       0.000000   0.000000   0.000000   0.000000   0.000000   0.000000
     74       0.000000   0.000000   0.000000   0.000000   0.000000   0.000000
     75       0.000000   0.000000   0.000000   0.000000   0.000000   0.000000
     76       0.000000   0.000000   0.000000   0.000000   0.000000   0.000000
     77       0.000000   0.000000   0.000000   0.000000   0.000000   0.000000
     78       0.000000   0.000000   0.000000   0.000000   0.000000   0.000000
     79       0.000000   0.000000   0.000000   0.000000   0.000000   0.000000
     80       0.000000   0.000000   0.000000   0.000000   0.000000   0.000000
     81       0.000000   0.000000   0.000000   0.000000   0.000000   0.000000
     82       0.000000   0.000000   0.000000   0.000000   0.000000   0.000000
     83       0.000000   0.000000   0.000000   0.000000   0.000000   0.000000
     84       0.000000   0.000000   0.000000   0.000000   0.000000   0.000000
     85       0.000000   0.000000   0.000000   0.000000   0.000000   0.000000
     86       0.000000   0.000000   0.000000   0.000000   0.000000   0.000000
     87       0.000000   0.000000   0.000000   0.000000   0.000000   0.000000
     88       0.000000   0.000000   0.000000   0.000000   0.000000   0.000000
     89       0.000000   0.000000   0.000000   0.000000   0.000000   0.000000
     90       0.000000   0.000000   0.000000   0.000000   0.000000   0.000000
     91       0.000000   0.000000   0.000000   0.000000   0.000000   0.000000
     92       0.000000   0.000000   0.000000   0.000000   0.000000   0.000000
     93       0.000000   0.000000   0.000000   0.000000   0.000000   0.000000
     94       0.000000   0.000000   0.000000   0.000000   0.000000   0.000000
     95       0.000000   0.000000   0.000000   0.000000   0.000000   0.000000
     96       0.000000   0.000000   0.000000   0.000000   0.000000   0.000000
     97       0.000000   0.000000   0.000000   0.000000   0.000000   0.000000
     98       0.000000   0.000000   0.000000   0.000000   0.000000   0.000000
                  6          7          8          9         10         11    
      0       0.040123   0.120873   0.076609  -0.101459   0.017236  -0.121278
      1       0.022536  -0.020682  -0.017536  -0.163294  -0.102911  -0.136765
      2      -0.004719  -0.076666  -0.048627   0.029518  -0.048528  -0.060756
      3       0.066526   0.085299   0.010445  -0.015147  -0.044188  -0.097271
      4       0.056343  -0.011297   0.021779  -0.061668  -0.106114  -0.161704
      5       0.015844  -0.088866  -0.065521   0.095183  -0.075685  -0.057659
      6       0.081203   0.063912  -0.047125   0.044290  -0.040256   0.026629
      7       0.069480   0.000752   0.028978   0.007440  -0.033832  -0.006851
      8       0.019201  -0.058716  -0.010033   0.119455  -0.001789   0.003587
      9       0.062767   0.079088  -0.036122   0.014250   0.030870   0.123656
     10       0.040179   0.002711  -0.004168  -0.029231   0.048797   0.174042
     11      -0.001245  -0.016593   0.063054   0.076262   0.102782   0.064302
     12       0.036016   0.114725   0.030045  -0.073323   0.091080   0.101660
     13       0.008697  -0.007446  -0.043885  -0.131598   0.050132   0.201837
     14      -0.020955  -0.004843   0.079235   0.009784   0.128607   0.063318
     15       0.025539   0.135865   0.086539  -0.131358   0.084517  -0.020490
     16       0.001007  -0.018619  -0.050848  -0.199337  -0.025960   0.048238
     17      -0.021243  -0.034716   0.023562  -0.013573   0.052786   0.001802
     18       0.078295   0.072754   0.001763   0.006836  -0.096024  -0.170375
     19       0.072376  -0.014664   0.046911  -0.037534  -0.165210  -0.300276
     20       0.029950  -0.120530  -0.120559   0.128036  -0.153312  -0.101496
     21       0.068727   0.063868  -0.079682   0.063959   0.041700   0.212558
     22       0.046621   0.012919   0.001494   0.027954   0.111562   0.293884
     23       0.000762   0.006939   0.105083   0.094992   0.159299   0.118620
     24       0.006400   0.163688   0.138209  -0.198524   0.131844  -0.037004
     25      -0.022651  -0.025815  -0.082202  -0.278552  -0.024110   0.072350
     26      -0.036250  -0.024919   0.036532  -0.065337   0.073543   0.001747
     27      -0.208053  -0.033940  -0.007792   0.005481  -0.090138   0.009073
     28      -0.223826   0.175131   0.019058   0.135275  -0.065117  -0.022496
     29      -0.102604   0.089782  -0.166018  -0.108703   0.000054   0.005511
     30      -0.097116  -0.044277   0.010522   0.042821  -0.098336  -0.005034
     31      -0.070499   0.158712   0.040928   0.184618  -0.075183  -0.042491
     32      -0.023576   0.041350  -0.214341  -0.126943  -0.017072   0.003327
     33      -0.043276  -0.036052   0.056946   0.028073  -0.081415  -0.013759
     34      -0.027407   0.084810  -0.037740   0.072217  -0.050031  -0.032008
     35       0.030574   0.077352  -0.131977  -0.103180   0.007762  -0.011379
     36       0.038032   0.030276   0.065483   0.066726  -0.141043  -0.072417
     37      -0.016866   0.056412  -0.044918   0.055392  -0.032784  -0.019614
     38       0.292309   0.034686  -0.160921  -0.126192  -0.012237  -0.059271
     39       0.041695  -0.056780   0.101804   0.027618  -0.055236  -0.012775
     40       0.187482   0.094713  -0.075510   0.072077  -0.107419  -0.100999
     41      -0.097671   0.090751  -0.155434  -0.102862   0.004253   0.007991
     42      -0.250901  -0.038357  -0.038155   0.012812  -0.103676   0.015266
     43      -0.569042   0.247976   0.023843   0.110074  -0.045117   0.012440
     44       0.041659   0.068071  -0.146952  -0.105031   0.002726  -0.010143
     45      -0.052475  -0.101935  -0.254461  -0.033640   0.369370  -0.253186
     46       0.017541   0.023670   0.066895   0.089946   0.058268  -0.054738
     47      -0.020954  -0.087889   0.069247  -0.289184  -0.280249   0.014216
     48       0.000276  -0.034313  -0.186082   0.036479   0.077690  -0.039252
     49       0.014453   0.023216   0.060750   0.116640   0.099719  -0.078761
     50      -0.006837  -0.054310   0.067554  -0.074588  -0.169597  -0.015600
     51       0.102166   0.030613  -0.119458   0.116368  -0.110464   0.055934
     52       0.093489   0.019356   0.072279   0.087880  -0.040205  -0.040923
     53       0.028912  -0.066104  -0.030660   0.169074  -0.033550   0.007565
     54       0.108273   0.031945  -0.124036   0.157531  -0.135001   0.012979
     55       0.104914   0.031229   0.094187   0.141648  -0.058476  -0.116120
     56       0.035504  -0.090388  -0.092945   0.210407  -0.088336   0.006241
     57       0.069149   0.016229  -0.175140   0.116091  -0.143038   0.118771
     58       0.052697   0.031414   0.084920   0.071699  -0.032277  -0.003068
     59       0.007848  -0.044849   0.015660   0.154090  -0.005620   0.004112
     60      -0.099084  -0.097409   0.057489  -0.004859  -0.027125   0.035796
     61      -0.099191   0.005151  -0.036170   0.030283   0.021793   0.032759
     62      -0.015548   0.103004  -0.017572  -0.062983   0.043402   0.010964
     63      -0.165683  -0.162689   0.048985  -0.040279   0.029666   0.091482
     64      -0.102024   0.038209  -0.033938   0.045853   0.003799   0.023445
     65      -0.176757   0.169410  -0.022426  -0.040146   0.053013   0.073653
     66      -0.137911  -0.060598  -0.010388  -0.005350  -0.056450   0.043397
     67      -0.248528   0.009946  -0.014466   0.031313   0.072090   0.110533
     68       0.058350   0.073686   0.026808  -0.062802   0.050430  -0.017848
     69      -0.040555  -0.086724  -0.194612  -0.019412   0.255213  -0.208708
     70       0.020554   0.033688   0.057685   0.182790   0.134618  -0.084337
     71      -0.015776  -0.075301   0.073121  -0.198263  -0.231542  -0.005124
     72      -0.013002  -0.124910   0.161334   0.012415  -0.010612  -0.000031
     73       0.025226  -0.123423  -0.062539  -0.031975   0.052281   0.008045
     74       0.045602   0.079053   0.047100  -0.055497   0.055674  -0.013685
     75       0.009561  -0.064406   0.168839   0.045279  -0.054698  -0.041484
     76       0.038343  -0.153738  -0.064361  -0.046525   0.066346   0.012938
     77       0.172194   0.011002   0.050680  -0.080307   0.055427  -0.065374
     78       0.039178  -0.163537   0.230848   0.013591   0.014402  -0.013137
     79       0.118735  -0.131978  -0.084422  -0.036187   0.019141  -0.050063
     80      -0.022738   0.110750   0.001584  -0.054981   0.047130   0.014410
     81       0.022763   0.126537   0.038336  -0.096176   0.144184   0.178096
     82      -0.009256  -0.005987  -0.068922  -0.158135   0.111303   0.344640
     83      -0.037092   0.028058   0.134939  -0.023962   0.208873   0.110219
     84       0.031474   0.136885   0.120038  -0.145498   0.013919  -0.213862
     85       0.012729  -0.028891  -0.022452  -0.214861  -0.157603  -0.254121
     86      -0.007660  -0.098995  -0.090402   0.011243  -0.104446  -0.108838
     87      -0.025490  -0.181094   0.163978  -0.015125   0.029345   0.033477
     88       0.007928  -0.196565  -0.055639  -0.067135   0.106088   0.052404
     89       0.030321   0.102070   0.161995  -0.017058   0.077758  -0.008833
     90       0.004644  -0.186270   0.226417  -0.000281   0.038221   0.015836
     91       0.055519  -0.263405  -0.080608  -0.102417   0.123329   0.047030
     92       0.051706   0.094558   0.198034  -0.010385   0.084225  -0.019816
     93      -0.043019  -0.239684   0.159473  -0.045979   0.070925   0.071591
     94       0.003229  -0.173924  -0.053022  -0.055845   0.094463   0.045862
     95      -0.039938   0.143455   0.171527   0.000309   0.080523   0.023315
     96      -0.047170  -0.157409   0.108058  -0.018687   0.007641   0.037325
     97      -0.048194  -0.204814  -0.028231  -0.068467   0.139187   0.096795
     98       0.066709   0.085286   0.199098  -0.013627   0.084720  -0.026660
                 12         13         14         15         16         17    
      0       0.004529   0.048363   0.012331   0.015076   0.007428  -0.049463
      1       0.004169   0.043373   0.015825   0.023324  -0.019925  -0.035086
      2      -0.011261  -0.001917   0.010639   0.024070  -0.056158   0.011227
      3       0.021993   0.030056   0.004490   0.001159   0.039318   0.097773
      4       0.018555   0.063081  -0.019632  -0.029489   0.124058   0.038684
      5       0.000459  -0.003490  -0.002826   0.002698   0.001195   0.092484
      6       0.027936  -0.012402   0.002127  -0.004098   0.028653   0.159232
      7       0.018732   0.028536  -0.035684  -0.055518   0.164071   0.051592
      8      -0.003845  -0.005087  -0.018393  -0.020538   0.051459   0.059003
      9       0.014865  -0.036509   0.003685  -0.003796   0.015121   0.157028
     10       0.001820  -0.026774  -0.025046  -0.045449   0.116072   0.092897
     11      -0.022154  -0.007313  -0.027391  -0.033598   0.075202  -0.008651
     12      -0.003452  -0.021438   0.009051   0.007041  -0.013264   0.025568
     13      -0.013512  -0.052399   0.005197   0.001996  -0.023968   0.044604
     14      -0.034495  -0.008226  -0.016785  -0.015593   0.023182  -0.083027
     15      -0.008305   0.020988   0.015833   0.020887  -0.031287  -0.097484
     16      -0.011967  -0.016851   0.029541   0.042900  -0.111228  -0.062040
     17      -0.028882  -0.005915   0.003889   0.016638  -0.054772  -0.094360
     18       0.031238   0.048589   0.002786  -0.000855   0.060147   0.122418
     19       0.030197   0.107819  -0.027996  -0.039768   0.182423   0.040736
     20       0.013208  -0.003109   0.002562   0.009438  -0.008311   0.160876
     21       0.017642  -0.064599   0.002645  -0.009288   0.016604   0.241032
     22      -0.000690  -0.049697  -0.040200  -0.071823   0.170032   0.135813
     23      -0.027046  -0.008834  -0.042684  -0.057192   0.131572  -0.031847
     24      -0.022229   0.032691   0.022631   0.034305  -0.070185  -0.220668
     25      -0.023686  -0.035350   0.057907   0.087419  -0.240821  -0.152616
     26      -0.038240  -0.006284   0.015042   0.035323  -0.109114  -0.173151
     27      -0.060574   0.077817   0.069667  -0.006759   0.055634   0.008638
     28      -0.018197  -0.147958   0.090592  -0.022304   0.045859   0.018269
     29      -0.039218   0.149272   0.088773   0.010985   0.079484   0.021023
     30      -0.086048   0.066535   0.065844  -0.052737  -0.008162   0.015481
     31      -0.052682  -0.162862   0.084795  -0.085638  -0.041378   0.026278
     32      -0.055107   0.159988   0.091764  -0.017754   0.032610   0.012366
     33      -0.117560   0.029126  -0.070466  -0.095561  -0.079303  -0.002480
     34      -0.094380  -0.131469  -0.090861  -0.114190  -0.128332  -0.034479
     35      -0.086719   0.116908  -0.026052  -0.060371  -0.031706   0.007199
     36      -0.268503  -0.074418   0.027482  -0.237956  -0.150657  -0.007091
     37      -0.069352  -0.105109  -0.140310  -0.093191  -0.135890  -0.039697
     38      -0.258971   0.063612  -0.144954  -0.242837  -0.248834  -0.041746
     39      -0.107387   0.018277  -0.197478  -0.111327  -0.148418  -0.009271
     40      -0.313731  -0.218513  -0.079498  -0.325650  -0.304365  -0.071270
     41      -0.030712   0.150342   0.069463   0.013982   0.073485   0.022652
     42      -0.035554   0.096709   0.164925   0.024708   0.108206   0.020022
     43       0.081079  -0.113907   0.216310   0.140401   0.274991   0.039285
     44      -0.089041   0.125898  -0.017774  -0.064078  -0.032984   0.006202
     45       0.084609  -0.129757  -0.041406  -0.018845   0.064595  -0.092948
     46       0.042153   0.076828   0.072012   0.098812  -0.188151   0.351523
     47       0.137048  -0.189579  -0.003295   0.016098  -0.040118   0.206756
     48       0.025451  -0.085731   0.029602  -0.019059  -0.013447  -0.151241
     49       0.034348   0.088052   0.071078   0.097435  -0.190033   0.320358
     50       0.058877  -0.100699   0.029830   0.011607  -0.094246  -0.016157
     51       0.044802  -0.021591   0.012678   0.008854   0.006439   0.048590
     52       0.032076   0.052455  -0.032667  -0.048316   0.131248  -0.051520
     53       0.007354  -0.001399  -0.010182  -0.011970   0.038763  -0.016863
     54       0.040778  -0.022413  -0.012382  -0.022903   0.048248   0.149242
     55       0.024708   0.056824  -0.072028  -0.095614   0.183594   0.107972
     56       0.008939  -0.013848  -0.023765  -0.032727   0.086512   0.016061
     57       0.054876  -0.018395   0.067146   0.064202  -0.056151  -0.214184
     58       0.043030   0.074037   0.033783   0.027797   0.007229  -0.327291
     59       0.010123   0.016442   0.020645   0.026658  -0.043862  -0.111293
     60       0.009802   0.119022  -0.159724   0.022290  -0.022061   0.007435
     61       0.073350  -0.015681  -0.207514   0.040794  -0.054673  -0.022790
     62       0.032873   0.085541  -0.098994   0.020839   0.000899   0.020932
     63       0.153235   0.235974  -0.242078   0.139001   0.044418   0.024690
     64       0.061449  -0.032494  -0.209321  -0.001409  -0.085231  -0.028692
     65       0.271503   0.232811  -0.298351   0.008237  -0.051969   0.019110
     66       0.030491   0.200203  -0.210932  -0.059664  -0.082423   0.003217
     67       0.336739   0.134986  -0.397029   0.124550  -0.040103  -0.012344
     68      -0.060643  -0.020487  -0.003506   0.056906   0.041339   0.020571
     69       0.074060  -0.168219  -0.024981  -0.035469   0.032556  -0.054285
     70       0.010517   0.118063   0.080966   0.096949  -0.204056   0.240470
     71       0.105092  -0.158969   0.008592   0.010989  -0.062264   0.110774
     72      -0.080264  -0.056738  -0.037980   0.089328   0.036436  -0.001034
     73      -0.098099  -0.065370  -0.029465   0.128746   0.056385   0.001674
     74      -0.033257  -0.031559  -0.011300   0.068850   0.044096   0.015775
     75      -0.195716  -0.182028  -0.146157   0.262076   0.096583  -0.007142
     76      -0.097599  -0.048970   0.022652   0.102849   0.059514   0.006788
     77      -0.258292  -0.178571   0.093613   0.254027   0.183104   0.034464
     78      -0.107156  -0.146086   0.086865   0.081749   0.058085  -0.010380
     79      -0.331216  -0.211812  -0.049244   0.371443   0.192912   0.018875
     80       0.060146   0.081630  -0.098602  -0.002532  -0.015660   0.017084
     81      -0.013886  -0.041688   0.010170   0.008047  -0.030369   0.011219
     82      -0.026846  -0.098643   0.012277   0.010980  -0.075339   0.061278
     83      -0.048547  -0.010084  -0.022569  -0.024058   0.037294  -0.146094
     84       0.000290   0.081186   0.015761   0.022448   0.004923  -0.132460
     85       0.004705   0.072073   0.033249   0.050605  -0.068393  -0.086375
     86      -0.007118   0.001199   0.026359   0.047124  -0.106389   0.026373
     87       0.013411   0.040047   0.078799  -0.067869  -0.014044   0.004521
     88       0.029191   0.060176   0.127322  -0.082140  -0.011985   0.008077
     89       0.074064  -0.112256   0.062062  -0.038474  -0.023127  -0.028544
     90      -0.014779  -0.067628   0.139497  -0.017169   0.023075  -0.010496
     91      -0.050827   0.062749   0.215368  -0.015440   0.071388   0.039817
     92       0.051873  -0.177020   0.104402  -0.003582   0.004657  -0.035563
     93       0.118087   0.158458   0.200052  -0.247596  -0.073891   0.013336
     94       0.020377   0.038632   0.086502  -0.056382  -0.013410   0.001845
     95       0.229229  -0.020792   0.020246  -0.228419  -0.159008  -0.055183
     96       0.005513   0.100965  -0.015925  -0.057343  -0.029397   0.015393
     97       0.211256   0.172315   0.196923  -0.333092  -0.145245  -0.012123
     98       0.020585  -0.199559   0.117182   0.035621   0.033445  -0.030881
                 18         19         20         21         22         23    
      0      -0.005617   0.048261  -0.009343  -0.013312  -0.001156  -0.000659
      1      -0.001984   0.010205  -0.019480  -0.024971  -0.002358  -0.003808
      2       0.002385  -0.036937  -0.013972  -0.021883  -0.002230  -0.010724
      3      -0.009031  -0.074053  -0.029046  -0.038491  -0.000829  -0.004263
      4      -0.022674   0.124610  -0.031005  -0.039211  -0.001907   0.005613
      5      -0.005535  -0.049137  -0.025423  -0.036202  -0.001921  -0.008480
      6      -0.001787  -0.153016  -0.019107  -0.025507  -0.000092  -0.004436
      7      -0.019390   0.115950  -0.008396  -0.007987  -0.000363   0.010695
      8      -0.007767   0.001717  -0.009390  -0.012817  -0.000860  -0.001088
      9      -0.003994  -0.135818  -0.037077  -0.050551  -0.001024  -0.010265
     10      -0.019500   0.063549  -0.043024  -0.055546  -0.001807   0.000473
     11      -0.014954   0.134184  -0.018205  -0.025836  -0.001908  -0.002880
     12       0.002083  -0.035422   0.003163   0.001390  -0.000124  -0.000294
     13       0.005946  -0.073332   0.003395   0.004349  -0.000351   0.001305
     14      -0.005558   0.152103   0.013404   0.014511  -0.001178   0.001946
     15       0.006935   0.031284   0.032072   0.041179   0.000449   0.006049
     16       0.022656  -0.111870   0.041377   0.055124   0.000353   0.003293
     17       0.008102   0.056679   0.029846   0.035796  -0.000889  -0.001039
     18      -0.014188  -0.072043  -0.039036  -0.051846  -0.000858  -0.006724
     19      -0.035563   0.189037  -0.044476  -0.056016  -0.001831   0.005177
     20      -0.005010  -0.123776  -0.038494  -0.054664  -0.002092  -0.015242
     21      -0.005555  -0.221485  -0.055017  -0.071917  -0.001022  -0.027404
     22      -0.029640   0.099126  -0.060931  -0.081437  -0.002190  -0.013115
     23      -0.024177   0.241258  -0.022567  -0.035587  -0.002297  -0.003531
     24       0.017730   0.079902   0.076543   0.100113   0.001654   0.012129
     25       0.050035  -0.216181   0.102553   0.134999   0.002294   0.004794
     26       0.020681   0.046792   0.066650   0.084236   0.000193   0.001957
     27      -0.133720  -0.026624   0.005037   0.014624   0.001006   0.000823
     28       0.143375   0.008677   0.006670  -0.007735   0.001567   0.032380
     29      -0.091897  -0.027944   0.001482   0.021011   0.004275  -0.014058
     30      -0.107076  -0.012884  -0.027572   0.059046  -0.005492   0.281278
     31       0.169497   0.025259  -0.038119   0.054260  -0.007449   0.421581
     32      -0.319580  -0.043944  -0.006358   0.060323  -0.001815   0.217575
     33       0.067797   0.015784   0.001526  -0.013419  -0.009193  -0.013717
     34      -0.068427   0.009350  -0.001127  -0.013819  -0.012714  -0.019790
     35       0.016653   0.001341  -0.001661  -0.000443  -0.004556  -0.025958
     36       0.156523   0.035414   0.007931  -0.033214  -0.006055  -0.017802
     37      -0.106276   0.006239  -0.003886  -0.010466  -0.015252  -0.024751
     38      -0.049476   0.022596  -0.007336  -0.018519  -0.014949  -0.076202
     39       0.161272   0.036048   0.002167  -0.031569  -0.016753  -0.026408
     40      -0.103865   0.024658  -0.004871  -0.027034  -0.015733  -0.058181
     41      -0.046042  -0.019117  -0.000968   0.017470   0.002297  -0.006664
     42      -0.266011  -0.048129  -0.008903   0.060228   0.004107   0.203635
     43       0.245060  -0.016586   0.039814  -0.071817   0.024626  -0.473105
     44      -0.036610  -0.004814  -0.001095   0.011992  -0.005538   0.018217
     45      -0.135619  -0.094487   0.816740  -0.746287  -0.006915   0.139668
     46      -0.017864   0.259341   0.009211   0.106332   0.006705  -0.320337
     47      -0.016334   0.176416   0.188392  -0.062027   0.005822  -0.284111
     48      -0.013371   0.079310  -0.222331   0.119894  -0.002912   0.074574
     49      -0.023095   0.192366   0.057378   0.031932   0.004125  -0.183082
     50       0.030255  -0.119926  -0.094221  -0.043467  -0.006293   0.398261
     51       0.011723  -0.018471   0.061640   0.073772   0.002602   0.004383
     52       0.013669  -0.087399   0.086486   0.115253   0.004548  -0.003786
     53       0.006904  -0.014745   0.047708   0.061402   0.001958  -0.000390
     54       0.029804  -0.071770   0.214256   0.268608   0.008876   0.001208
     55       0.044200  -0.302932   0.291141   0.381713   0.013409  -0.011763
     56       0.010863   0.216669   0.182801   0.226319   0.006658   0.006769
     57      -0.000195   0.283281  -0.004958  -0.026493  -0.000672  -0.002127
     58       0.014379  -0.145355  -0.040902  -0.054766   0.000024  -0.022121
     59       0.014265  -0.245161  -0.031169  -0.039421  -0.000369  -0.013066
     60       0.038499   0.003581  -0.001381   0.001472  -0.012837  -0.001472
     61      -0.116009  -0.006771  -0.007471   0.007345  -0.017625   0.004363
     62       0.163967   0.017522  -0.001035  -0.011633  -0.008922   0.022498
     63       0.035968  -0.011068  -0.003684   0.023575  -0.026826   0.029315
     64      -0.113787  -0.002035  -0.007412   0.000623  -0.024938  -0.001807
     65       0.158330   0.013138  -0.005676  -0.002755  -0.084499   0.051289
     66       0.029839   0.005124  -0.002295   0.002287  -0.045112  -0.011567
     67      -0.100528  -0.014355  -0.013291   0.022782  -0.074305   0.053510
     68       0.162576   0.018488   0.001158  -0.016241   0.031664   0.017014
     69       0.033085  -0.009916  -0.054291   0.052131   0.001086  -0.013077
     70      -0.016449   0.099276   0.003267   0.001343   0.000012   0.024973
     71       0.020672   0.042581   0.002800   0.004116   0.001143   0.012447
     72      -0.029565  -0.003790   0.000727   0.002766   0.030933  -0.004236
     73      -0.037037  -0.006989  -0.004370   0.005596   0.041675   0.003623
     74       0.117064   0.012343  -0.000208  -0.010455   0.022124   0.023169
     75      -0.110790  -0.012946  -0.001279   0.009455   0.069672  -0.006280
     76      -0.002237  -0.004294  -0.003135   0.003012   0.037425   0.005093
     77       0.161959   0.009352   0.002807  -0.011326   0.076548   0.027757
     78      -0.108619  -0.014249   0.002080   0.008214   0.035192  -0.013286
     79       0.004259  -0.008736  -0.003415   0.004492   0.104251   0.011621
     80       0.161590   0.020637  -0.001629  -0.013928  -0.001737   0.027372
     81       0.005756  -0.035131   0.015221   0.016177   0.000356  -0.000002
     82       0.015519  -0.139933   0.018963   0.021885   0.000350  -0.002048
     83      -0.006809   0.238646   0.029567   0.036386  -0.000654   0.006759
     84      -0.008424   0.143116  -0.009276  -0.013855  -0.001911  -0.001910
     85       0.000509   0.007552  -0.029829  -0.039215  -0.003423  -0.012004
     86       0.007502  -0.120077  -0.025070  -0.036664  -0.002746  -0.018488
     87       0.046115   0.004848   0.004286  -0.005082  -0.006431  -0.003893
     88       0.057453   0.003934  -0.000266  -0.004139  -0.009051   0.005248
     89      -0.173893  -0.014920  -0.005606   0.013123  -0.004512  -0.006685
     90      -0.112005  -0.018965   0.007009   0.020951  -0.328773  -0.027035
     91       0.228325   0.010007   0.013205  -0.003462  -0.441228   0.012737
     92      -0.258476  -0.028944  -0.003082   0.028941  -0.226954  -0.020073
     93       0.158591   0.018003   0.008430  -0.017925  -0.018442   0.001289
     94       0.013186   0.001054  -0.003322  -0.002490   0.069533   0.003640
     95      -0.259760  -0.008311  -0.019065  -0.001506   0.542290  -0.007144
     96       0.154791   0.022373   0.000561  -0.024846   0.293289   0.016101
     97       0.010746   0.009806  -0.006968  -0.015087   0.296538   0.000702
     98      -0.248389  -0.031286  -0.000313   0.033104  -0.353123  -0.021579
                 24         25         26         27         28         29    
      0       0.034472  -0.059783   0.001345  -0.005697  -0.160924   0.023369
      1       0.061598  -0.093236   0.002267   0.007581  -0.068161   0.112143
      2       0.048457  -0.038688   0.000400   0.020667   0.089857   0.101297
      3      -0.036499   0.075485  -0.004082   0.002286  -0.049495  -0.014074
      4      -0.072909   0.111115  -0.004674   0.001594  -0.037730   0.001323
      5      -0.023248   0.075988  -0.003855   0.017499   0.100694   0.037077
      6       0.007294  -0.008778   0.001484  -0.003692   0.205018  -0.090488
      7      -0.013179  -0.033235   0.004322  -0.033196   0.116862  -0.216269
      8      -0.000030  -0.011793   0.001315  -0.021219  -0.006648  -0.150650
[...]
     17       0.000096  -0.000005  -0.000004
     18      -0.000636   0.000604   0.000196
     19       0.000224  -0.000434  -0.000153
     20       0.000463  -0.000272   0.000043
     21      -0.000221   0.000413   0.001942
     22       0.001055  -0.000537  -0.001603
     23       0.000579   0.000213   0.001597
     24       0.000306   0.000028  -0.000016
     25       0.000237  -0.000051  -0.000132
     26      -0.000579   0.000011   0.000270
     27       0.022127  -0.059432  -0.000567
     28      -0.029460   0.004059   0.000487
     29      -0.019024  -0.050174  -0.000029
     30      -0.529377   0.356904   0.009181
     31       0.350953  -0.275466  -0.007052
     32      -0.037385  -0.003573   0.002232
     33      -0.000034  -0.001802  -0.000016
     34      -0.001488  -0.000534  -0.000026
     35      -0.000865  -0.001868   0.000052
     36      -0.002640   0.000377   0.000459
     37      -0.001243   0.001511   0.000770
     38       0.003135   0.001734  -0.000297
     39       0.004629   0.008735  -0.000060
     40       0.003082   0.003465  -0.000323
     41       0.004621   0.005387  -0.000570
     42       0.220463   0.478990  -0.000840
     43       0.070867   0.222360  -0.000207
     44       0.302676   0.712441  -0.000636
     45       0.006444  -0.000923   0.146356
     46       0.008877  -0.003627   0.699338
     47      -0.039222   0.006371  -0.693848
     48       0.000745  -0.000600  -0.004572
     49       0.595162  -0.056119  -0.065739
     50       0.300729  -0.028474  -0.000229
     51       0.000805  -0.000038  -0.000054
     52      -0.001451   0.000334   0.000016
     53       0.001684  -0.000351   0.000037
     54      -0.007318  -0.000072   0.000114
     55       0.002387  -0.000000  -0.000271
     56      -0.001186   0.000024  -0.000099
     57      -0.000325   0.000050   0.000018
     58       0.001299  -0.000235   0.000059
     59      -0.000721   0.000154  -0.000001
     60      -0.000094  -0.000111  -0.000002
     61      -0.000002   0.000052  -0.000015
     62       0.000109  -0.000025  -0.000003
     63       0.000730  -0.001159  -0.000023
     64       0.002790  -0.003027   0.000232
     65      -0.000398  -0.000290  -0.000035
     66      -0.001294   0.004837  -0.000082
     67      -0.000598   0.000742   0.000033
     68      -0.001718   0.003590  -0.000079
     69      -0.000360   0.000153  -0.008974
     70      -0.038513   0.003746  -0.039981
     71      -0.016550   0.001400   0.043683
     72      -0.000008  -0.000041  -0.000000
     73      -0.000005   0.000014  -0.000016
     74      -0.000019  -0.000026   0.000013
     75      -0.000233  -0.000187   0.000070
     76      -0.000507  -0.000135   0.000171
     77       0.000032   0.000107  -0.000070
     78       0.000308  -0.000032  -0.000024
     79       0.000286   0.000325  -0.000021
     80       0.000446   0.000809  -0.000084
     81       0.000996  -0.000083   0.000288
     82      -0.000370   0.000004  -0.000168
     83      -0.000501   0.000095  -0.000051
     84      -0.000581   0.000160   0.000093
     85       0.000806  -0.000221  -0.000142
     86      -0.000794   0.000237   0.000140
     87       0.000017  -0.000003  -0.000001
     88      -0.000028   0.000006  -0.000008
     89       0.000008  -0.000019   0.000004
     90      -0.000120  -0.000281   0.000011
     91      -0.000020   0.000047   0.000003
     92       0.000239   0.000299  -0.000013
     93       0.000123  -0.000074  -0.000005
     94       0.000457  -0.000316   0.000043
     95      -0.000068  -0.000029  -0.000006
     96      -0.000226   0.000429  -0.000003
     97      -0.000067   0.000111   0.000008
     98      -0.000272   0.000367  -0.000005


-----------
IR SPECTRUM  
-----------

 Mode    freq (cm**-1)   T**2         TX         TY         TZ
-------------------------------------------------------------------
   7:        34.73    0.000000  (  0.000000   0.000000   0.000000)
   8:        43.06    0.000000  (  0.000000   0.000000   0.000000)
   9:        51.29    0.000000  (  0.000000   0.000000   0.000000)
  10:        52.29    0.000000  (  0.000000   0.000000   0.000000)
  11:        67.33    0.000000  (  0.000000   0.000000   0.000000)
  12:        71.22    0.000000  (  0.000000   0.000000   0.000000)
  13:        88.23    0.000000  (  0.000000   0.000000   0.000000)
  14:       113.36    0.000000  (  0.000000   0.000000   0.000000)
  15:       129.52    0.000000  (  0.000000   0.000000   0.000000)
  16:       139.05    0.000000  (  0.000000   0.000000   0.000000)
  17:       176.02    0.000000  (  0.000000   0.000000   0.000000)
  18:       204.31    0.000000  (  0.000000   0.000000   0.000000)
  19:       227.81    0.000000  (  0.000000   0.000000   0.000000)
  20:       252.60    0.000000  (  0.000000   0.000000   0.000000)
  21:       256.08    0.000000  (  0.000000   0.000000   0.000000)
  22:       277.53    0.000000  (  0.000000   0.000000   0.000000)
  23:       322.72    0.000000  (  0.000000   0.000000   0.000000)
  24:       372.28    0.000000  (  0.000000   0.000000   0.000000)
  25:       383.33    0.000000  (  0.000000   0.000000   0.000000)
  26:       394.52    0.000000  (  0.000000   0.000000   0.000000)
  27:       424.80    0.000000  (  0.000000   0.000000   0.000000)
  28:       435.08    0.000000  (  0.000000   0.000000   0.000000)
  29:       440.43    0.000000  (  0.000000   0.000000   0.000000)
  30:       578.96    0.000000  (  0.000000   0.000000   0.000000)
  31:       586.65    0.000000  (  0.000000   0.000000   0.000000)
  32:       628.72    0.000000  (  0.000000   0.000000   0.000000)
  33:       658.86    0.000000  (  0.000000   0.000000   0.000000)
  34:       744.58    0.000000  (  0.000000   0.000000   0.000000)
  35:       772.83    0.000000  (  0.000000   0.000000   0.000000)
  36:       823.70    0.000000  (  0.000000   0.000000   0.000000)
  37:       828.12    0.000000  (  0.000000   0.000000   0.000000)
  38:       875.60    0.000000  (  0.000000   0.000000   0.000000)
  39:       897.81    0.000000  (  0.000000   0.000000   0.000000)
  40:       916.33    0.000000  (  0.000000   0.000000   0.000000)
  41:       920.42    0.000000  (  0.000000   0.000000   0.000000)
  42:       933.72    0.000000  (  0.000000   0.000000   0.000000)
  43:       933.94    0.000000  (  0.000000   0.000000   0.000000)
  44:       938.37    0.000000  (  0.000000   0.000000   0.000000)
  45:       973.41    0.000000  (  0.000000   0.000000   0.000000)
  46:       984.31    0.000000  (  0.000000   0.000000   0.000000)
  47:      1006.91    0.000000  (  0.000000   0.000000   0.000000)
  48:      1065.78    0.000000  (  0.000000   0.000000   0.000000)
  49:      1066.81    0.000000  (  0.000000   0.000000   0.000000)
  50:      1097.87    0.000000  (  0.000000   0.000000   0.000000)
  51:      1115.46    0.000000  (  0.000000   0.000000   0.000000)
  52:      1122.03    0.000000  (  0.000000   0.000000   0.000000)
  53:      1146.78    0.000000  (  0.000000   0.000000   0.000000)
  54:      1177.03    0.000000  (  0.000000   0.000000   0.000000)
  55:      1180.19    0.000000  (  0.000000   0.000000   0.000000)
  56:      1200.99    0.000000  (  0.000000   0.000000   0.000000)
  57:      1211.02    0.000000  (  0.000000   0.000000   0.000000)
  58:      1233.16    0.000000  (  0.000000   0.000000   0.000000)
  59:      1269.99    0.000000  (  0.000000   0.000000   0.000000)
  60:      1274.39    0.000000  (  0.000000   0.000000   0.000000)
  61:      1279.43    0.000000  (  0.000000   0.000000   0.000000)
  62:      1291.90    0.000000  (  0.000000   0.000000   0.000000)
  63:      1305.10    0.000000  (  0.000000   0.000000   0.000000)
  64:      1352.65    0.000000  (  0.000000   0.000000   0.000000)
  65:      1360.89    0.000000  (  0.000000   0.000000   0.000000)
  66:      1379.08    0.000000  (  0.000000   0.000000   0.000000)
  67:      1426.47    0.000000  (  0.000000   0.000000   0.000000)
  68:      1428.80    0.000000  (  0.000000   0.000000   0.000000)
  69:      1448.29    0.000000  (  0.000000   0.000000   0.000000)
  70:      1500.96    0.000000  (  0.000000   0.000000   0.000000)
  71:      1505.65    0.000000  (  0.000000   0.000000   0.000000)
  72:      1507.44    0.000000  (  0.000000   0.000000   0.000000)
  73:      1509.36    0.000000  (  0.000000   0.000000   0.000000)
  74:      1513.10    0.000000  (  0.000000   0.000000   0.000000)
  75:      1544.26    0.000000  (  0.000000   0.000000   0.000000)
  76:      1554.99    0.000000  (  0.000000   0.000000   0.000000)
  77:      1561.58    0.000000  (  0.000000   0.000000   0.000000)
  78:      1568.56    0.000000  (  0.000000   0.000000   0.000000)
  79:      1650.33    0.000000  (  0.000000   0.000000   0.000000)
  80:      2840.02    0.000000  (  0.000000   0.000000   0.000000)
  81:      2856.79    0.000000  (  0.000000   0.000000   0.000000)
  82:      2929.49    0.000000  (  0.000000   0.000000   0.000000)
  83:      2943.48    0.000000  (  0.000000   0.000000   0.000000)
  84:      2962.33    0.000000  (  0.000000   0.000000   0.000000)
  85:      2965.72    0.000000  (  0.000000   0.000000   0.000000)
  86:      2970.87    0.000000  (  0.000000   0.000000   0.000000)
  87:      2978.92    0.000000  (  0.000000   0.000000   0.000000)
  88:      2984.11    0.000000  (  0.000000   0.000000   0.000000)
  89:      2996.79    0.000000  (  0.000000   0.000000   0.000000)
  90:      3057.08    0.000000  (  0.000000   0.000000   0.000000)
  91:      3060.99    0.000000  (  0.000000   0.000000   0.000000)
  92:      3068.24    0.000000  (  0.000000   0.000000   0.000000)
  93:      3076.03    0.000000  (  0.000000   0.000000   0.000000)
  94:      3083.86    0.000000  (  0.000000   0.000000   0.000000)
  95:      3367.78    0.000000  (  0.000000   0.000000   0.000000)
  96:      3379.39    0.000000  (  0.000000   0.000000   0.000000)
  97:      3407.48    0.000000  (  0.000000   0.000000   0.000000)
  98:      3578.07    0.000000  (  0.000000   0.000000   0.000000)

The first frequency considered to be a vibration is 7
The total number of vibrations considered is 92


--------------------------
THERMOCHEMISTRY AT 298.15K
--------------------------

Temperature         ... 298.15 K
Pressure            ... 1.00 atm
Total Mass          ... 197.28 AMU

Throughout the following assumptions are being made:
  (1) The electronic state is orbitally nondegenerate
  (2) There are no thermally accessible electronically excited states
  (3) Hindered rotations indicated by low frequency modes are not
      treated as such but are treated as vibrations and this may
      cause some error
  (4) All equations used are the standard statistical mechanics
      equations for an ideal gas
  (5) All vibrations are strictly harmonic

freq.      34.73  E(vib)   ...       0.54 
freq.      43.06  E(vib)   ...       0.53 
freq.      51.29  E(vib)   ...       0.52 
freq.      52.29  E(vib)   ...       0.52 
freq.      67.33  E(vib)   ...       0.50 
freq.      71.22  E(vib)   ...       0.50 
freq.      88.23  E(vib)   ...       0.48 
freq.     113.36  E(vib)   ...       0.45 
freq.     129.52  E(vib)   ...       0.43 
freq.     139.05  E(vib)   ...       0.42 
freq.     176.02  E(vib)   ...       0.38 
freq.     204.31  E(vib)   ...       0.35 
freq.     227.81  E(vib)   ...       0.33 
freq.     252.60  E(vib)   ...       0.30 
freq.     256.08  E(vib)   ...       0.30 
freq.     277.53  E(vib)   ...       0.28 
freq.     322.72  E(vib)   ...       0.25 
freq.     372.28  E(vib)   ...       0.21 
freq.     383.33  E(vib)   ...       0.20 
freq.     394.52  E(vib)   ...       0.20 
freq.     424.80  E(vib)   ...       0.18 
freq.     435.08  E(vib)   ...       0.17 
freq.     440.43  E(vib)   ...       0.17 
freq.     578.96  E(vib)   ...       0.11 
freq.     586.65  E(vib)   ...       0.11 
freq.     628.72  E(vib)   ...       0.09 
freq.     658.86  E(vib)   ...       0.08 
freq.     744.58  E(vib)   ...       0.06 
freq.     772.83  E(vib)   ...       0.05 
freq.     823.70  E(vib)   ...       0.05 
freq.     828.12  E(vib)   ...       0.04 
freq.     875.60  E(vib)   ...       0.04 
freq.     897.81  E(vib)   ...       0.03 
freq.     916.33  E(vib)   ...       0.03 
freq.     920.42  E(vib)   ...       0.03 
freq.     933.72  E(vib)   ...       0.03 
freq.     933.94  E(vib)   ...       0.03 
freq.     938.37  E(vib)   ...       0.03 
freq.     973.41  E(vib)   ...       0.03 
freq.     984.31  E(vib)   ...       0.02 
freq.    1006.91  E(vib)   ...       0.02 
freq.    1065.78  E(vib)   ...       0.02 
freq.    1066.81  E(vib)   ...       0.02 
freq.    1097.87  E(vib)   ...       0.02 
freq.    1115.46  E(vib)   ...       0.01 
freq.    1122.03  E(vib)   ...       0.01 
freq.    1146.78  E(vib)   ...       0.01 
freq.    1177.03  E(vib)   ...       0.01 
freq.    1180.19  E(vib)   ...       0.01 
freq.    1200.99  E(vib)   ...       0.01 
freq.    1211.02  E(vib)   ...       0.01 
freq.    1233.16  E(vib)   ...       0.01 
freq.    1269.99  E(vib)   ...       0.01 
freq.    1274.39  E(vib)   ...       0.01 
freq.    1279.43  E(vib)   ...       0.01 
freq.    1291.90  E(vib)   ...       0.01 
freq.    1305.10  E(vib)   ...       0.01 
freq.    1352.65  E(vib)   ...       0.01 
freq.    1360.89  E(vib)   ...       0.01 
freq.    1379.08  E(vib)   ...       0.01 
freq.    1426.47  E(vib)   ...       0.00 
freq.    1428.80  E(vib)   ...       0.00 
freq.    1448.29  E(vib)   ...       0.00 
freq.    1500.96  E(vib)   ...       0.00 
freq.    1505.65  E(vib)   ...       0.00 
freq.    1507.44  E(vib)   ...       0.00 
freq.    1509.36  E(vib)   ...       0.00 
freq.    1513.10  E(vib)   ...       0.00 
freq.    1544.26  E(vib)   ...       0.00 
freq.    1554.99  E(vib)   ...       0.00 
freq.    1561.58  E(vib)   ...       0.00 
freq.    1568.56  E(vib)   ...       0.00 
freq.    1650.33  E(vib)   ...       0.00 
freq.    2840.02  E(vib)   ...       0.00 
freq.    2856.79  E(vib)   ...       0.00 
freq.    2929.49  E(vib)   ...       0.00 
freq.    2943.48  E(vib)   ...       0.00 
freq.    2962.33  E(vib)   ...       0.00 
freq.    2965.72  E(vib)   ...       0.00 
freq.    2970.87  E(vib)   ...       0.00 
freq.    2978.92  E(vib)   ...       0.00 
freq.    2984.11  E(vib)   ...       0.00 
freq.    2996.79  E(vib)   ...       0.00 
freq.    3057.08  E(vib)   ...       0.00 
freq.    3060.99  E(vib)   ...       0.00 
freq.    3068.24  E(vib)   ...       0.00 
freq.    3076.03  E(vib)   ...       0.00 
freq.    3083.86  E(vib)   ...       0.00 
freq.    3367.78  E(vib)   ...       0.00 
freq.    3379.39  E(vib)   ...       0.00 
freq.    3407.48  E(vib)   ...       0.00 
freq.    3578.07  E(vib)   ...       0.00 

------------
INNER ENERGY
------------

The inner energy is: U= E(el) + E(ZPE) + E(vib) + E(rot) + E(trans)
    E(el)   - is the total energy from the electronic structure calculation
              = E(kin-el) + E(nuc-el) + E(el-el) + E(nuc-nuc)
    E(ZPE)  - the the zero temperature vibrational energy from the frequency calculation
    E(vib)  - the the finite temperature correction to E(ZPE) due to population
              of excited vibrational states
    E(rot)  - is the rotational thermal energy
    E(trans)- is the translational thermal energy

Summary of contributions to the inner energy U:
Electronic energy                ...    -44.26421653 Eh
Zero point energy                ...      0.27638408 Eh     173.43 kcal/mol
Thermal vibrational correction   ...      0.01485732 Eh       9.32 kcal/mol
Thermal rotational correction    ...      0.00141627 Eh       0.89 kcal/mol
Thermal translational correction ...      0.00141627 Eh       0.89 kcal/mol
-----------------------------------------------------------------------
Total thermal energy                    -43.97014258 Eh


Summary of corrections to the electronic energy:
(perhaps to be used in another calculation)
Total thermal correction                  0.01768986 Eh      11.10 kcal/mol
Non-thermal (ZPE) correction              0.27638408 Eh     173.43 kcal/mol
-----------------------------------------------------------------------
Total correction                          0.29407395 Eh     184.53 kcal/mol


--------
ENTHALPY
--------

The enthalpy is H = U + kB*T
                kB is Boltzmann's constant
Total free energy                 ...    -43.97014258 Eh 
Thermal Enthalpy correction       ...      0.00094421 Eh       0.59 kcal/mol
-----------------------------------------------------------------------
Total Enthalpy                    ...    -43.96919837 Eh


Note: Only C1 symmetry has been detected, increase convergence thresholds 
      if your molecule has a higher symmetry. Symmetry factor of 1.0 is   
      used for the rotational entropy correction. 
 

Note: Rotational entropy computed according to Herzberg 
Infrared and Raman Spectra, Chapter V,1, Van Nostrand Reinhold, 1945 
Point Group:  C1, Symmetry Number:   1  
Rotational constants in cm-1:     0.031114     0.009464     0.008096 

Vibrational entropy computed according to the QRRHO of S. Grimme
Chem.Eur.J. 2012 18 9955


-------
ENTROPY
-------

The entropy contributions are T*S = T*(S(el)+S(vib)+S(rot)+S(trans))
     S(el)   - electronic entropy
     S(vib)  - vibrational entropy
     S(rot)  - rotational entropy
     S(trans)- translational entropy
The entropies will be listed as mutliplied by the temperature to get
units of energy

Electronic entropy                ...      0.00000000 Eh      0.00 kcal/mol
Vibrational entropy               ...      0.02686630 Eh     16.86 kcal/mol
Rotational entropy                ...      0.01562286 Eh      9.80 kcal/mol
Translational entropy             ...      0.01983352 Eh     12.45 kcal/mol
-----------------------------------------------------------------------
Final entropy term                ...      0.06232268 Eh     39.11 kcal/mol

In case the symmetry of your molecule has not been determined correctly
or in case you have a reason to use a different symmetry number we print 
out the resulting rotational entropy values for sn=1,12 :
 --------------------------------------------------------
|  sn= 1 | S(rot)=       0.01562286 Eh      9.80 kcal/mol|
|  sn= 2 | S(rot)=       0.01496840 Eh      9.39 kcal/mol|
|  sn= 3 | S(rot)=       0.01458557 Eh      9.15 kcal/mol|
|  sn= 4 | S(rot)=       0.01431395 Eh      8.98 kcal/mol|
|  sn= 5 | S(rot)=       0.01410326 Eh      8.85 kcal/mol|
|  sn= 6 | S(rot)=       0.01393111 Eh      8.74 kcal/mol|
|  sn= 7 | S(rot)=       0.01378557 Eh      8.65 kcal/mol|
|  sn= 8 | S(rot)=       0.01365949 Eh      8.57 kcal/mol|
|  sn= 9 | S(rot)=       0.01354828 Eh      8.50 kcal/mol|
|  sn=10 | S(rot)=       0.01344880 Eh      8.44 kcal/mol|
|  sn=11 | S(rot)=       0.01335881 Eh      8.38 kcal/mol|
|  sn=12 | S(rot)=       0.01327666 Eh      8.33 kcal/mol|
 --------------------------------------------------------


-------------------
GIBBS FREE ENERGY
-------------------

The Gibbs free energy is G = H - T*S

Total enthalpy                    ...    -43.96919837 Eh 
Total entropy correction          ...     -0.06232268 Eh    -39.11 kcal/mol
-----------------------------------------------------------------------
Final Gibbs free energy         ...    -44.03152105 Eh

For completeness - the Gibbs free energy minus the electronic energy
G-E(el)                           ...      0.23269547 Eh    146.02 kcal/mol


Total Time for Numerical Frequencies  :        93.403 sec
Time for Reference State(s)           :         0.148 sec
Time for Displacements                :        85.362 sec

Timings for individual modules:

Sum of individual times         ...        0.642 sec (=   0.011 min)
XTB module                      ...        0.642 sec (=   0.011 min) 100.0 %
                             ****ORCA TERMINATED NORMALLY****
TOTAL RUN TIME: 0 days 0 hours 1 minutes 35 seconds 63 msec
(SLURM) EXECUTION TIME: 96.471354529 seconds.
