
                                 *****************
                                 * O   R   C   A *
                                 *****************

           --- An Ab Initio, DFT and Semiempirical electronic structure package ---

                  #######################################################
                  #                        -***-                        #
                  #          Department of theory and spectroscopy      #
                  #               Directorship: Frank Neese             #
                  #        Max Planck Institute fuer Kohlenforschung    #
                  #                Kaiser Wilhelm Platz 1               #
                  #                 D-45470 Muelheim/Ruhr               #
                  #                      Germany                        #
                  #                                                     #
                  #                  All rights reserved                #
                  #                        -***-                        #
                  #######################################################


                         Program Version 4.2.1 -  RELEASE  -


 With contributions from (in alphabetic order):
   Daniel Aravena         : Magnetic Suceptibility
   Michael Atanasov       : Ab Initio Ligand Field Theory (pilot matlab implementation)
   Alexander A. Auer      : GIAO ZORA, VPT2
   Ute Becker             : Parallelization
   Giovanni Bistoni       : ED, misc. LED, open-shell LED, HFLD
   Martin Brehm           : Molecular dynamics
   Dmytro Bykov           : SCF Hessian
   Vijay G. Chilkuri      : MRCI spin determinant printing, contributions to CSF-ICE
   Dipayan Datta          : RHF DLPNO-CCSD density
   Achintya Kumar Dutta   : EOM-CC, STEOM-CC
   Dmitry Ganyushin       : Spin-Orbit,Spin-Spin,Magnetic field MRCI
   Miquel Garcia          : C-PCM Hessian, Gaussian charge scheme
   Yang Guo               : DLPNO-NEVPT2, CIM, IAO-localization
   Andreas Hansen         : Spin unrestricted coupled pair/coupled cluster methods
   Benjamin Helmich-Paris : CASSCF linear response (MC-RPA)
   Lee Huntington         : MR-EOM, pCC
   Robert Izsak           : Overlap fitted RIJCOSX, COSX-SCS-MP3, EOM
   Christian Kollmar      : KDIIS, OOCD, Brueckner-CCSD(T), CCSD density
   Simone Kossmann        : Meta GGA functionals, TD-DFT gradient, OOMP2, MP2 Hessian
   Martin Krupicka        : AUTO-CI
   Lucas Lang             : DCDCAS
   Dagmar Lenk            : GEPOL surface, SMD
   Dimitrios Liakos       : Extrapolation schemes; Compound Job, initial MDCI parallelization
   Dimitrios Manganas     : Further ROCIS development; embedding schemes
   Dimitrios Pantazis     : SARC Basis sets
   Taras Petrenko         : DFT Hessian,TD-DFT gradient, ASA, ECA, R-Raman, ABS, FL, XAS/XES, NRVS
   Peter Pinski           : DLPNO-MP2, DLPNO-MP2 Gradient
   Christoph Reimann      : Effective Core Potentials
   Marius Retegan         : Local ZFS, SOC
   Christoph Riplinger    : Optimizer, TS searches, QM/MM, DLPNO-CCSD(T), (RO)-DLPNO pert. Triples
   Tobias Risthaus        : Range-separated hybrids, TD-DFT gradient, RPA, STAB
   Michael Roemelt        : Original ROCIS implementation
   Masaaki Saitow         : Open-shell DLPNO-CCSD energy and density
   Barbara Sandhoefer     : DKH picture change effects
   Avijit Sen             : IP-ROCIS
   Kantharuban Sivalingam : CASSCF convergence, NEVPT2, FIC-MRCI
   Bernardo de Souza      : ESD, SOC TD-DFT
   Georgi Stoychev        : AutoAux, RI-MP2 NMR
   Willem Van den Heuvel  : Paramagnetic NMR
   Boris Wezisla          : Elementary symmetry handling
   Frank Wennmohs         : Technical directorship


 We gratefully acknowledge several colleagues who have allowed us to
 interface, adapt or use parts of their codes:
   Stefan Grimme, W. Hujo, H. Kruse,             : VdW corrections, initial TS optimization,
                  C. Bannwarth                     DFT functionals, gCP, sTDA/sTD-DF
   Ed Valeev, F. Pavosevic, A. Kumar             : LibInt (2-el integral package), F12 methods
   Garnet Chan, S. Sharma, J. Yang, R. Olivares  : DMRG
   Ulf Ekstrom                                   : XCFun DFT Library
   Mihaly Kallay                                 : mrcc  (arbitrary order and MRCC methods)
   Andreas Klamt, Michael Diedenhofen            : otool_cosmo (COSMO solvation model)
   Jiri Pittner, Ondrej Demel                    : Mk-CCSD
   Frank Weinhold                                : gennbo (NPA and NBO analysis)
   Christopher J. Cramer and Donald G. Truhlar   : smd solvation model
   Lars Goerigk                                  : TD-DFT with DH, B97 family of functionals
   V. Asgeirsson, H. Jonsson                     : NEB implementation
   FAccTs GmbH                                   : IRC, NEB, NEB-TS, Multilevel, MM, QM/MM, CI optimization
   S Lehtola, MJT Oliveira, MAL Marques          : LibXC Library


 Your calculation uses the libint2 library for the computation of 2-el integrals
 For citations please refer to: http://libint.valeyev.net

 Your ORCA version has been built with support for libXC version: 4.2.3
 For citations please refer to: https://tddft.org/programs/libxc/

 This ORCA versions uses:
   CBLAS   interface :  Fast vector & matrix operations
   LAPACKE interface :  Fast linear algebra routines
   SCALAPACK package :  Parallel linear algebra routines




***************************************
The coordinates will be read from file: init.xyz
***************************************


Your calculation utilizes the SMD solvation module
Please cite in your paper:
A.V. Marenich, C.J. Cramer, D.G. Truhlar J. Phys. Chem. B, 113, (2009), 6378 

Your calculation utilizes the semiempirical GFN2-xTB method
Please cite in your paper:
C. Bannwarth, Ehlert S., S. Grimme,  J. Chem. Theory Comput., 15, (2019), 1652.
   

----- Orbital basis set information -----
Your calculation utilizes the basis: def2-SVP
   F. Weigend and R. Ahlrichs, Phys. Chem. Chem. Phys. 7, 3297 (2005).

================================================================================
                                        WARNINGS
                       Please study these warnings very carefully!
================================================================================


WARNING: The environment variable RSH_COMMAND is not set!
  ===> : All Displacements for the Numerical Hessian calculation
         will be started on localhost

WARNING: Geometry Optimization
  ===> : Switching off AutoStart
         For restart on a previous wavefunction, please use MOREAD

WARNING: Found dipole moment calculation with XTB calculation
  ===> : Switching off dipole moment calculation


INFO   : the flag for use of LIBINT has been found!

================================================================================
                                       INPUT FILE
================================================================================
NAME = optts.inp
|  1> ! XTB2 OptTS NumFreq IRC
|  2> %maxcore 1150
|  3> 
|  4> * xyzfile 0 1 init.xyz
|  5> 
|  6> %cpcm
|  7>  smd true
|  8>  smdsolvent "ch2cl2"
|  9> end
| 10> 
| 11> %geom
| 12>  maxiter 30
| 13>  trust 0.2
| 14>  calc_hess true
| 15>  numhess true
| 16>  ts_mode
| 17>   {B 6 18}
| 18>  end
| 19>  ts_active_atoms
| 20>   {6 10 12 18 21 22 24 25}
| 21>  end
| 22> end
| 23> 
| 24> %pal
| 25>  nprocs 2
| 26> end
| 27> 
| 28>                          ****END OF INPUT****
================================================================================

                       *****************************
                       * Geometry Optimization Run *
                       *****************************

Geometry optimization settings:
Update method            Update   .... Bofill
Choice of coordinates    CoordSys .... Z-matrix Internals
Initial Hessian          InHess   .... Almoef's Model

Convergence Tolerances:
Energy Change            TolE     ....  5.0000e-06 Eh
Max. Gradient            TolMAXG  ....  3.0000e-04 Eh/bohr
RMS Gradient             TolRMSG  ....  1.0000e-04 Eh/bohr
Max. Displacement        TolMAXD  ....  4.0000e-03 bohr
RMS Displacement         TolRMSD  ....  2.0000e-03 bohr
Strict Convergence                ....  False
------------------------------------------------------------------------------
                        ORCA OPTIMIZATION COORDINATE SETUP
------------------------------------------------------------------------------

The optimization will be done in new redundant internal coordinates
Making redundant internal coordinates   ...  (new redundants) done
Following TS mode number                ...    internal coordinate number: 28
TS-active-atoms for coordinate setup... 6 10 12 18 21 22 24 25 
Evaluating the initial hessian          ...  (Is done on the fly) done
Evaluating the coordinates              ...  done
Calculating the B-matrix                .... done
Calculating the G-matrix                .... done
Diagonalizing the G-matrix              .... done
Small eigenvalue found = 7.413e-03
Small eigenvalue found = 1.364e-02
Small eigenvalue found = 2.128e-02
Small eigenvalue found = 2.718e-02
The first mode is                       ....   98
The number of degrees of freedom        ....  102

    -----------------------------------------------------------------
                    Redundant Internal Coordinates


    -----------------------------------------------------------------
         Definition                    Initial Value    d2E/dq (diagonal element)
    -----------------------------------------------------------------
      1. B(C   1,C   0)                  1.3979         0.000000   
      2. B(C   2,C   1)                  1.3815         0.000000   
      3. B(C   3,C   2)                  1.3869         0.000000   
      4. B(C   4,C   3)                  1.3869         0.000000   
      5. B(C   5,C   4)                  1.3806         0.000000   
      6. B(C   5,C   0)                  1.3999         0.000000   
      7. B(C   6,C   5)                  2.4492         0.000000   
      8. B(C   6,C   0)                  1.4494         0.000000   
      9. B(C   6,C   1)                  2.4976         0.000000   
     10. B(H   7,C   1)                  1.0777         0.000000   
     11. B(H   8,C   5)                  1.0797         0.000000   
     12. B(H   9,C   3)                  1.0797         0.000000   
     13. B(N  10,C   6)                  1.2856         0.000000   
     14. B(N  10,C   1)                  2.9440         0.000000   
     15. B(N  10,C   0)                  2.4278         0.000000   
     16. B(C  11,N  10)                  1.4389         0.000000   
     17. B(C  11,C   6)                  2.4055         0.000000   
     18. B(H  12,C  11)                  2.0948         0.000000   
     19. B(H  12,C   6)                  2.0482         0.000000   
     20. B(H  12,N  10)                  1.0631         0.000000   
     21. B(C  13,C  11)                  1.5304         0.000000   
     22. B(C  13,N  10)                  2.4324         0.000000   
     23. B(H  14,C  11)                  1.0928         0.000000   
     24. B(H  15,N  10)                  2.0610         0.000000   
     25. B(H  15,C  11)                  1.0940         0.000000   
     26. B(H  16,C  13)                  1.0915         0.000000   
     27. B(H  17,C  13)                  1.0918         0.000000   
     28. B(O  18,C   6)                  2.2799         0.000000   
     29. B(O  18,C   0)                  2.8125         0.000000   
     30. B(O  18,N  10)                  2.7730         0.000000   
     31. B(H  19,N  10)                  2.0334         0.000000   
     32. B(H  19,C   6)                  1.0867         0.000000   
     33. B(H  20,O  18)                  0.9604         0.000000   
     34. B(O  21,O  18)                  2.5260         0.000000   
     35. B(H  22,O  18)                  1.0422         0.000000   
     36. B(H  22,O  21)                  1.4841         0.000000   
     37. B(H  23,O  21)                  0.9580         0.000000   
     38. B(O  24,O  21)                  2.4524         0.000000   
     39. B(O  24,N  10)                  2.6252         0.000000   
     40. B(O  24,H  12)                  1.5929         0.000000   
     41. B(H  25,O  24)                  1.1526         0.000000   
     42. B(H  25,O  21)                  1.3002         0.000000   
     43. B(H  25,H  12)                  1.9607         0.000000   
     44. B(H  26,O  24)                  0.9580         0.000000   
     45. B(C  27,C  13)                  1.5274         0.000000   
     46. B(H  28,C  27)                  1.0919         0.000000   
     47. B(H  29,C  27)                  1.0920         0.000000   
     48. B(H  30,C   4)                  1.0796         0.000000   
     49. B(H  30,H  20)                  4.4390         0.000000   
     50. B(H  31,C   2)                  1.0797         0.000000   
     51. B(C  32,C  27)                  1.5244         0.000000   
     52. B(H  33,C  32)                  1.0875         0.000000   
     53. B(H  34,C  32)                  1.0878         0.000000   
     54. B(H  35,C  32)                  1.0878         0.000000   
     55. A(C   1,C   0,C   5)          118.8601         0.000000   
     56. A(C   1,C   0,C   6)          122.5952         0.000000   
     57. A(C   5,C   0,C   6)          118.5287         0.000000   
     58. A(C   0,C   1,H   7)          119.9843         0.000000   
     59. A(C   0,C   1,C   2)          120.2514         0.000000   
     60. A(C   2,C   1,H   7)          119.7598         0.000000   
     61. A(C   1,C   2,C   3)          120.3373         0.000000   
     62. A(C   1,C   2,H  31)          119.7215         0.000000   
     63. A(C   3,C   2,H  31)          119.9411         0.000000   
     64. A(C   2,C   3,H   9)          119.9686         0.000000   
     65. A(C   2,C   3,C   4)          119.9621         0.000000   
     66. A(C   4,C   3,H   9)          120.0689         0.000000   
     67. A(C   5,C   4,H  30)          119.9591         0.000000   
     68. A(C   3,C   4,C   5)          120.0003         0.000000   
     69. A(C   3,C   4,H  30)          120.0406         0.000000   
     70. A(C   0,C   5,H   8)          119.2506         0.000000   
     71. A(C   4,C   5,H   8)          120.1637         0.000000   
     72. A(C   0,C   5,C   4)          120.5807         0.000000   
     73. A(C   0,C   6,H  19)          116.1446         0.000000   
     74. A(C   0,C   6,N  10)          125.0529         0.000000   
     75. A(N  10,C   6,H  19)          117.7458         0.000000   
     76. A(C  11,N  10,H  12)          112.8401         0.000000   
     77. A(C   6,N  10,H  12)          121.1024         0.000000   
     78. A(C   6,N  10,C  11)          123.8951         0.000000   
     79. A(H  14,C  11,H  15)          108.6335         0.000000   
     80. A(C  13,C  11,H  15)          109.2884         0.000000   
     81. A(N  10,C  11,H  15)          108.1447         0.000000   
     82. A(C  13,C  11,H  14)          110.8418         0.000000   
     83. A(N  10,C  11,H  14)          109.9017         0.000000   
     84. A(N  10,C  11,C  13)          109.9731         0.000000   
     85. A(O  24,H  12,H  25)           36.0054         0.000000   
     86. A(N  10,H  12,H  25)          129.9420         0.000000   
     87. A(N  10,H  12,O  24)          162.1976         0.000000   
     88. A(H  16,C  13,H  17)          108.1666         0.000000   
     89. A(C  11,C  13,H  17)          109.2700         0.000000   
     90. A(C  11,C  13,H  16)          108.6661         0.000000   
     91. A(H  17,C  13,C  27)          109.5370         0.000000   
     92. A(H  16,C  13,C  27)          109.6049         0.000000   
     93. A(C  11,C  13,C  27)          111.5283         0.000000   
     94. A(H  20,O  18,H  22)          104.4926         0.000000   
     95. A(H  23,O  21,H  25)          104.0162         0.000000   
     96. A(H  22,O  21,H  23)          106.5651         0.000000   
     97. A(H  22,O  21,H  25)          103.1491         0.000000   
     98. L(O  18,H  22,O  21,H  20, 2) 181.0075         0.000000   
     99. L(O  18,H  22,O  21,H  20, 1) 178.6073         0.000000   
    100. A(H  12,O  24,H  26)          120.9139         0.000000   
    101. A(H  12,O  24,H  25)           89.6660         0.000000   
    102. A(H  25,O  24,H  26)          103.6552         0.000000   
    103. A(H  12,H  25,O  24)           54.3286         0.000000   
    104. A(H  12,H  25,O  21)          124.8878         0.000000   
    105. A(H  29,C  27,C  32)          109.3834         0.000000   
    106. A(H  28,C  27,C  32)          109.4417         0.000000   
    107. A(C  13,C  27,C  32)          111.5207         0.000000   
    108. A(H  28,C  27,H  29)          107.7611         0.000000   
    109. A(C  13,C  27,H  29)          109.4137         0.000000   
    110. A(C  13,C  27,H  28)          109.2417         0.000000   
    111. A(H  34,C  32,H  35)          108.3597         0.000000   
    112. A(H  33,C  32,H  35)          108.3596         0.000000   
    113. A(C  27,C  32,H  35)          110.5334         0.000000   
    114. A(H  33,C  32,H  34)          108.4116         0.000000   
    115. A(C  27,C  32,H  34)          110.6274         0.000000   
    116. A(C  27,C  32,H  33)          110.4726         0.000000   
    117. D(C   2,C   1,C   0,C   6)    179.2519         0.000000   
    118. D(H   7,C   1,C   0,C   6)      0.0211         0.000000   
    119. D(C   2,C   1,C   0,C   5)      0.7308         0.000000   
    120. D(H   7,C   1,C   0,C   5)   -178.5001         0.000000   
    121. D(H  31,C   2,C   1,C   0)   -179.9972         0.000000   
    122. D(H  31,C   2,C   1,H   7)     -0.7646         0.000000   
    123. D(C   3,C   2,C   1,H   7)    179.2862         0.000000   
    124. D(C   3,C   2,C   1,C   0)      0.0536         0.000000   
    125. D(H   9,C   3,C   2,C   1)    179.6563         0.000000   
    126. D(C   4,C   3,C   2,H  31)    179.4771         0.000000   
    127. D(H   9,C   3,C   2,H  31)     -0.2928         0.000000   
    128. D(C   4,C   3,C   2,C   1)     -0.5738         0.000000   
    129. D(C   5,C   4,C   3,H   9)   -179.9374         0.000000   
    130. D(H  30,C   4,C   3,C   2)   -179.6171         0.000000   
    131. D(C   5,C   4,C   3,C   2)      0.2929         0.000000   
    132. D(H  30,C   4,C   3,H   9)      0.1526         0.000000   
    133. D(H   8,C   5,C   4,H  30)     -0.4102         0.000000   
    134. D(C   0,C   5,C   4,H  30)   -179.5831         0.000000   
    135. D(H   8,C   5,C   0,C   6)      1.2246         0.000000   
    136. D(C   0,C   5,C   4,C   3)      0.5068         0.000000   
    137. D(H   8,C   5,C   0,C   1)    179.8066         0.000000   
    138. D(H   8,C   5,C   4,C   3)    179.6798         0.000000   
    139. D(C   4,C   5,C   0,C   1)     -1.0130         0.000000   
    140. D(C   4,C   5,C   0,C   6)   -179.5949         0.000000   
    141. D(H  19,C   6,C   0,C   5)     13.2511         0.000000   
    142. D(H  19,C   6,C   0,C   1)   -165.2748         0.000000   
    143. D(N  10,C   6,C   0,C   5)   -178.8178         0.000000   
    144. D(N  10,C   6,C   0,C   1)      2.6564         0.000000   
    145. D(H  12,N  10,C   6,C   0)     24.1779         0.000000   
    146. D(C  11,N  10,C   6,H  19)     -5.9905         0.000000   
    147. D(C  11,N  10,C   6,C   0)   -173.7464         0.000000   
    148. D(H  12,N  10,C   6,H  19)   -168.0662         0.000000   
    149. D(H  15,C  11,N  10,H  12)     52.9489         0.000000   
    150. D(H  14,C  11,N  10,H  12)    171.3885         0.000000   
    151. D(H  14,C  11,N  10,C   6)      8.0035         0.000000   
    152. D(C  13,C  11,N  10,H  12)    -66.3233         0.000000   
    153. D(H  15,C  11,N  10,C   6)   -110.4361         0.000000   
    154. D(C  13,C  11,N  10,C   6)    130.2917         0.000000   
    155. D(H  25,H  12,N  10,C  11)    -91.3580         0.000000   
    156. D(H  25,H  12,N  10,C   6)     72.5492         0.000000   
    157. D(O  24,H  12,N  10,C  11)    -58.8562         0.000000   
    158. D(O  24,H  12,N  10,C   6)    105.0510         0.000000   
    159. D(C  27,C  13,C  11,H  15)     59.1119         0.000000   
    160. D(C  27,C  13,C  11,H  14)    -60.5875         0.000000   
    161. D(C  27,C  13,C  11,N  10)    177.6828         0.000000   
    162. D(H  17,C  13,C  11,H  15)   -179.6400         0.000000   
    163. D(H  17,C  13,C  11,H  14)     60.6606         0.000000   
    164. D(H  17,C  13,C  11,N  10)    -61.0691         0.000000   
    165. D(H  16,C  13,C  11,H  15)    -61.8178         0.000000   
    166. D(H  16,C  13,C  11,H  14)    178.4828         0.000000   
    167. D(H  16,C  13,C  11,N  10)     56.7531         0.000000   
    168. D(H  25,O  21,O  18,H  20)   -132.4908         0.000000   
    169. D(H  23,O  21,O  18,H  20)    118.0462         0.000000   
    170. D(H  12,O  24,O  21,H  22)      0.5637         0.000000   
    171. D(H  12,O  24,O  21,H  23)    111.8945         0.000000   
    172. D(H  26,O  24,O  21,H  22)    122.1821         0.000000   
    173. D(H  26,O  24,O  21,H  23)   -126.4872         0.000000   
    174. D(H  26,O  24,H  12,H  25)   -105.7644         0.000000   
    175. D(H  26,O  24,H  12,N  10)   -150.2545         0.000000   
    176. D(H  25,O  24,H  12,N  10)    -44.4901         0.000000   
    177. D(O  24,H  25,H  12,N  10)    163.7725         0.000000   
    178. D(O  21,H  25,H  12,O  24)    177.5391         0.000000   
    179. D(O  21,H  25,H  12,N  10)    -18.6884         0.000000   
    180. D(H  12,H  25,O  24,H  26)    121.8223         0.000000   
    181. D(H  12,H  25,O  21,H  22)      2.2148         0.000000   
    182. D(H  12,H  25,O  21,H  23)    113.3200         0.000000   
    183. D(C  32,C  27,C  13,H  16)    -60.0708         0.000000   
    184. D(C  32,C  27,C  13,C  11)    179.5491         0.000000   
    185. D(H  29,C  27,C  13,H  17)    -62.6906         0.000000   
    186. D(H  29,C  27,C  13,H  16)    178.7822         0.000000   
    187. D(H  29,C  27,C  13,C  11)     58.4021         0.000000   
    188. D(H  28,C  27,C  13,H  17)    179.5610         0.000000   
    189. D(H  28,C  27,C  13,H  16)     61.0337         0.000000   
    190. D(C  32,C  27,C  13,H  17)     58.4565         0.000000   
    191. D(H  28,C  27,C  13,C  11)    -59.3464         0.000000   
    192. D(H  35,C  32,C  27,H  29)   -179.1005         0.000000   
    193. D(H  35,C  32,C  27,H  28)    -61.2530         0.000000   
    194. D(H  35,C  32,C  27,C  13)     59.7349         0.000000   
    195. D(H  34,C  32,C  27,H  29)     60.8745         0.000000   
    196. D(H  34,C  32,C  27,H  28)    178.7219         0.000000   
    197. D(H  34,C  32,C  27,C  13)    -60.2902         0.000000   
    198. D(H  33,C  32,C  27,H  29)    -59.1759         0.000000   
    199. D(H  33,C  32,C  27,H  28)     58.6715         0.000000   
    200. D(H  33,C  32,C  27,C  13)    179.6594         0.000000   
    -----------------------------------------------------------------

Number of atoms                         .... 36
Number of degrees of freedom            .... 200

         *************************************************************
         *                GEOMETRY OPTIMIZATION CYCLE   1            *
         *************************************************************
      -----------------------------------------------------------      
     |                   =====================                   |     
     |                           x T B                           |     
     |                   =====================                   |     
     |                         S. Grimme                         |     
     |          Mulliken Center for Theoretical Chemistry        |     
     |                    University of Bonn                     |     
      -----------------------------------------------------------      

   * xtb version 6.3.2 (30e43eb) compiled by 'schneider@apollo14' on 2020-08-08

   xtb is free software: you can redistribute it and/or modify it under
   the terms of the GNU Lesser General Public License as published by
   the Free Software Foundation, either version 3 of the License, or
   (at your option) any later version.
   
   xtb is distributed in the hope that it will be useful,
   but WITHOUT ANY WARRANTY; without even the implied warranty of
   MERCHANTABILITY or FITNESS FOR A PARTICULAR PURPOSE.  See the
   GNU Lesser General Public License for more details.
   
   Cite this work as:
   * S. Grimme, C. Bannwarth, P. Shushkov, J. Chem. Theory Comput., 2017,
     13, 1989-2009. DOI: 10.1021/acs.jctc.7b00118
   * C. Bannwarth, S. Ehlert and S. Grimme., J. Chem. Theory Comput., 2019,
     15, 1652-1671. DOI: 10.1021/acs.jctc.8b01176
   * P. Pracht, E. Caldeweyher, S. Ehlert, S. Grimme, ChemRxiv, 2019, preprint.
     DOI: 10.26434/chemrxiv.8326202.v1
   
   for GFN-FF:
   * S. Spicher and S. Grimme, Angew. Chem. Int. Ed., 2020,
     DOI: 10.1002/anie.202004239
   
   for DFT-D4:
   * E. Caldeweyher, C. Bannwarth and S. Grimme, J. Chem. Phys., 2017,
     147, 034112. DOI: 10.1063/1.4993215
   * E. Caldeweyher, S. Ehlert, A. Hansen, H. Neugebauer, S. Spicher,
     C. Bannwarth and S. Grimme, J. Chem. Phys., 2019, 150, 154122.
     DOI: 10.1063/1.5090222
   
   for sTDA-xTB:
   * S. Grimme and C. Bannwarth, J. Chem. Phys., 2016, 145, 054103.
     DOI: 10.1063/1.4959605
   
   in the mass-spec context:
   * V. Asgeirsson, C. Bauer and S. Grimme, Chem. Sci., 2017, 8, 4879.
     DOI: 10.1039/c7sc00601b
   * J. Koopman and S. Grimme, ACS Omega 2019, 4, 12, 15120-15133.
     DOI: 10.1021/acsomega.9b02011
   
   for metadynamics refer to:
   * S. Grimme, J. Chem. Theory Comput., 2019, 155, 2847-2862
     DOI: 10.1021/acs.jctc.9b00143
   
   with help from (in alphabetical order)
   C. Bannwarth, F. Bohle, G. Brandenburg, E. Caldeweyher, M. Checinski,
   S. Dohm, S. Ehlert, S. Ehrlich, F. März, H. Neugebauer, J. Pisarek,
   P. Pracht, P. Shushkov, and S. Spicher.
   
 * started run on 2020/08/14 at 10:57:03.824     

           -------------------------------------------------
          |                Calculation Setup                |
           -------------------------------------------------

          program call               : /opt/orca/otool_xtb optts_XTB.xyz --grad -c 0 -u 0 -P 2 --namespace optts --gbsa CH2Cl2
          calculation namespace      : optts
          coordinate file            : optts_XTB.xyz
          omp threads                :                     2
          number of atoms            :                    36
          number of electrons        :                    88
          charge                     :                     0
          spin                       :                   0.0
          first test random number   :      0.60725393294948

   ID    Z sym.   atoms
    1    6 C      1-7, 12, 14, 28, 33
    2    1 H      8-10, 13, 15-18, 20, 21, 23, 24, 26, 27, 29-32, 34-36
    3    7 N      11
    4    8 O      19, 22, 25

molecular fragmentation (1/2 indicates fragments):
111111111111111111212222222111111111
# atoms in fragment 1/2:    28     8
 fragment masses (1/2) :      162.25       53.04
CMA distance (Bohr)    :   5.334
constraining FC (au)   :  0.0500
########################################################################
[WARNING] Please study the warnings concerning your input carefully
-1- prog_main_parseArguments: Process number higher than OMP_NUM_THREADS, I hope you know what you are doing.
########################################################################

           -------------------------------------------------
          |                 G F N 2 - x T B                 |
           -------------------------------------------------

        Reference                      10.1021/acs.jctc.8b01176
      * Hamiltonian:
        H0-scaling (s, p, d)           1.850000    2.230000    2.230000
        zeta-weighting                 0.500000
      * Dispersion:
        s8                             2.700000
        a1                             0.520000
        a2                             5.000000
        s9                             5.000000
      * Repulsion:
        kExp                           1.500000    1.000000
        rExp                           1.000000
      * Coulomb:
        alpha                          2.000000
        third order                    shell-resolved
        anisotropic                    true
        a3                             3.000000
        a5                             4.000000
        cn-shift                       1.200000
        cn-exp                         4.000000
        max-rad                        5.000000

      * Solvation model:               GBSA
        Solvent                        CH2Cl2
        Parameter file                 internal GFN2-xTB/GBSA
        Dielectric constant                8.9300E+00
        Reference state                gsolv [1 M gas/solution]
        Free energy shift                  4.4408E-03 Eh       2.7867E+00 kcal/mol
        Temperature                        2.9815E+02 K
        Density                            1.3300E+00 kg/L
        Solvent mass                       8.4930E+01 g/mol
        Interaction kernel             Still
        Born radius scaling (c1)           1.4917E+00
        Born radii integrator          GBOBC
        Born offset                        0.0000E+00 a0       0.0000E+00 AA
        H-bond correction              false
        Ion screening                  false
        Surface tension                    1.0000E-05 Eh       1.5569E+01 dyn/cm
        Grid points                               230 per atom

          ...................................................
          :                      SETUP                      :
          :.................................................:
          :  # basis functions                  81          :
          :  # atomic orbitals                  81          :
          :  # shells                           51          :
          :  # electrons                        88          :
          :  max. iterations                   250          :
          :  Hamiltonian                  GFN2-xTB          :
          :  restarted?                      false          :
          :  GBSA solvation                   true          :
          :  PC potential                    false          :
          :  electronic temp.          300.0000000     K    :
          :  accuracy                    1.0000000          :
          :  -> integral cutoff          0.2500000E+02      :
          :  -> integral neglect         0.1000000E-07      :
          :  -> SCF convergence          0.1000000E-05 Eh   :
          :  -> wf. convergence          0.1000000E-03 e    :
          :  Broyden damping             0.4000000          :
          ...................................................

 iter      E             dE          RMSdq      gap      omega  full diag
   1    -49.9093902 -0.499094E+02  0.399E+00    3.49       0.0  T
   2    -49.9874295 -0.780393E-01  0.235E+00    3.05       1.0  T
   3    -49.9868346  0.594923E-03  0.929E-01    1.96       1.0  T
   4    -49.9923732 -0.553862E-02  0.379E-01    2.09       1.0  T
   5    -49.9954152 -0.304196E-02  0.787E-02    2.11       1.0  T
   6    -49.9954544 -0.392163E-04  0.339E-02    2.17       1.0  T
   7    -49.9954596 -0.517877E-05  0.168E-02    2.18       1.0  T
   8    -49.9954625 -0.289659E-05  0.528E-03    2.18       3.2  T
   9    -49.9954626 -0.163025E-06  0.166E-03    2.18      10.0  T
  10    -49.9954627 -0.165684E-07  0.843E-04    2.18      19.8  T
  11    -49.9954627 -0.252948E-08  0.387E-04    2.18      43.0  T

   *** convergence criteria satisfied after 11 iterations ***

         #    Occupation            Energy/Eh            Energy/eV
      -------------------------------------------------------------
         1        2.0000           -0.6900215             -18.7764
       ...           ...                  ...                  ...
        38        2.0000           -0.4274171             -11.6306
        39        2.0000           -0.4256333             -11.5821
        40        2.0000           -0.4221589             -11.4875
        41        2.0000           -0.4190532             -11.4030
        42        2.0000           -0.4093576             -11.1392
        43        2.0000           -0.3863144             -10.5121
        44        2.0000           -0.3798213             -10.3355 (HOMO)
        45                         -0.2997379              -8.1563 (LUMO)
        46                         -0.2391408              -6.5074
        47                         -0.2087941              -5.6816
        48                         -0.1006778              -2.7396
        49                         -0.0084455              -0.2298
       ...                                ...                  ...
        81                          0.6550503              17.8248
      -------------------------------------------------------------
                  HL-Gap            0.0800834 Eh            2.1792 eV
             Fermi-level           -0.3397796 Eh           -9.2459 eV

 SCC (total)                   0 d,  0 h,  0 min,  1.626 sec
 SCC setup                      ...        0 min,  0.005 sec (  0.337%)
 Dispersion                     ...        0 min,  0.000 sec (  0.024%)
 classical contributions        ...        0 min,  0.004 sec (  0.253%)
 integral evaluation            ...        0 min,  0.029 sec (  1.813%)
 iterations                     ...        0 min,  1.497 sec ( 92.029%)
 molecular gradient             ...        0 min,  0.074 sec (  4.542%)
 printout                       ...        0 min,  0.016 sec (  0.998%)

         :::::::::::::::::::::::::::::::::::::::::::::::::::::
         ::                     SUMMARY                     ::
         :::::::::::::::::::::::::::::::::::::::::::::::::::::
         :: total energy             -49.344169395359 Eh    ::
         :: total w/o Gsasa/hb       -49.325821641567 Eh    ::
         :: gradient norm              0.002385150173 Eh/a0 ::
         :: HOMO-LUMO gap              2.179179422047 eV    ::
         ::.................................................::
         :: SCC energy               -49.995462667907 Eh    ::
         :: -> isotropic ES            0.181184623097 Eh    ::
         :: -> anisotropic ES         -0.025679923229 Eh    ::
         :: -> anisotropic XC          0.023071110448 Eh    ::
         :: -> dispersion             -0.028635260708 Eh    ::
         :: -> Gsolv                  -0.043359373032 Eh    ::
         ::    -> Gborn               -0.025011619240 Eh    ::
         ::    -> Gsasa               -0.022788582966 Eh    ::
         ::    -> Ghb                  0.000000000000 Eh    ::
         ::    -> Gshift               0.004440829173 Eh    ::
         :: repulsion energy           0.651066702859 Eh    ::
         :: add. restraining           0.000000000000 Eh    ::
         :: total charge              -0.000000000000 e     ::
         :::::::::::::::::::::::::::::::::::::::::::::::::::::

           -------------------------------------------------
          |                Property Printout                |
           -------------------------------------------------

    * Orbital Energies and Occupations

         #    Occupation            Energy/Eh            Energy/eV
      -------------------------------------------------------------
         1        2.0000           -0.6900215             -18.7764
       ...           ...                  ...                  ...
        32        2.0000           -0.4703476             -12.7988
        33        2.0000           -0.4533790             -12.3371
        34        2.0000           -0.4513456             -12.2817
        35        2.0000           -0.4431665             -12.0592
        36        2.0000           -0.4388117             -11.9407
        37        2.0000           -0.4357796             -11.8582
        38        2.0000           -0.4274171             -11.6306
        39        2.0000           -0.4256333             -11.5821
        40        2.0000           -0.4221589             -11.4875
        41        2.0000           -0.4190532             -11.4030
        42        2.0000           -0.4093576             -11.1392
        43        2.0000           -0.3863144             -10.5121
        44        2.0000           -0.3798213             -10.3355 (HOMO)
        45                         -0.2997379              -8.1563 (LUMO)
        46                         -0.2391408              -6.5074
        47                         -0.2087941              -5.6816
        48                         -0.1006778              -2.7396
        49                         -0.0084455              -0.2298
        50                          0.0348070               0.9471
        51                          0.0800451               2.1781
        52                          0.0864405               2.3522
        53                          0.1039180               2.8278
        54                          0.1129851               3.0745
        55                          0.1219808               3.3193
       ...                                ...                  ...
        81                          0.6550503              17.8248
      -------------------------------------------------------------
                  HL-Gap            0.0800834 Eh            2.1792 eV
             Fermi-level           -0.3397796 Eh           -9.2459 eV

     #   Z          covCN         q      C6AA      α(0)
     1   6 C        2.972     0.015    27.681     8.630
     2   6 C        2.922    -0.024    28.605     8.771
     3   6 C        2.917    -0.023    28.571     8.765
     4   6 C        2.920    -0.017    28.424     8.743
     5   6 C        2.916    -0.024    28.593     8.769
     6   6 C        2.927    -0.023    28.583     8.768
     7   6 C        2.847     0.091    25.960     8.350
     8   1 H        0.926     0.058     2.224     2.332
     9   1 H        0.926     0.061     2.188     2.313
    10   1 H        0.926     0.056     2.250     2.346
    11   7 N        2.681    -0.062    22.436     7.035
    12   6 C        3.749    -0.016    20.927     6.524
    13   1 H        0.858     0.272     0.804     1.404
    14   6 C        3.805    -0.070    21.831     6.652
    15   1 H        0.924     0.071     2.078     2.254
    16   1 H        0.924     0.077     2.008     2.216
    17   1 H        0.924     0.055     2.263     2.352
    18   1 H        0.924     0.055     2.259     2.350
    19   8 O        1.595    -0.631    25.951     6.875
    20   1 H        0.925     0.101     1.774     2.083
    21   1 H        0.805     0.276     0.797     1.402
    22   8 O        1.149    -0.818    31.875     7.579
    23   1 H        0.813     0.323     0.654     1.270
    24   1 H        0.806     0.215     1.045     1.606
    25   8 O        1.480    -0.725    28.527     7.201
    26   1 H        0.987     0.317     0.657     1.267
    27   1 H        0.806     0.245     0.914     1.502
    28   6 C        3.801    -0.057    21.593     6.616
    29   1 H        0.924     0.038     2.481     2.463
    30   1 H        0.924     0.042     2.423     2.434
    31   1 H        0.926     0.057     2.240     2.341
    32   1 H        0.926     0.052     2.292     2.367
    33   6 C        3.752    -0.107    22.613     6.781
    34   1 H        0.925     0.040     2.448     2.447
    35   1 H        0.925     0.041     2.434     2.440
    36   1 H        0.925     0.038     2.474     2.459

 Mol. C6AA /au·bohr⁶  :      10849.884593
 Mol. C8AA /au·bohr⁸  :     240022.904848
 Mol. α(0) /au        :        159.706446


Wiberg/Mayer (AO) data.
largest (>0.10) Wiberg bond orders for each atom

 ---------------------------------------------------------------------------
     #   Z sym  total        # sym  WBO       # sym  WBO       # sym  WBO
 ---------------------------------------------------------------------------
     1   6 C    3.986 --     2 C    1.359     6 C    1.356     7 C    1.110
     2   6 C    3.989 --     3 C    1.464     1 C    1.359     8 H    0.960
                             5 C    0.103
     3   6 C    3.991 --     2 C    1.464     4 C    1.427    32 H    0.969
                             6 C    0.103
     4   6 C    3.985 --     3 C    1.427     5 C    1.426    10 H    0.970
     5   6 C    3.990 --     6 C    1.466     4 C    1.426    31 H    0.969
                             2 C    0.103
     6   6 C    3.985 --     5 C    1.466     1 C    1.356     9 H    0.966
                             3 C    0.103
     7   6 C    3.929 --    11 N    1.629     1 C    1.110    20 H    0.944
                            19 O    0.112
     8   1 H    0.997 --     2 C    0.960
     9   1 H    0.996 --     6 C    0.966
    10   1 H    0.996 --     4 C    0.970
    11   7 N    3.636 --     7 C    1.629    12 C    0.996    13 H    0.766
    12   6 C    3.956 --    11 N    0.996    14 C    0.988    15 H    0.968
                            16 H    0.951
    13   1 H    0.926 --    11 N    0.766    25 O    0.123
    14   6 C    3.987 --    28 C    1.005    12 C    0.988    18 H    0.976
                            17 H    0.975
    15   1 H    0.995 --    12 C    0.968
    16   1 H    0.990 --    12 C    0.951
    17   1 H    0.997 --    14 C    0.975
    18   1 H    0.997 --    14 C    0.976
    19   8 O    1.907 --    21 H    0.919    23 H    0.718     7 C    0.112
    20   1 H    0.989 --     7 C    0.944
    21   1 H    0.924 --    19 O    0.919
    22   8 O    1.660 --    24 H    0.952    26 H    0.347    23 H    0.175
                            25 O    0.111
    23   1 H    0.896 --    19 O    0.718    22 O    0.175
    24   1 H    0.954 --    22 O    0.952
    25   8 O    1.793 --    27 H    0.932    26 H    0.550    13 H    0.123
                            22 O    0.111
    26   1 H    0.899 --    25 O    0.550    22 O    0.347
    27   1 H    0.940 --    25 O    0.932
    28   6 C    3.995 --    33 C    1.019    14 C    1.005    29 H    0.978
                            30 H    0.978
    29   1 H    0.999 --    28 C    0.978
    30   1 H    0.998 --    28 C    0.978
    31   1 H    0.996 --     5 C    0.969
    32   1 H    0.997 --     3 C    0.969
    33   6 C    3.995 --    28 C    1.019    36 H    0.988    35 H    0.987
                            34 H    0.987
    34   1 H    0.998 --    33 C    0.987
    35   1 H    0.998 --    33 C    0.987
    36   1 H    0.999 --    33 C    0.988
 ---------------------------------------------------------------------------

Topologies differ in total number of bonds
Writing topology from bond orders to xtbtopo.mol

molecular dipole:
                 x           y           z       tot (Debye)
 q only:        0.965      -3.273       0.693
   full:        1.051      -2.729       0.713       7.650
molecular quadrupole (traceless):
                xx          xy          yy          xz          yz          zz
 q only:        0.391      56.541     -22.744      -2.410      20.713      22.353
  q+dip:       -3.035      45.397     -19.271      -5.031      19.958      22.307
   full:       -4.207      46.991     -17.218      -4.923      18.261      21.425


           -------------------------------------------------
          | TOTAL ENERGY              -49.344169395359 Eh   |
          | GRADIENT NORM               0.002385150173 Eh/α |
          | HOMO-LUMO GAP               2.179179422047 eV   |
           -------------------------------------------------

------------------------------------------------------------------------
 * finished run on 2020/08/14 at 10:57:05.558     
------------------------------------------------------------------------
 total:
 * wall-time:     0 d,  0 h,  0 min,  1.734 sec
 *  cpu-time:     0 d,  0 h,  0 min,  6.773 sec
 * ratio c/w:     3.906 speedup
 SCF:
 * wall-time:     0 d,  0 h,  0 min,  1.628 sec
 *  cpu-time:     0 d,  0 h,  0 min,  6.418 sec
 * ratio c/w:     3.943 speedup


-------------------------   --------------------
FINAL SINGLE POINT ENERGY       -49.344169395360
-------------------------   --------------------


----------------------------------------------------------------------------
                           ORCA NUMERICAL FREQUENCIES
                              (2-process run)
----------------------------------------------------------------------------

Number of atoms                ... 36
Central differences            ... used
Number of displacements        ... 216
Numerical increment            ... 5.000e-03 bohr
IR-spectrum generation         ... on
Raman-spectrum generation      ... off
Surface Crossing Hessian       ... off
List of participating nodes    ...  optts.hostnames

The output will be reduced. Please look at the following files:
SCF program output             ... >optts.lastscf
Integral program output        ... >optts.lastint
Gradient program output        ... >optts.lastgrad
Dipole moment program output   ... >optts.lastmom
AutoCI program output          ... >optts.lastautoci


         <<< Energy and Gradient at the input geometry >>>

        <<< Energy and Gradient at displaced geometries >>>
             <<<Displacing   1/coordinate 2 (+)>>>
             <<<Displacing   1/coordinate 1 (+)>>>
             <<<Displacing   1/coordinate 2 (-)>>>
             <<<Displacing   1/coordinate 1 (-)>>>
             <<<Displacing   1/coordinate 3 (+)>>>
             <<<Displacing   2/coordinate 1 (+)>>>
             <<<Displacing   2/coordinate 1 (-)>>>
             <<<Displacing   1/coordinate 3 (-)>>>
             <<<Displacing   2/coordinate 2 (+)>>>
             <<<Displacing   2/coordinate 3 (+)>>>
             <<<Displacing   2/coordinate 3 (-)>>>
             <<<Displacing   2/coordinate 2 (-)>>>
             <<<Displacing   3/coordinate 1 (+)>>>
             <<<Displacing   3/coordinate 1 (-)>>>
             <<<Displacing   3/coordinate 2 (+)>>>
             <<<Displacing   3/coordinate 2 (-)>>>
             <<<Displacing   3/coordinate 3 (+)>>>
             <<<Displacing   3/coordinate 3 (-)>>>
             <<<Displacing   4/coordinate 1 (+)>>>
             <<<Displacing   4/coordinate 1 (-)>>>
             <<<Displacing   4/coordinate 2 (+)>>>
             <<<Displacing   4/coordinate 2 (-)>>>
             <<<Displacing   4/coordinate 3 (+)>>>
             <<<Displacing   4/coordinate 3 (-)>>>
             <<<Displacing   5/coordinate 1 (+)>>>
             <<<Displacing   5/coordinate 1 (-)>>>
             <<<Displacing   5/coordinate 2 (+)>>>
             <<<Displacing   5/coordinate 2 (-)>>>
             <<<Displacing   5/coordinate 3 (+)>>>
             <<<Displacing   5/coordinate 3 (-)>>>
             <<<Displacing   6/coordinate 1 (+)>>>
             <<<Displacing   6/coordinate 1 (-)>>>
             <<<Displacing   6/coordinate 2 (+)>>>
             <<<Displacing   6/coordinate 2 (-)>>>
             <<<Displacing   6/coordinate 3 (+)>>>
             <<<Displacing   6/coordinate 3 (-)>>>
             <<<Displacing   7/coordinate 1 (+)>>>
             <<<Displacing   7/coordinate 1 (-)>>>
             <<<Displacing   7/coordinate 2 (+)>>>
             <<<Displacing   7/coordinate 2 (-)>>>
             <<<Displacing   7/coordinate 3 (+)>>>
             <<<Displacing   7/coordinate 3 (-)>>>
             <<<Displacing   8/coordinate 1 (+)>>>
             <<<Displacing   8/coordinate 1 (-)>>>
             <<<Displacing   8/coordinate 2 (+)>>>
             <<<Displacing   8/coordinate 2 (-)>>>
             <<<Displacing   8/coordinate 3 (+)>>>
             <<<Displacing   8/coordinate 3 (-)>>>
             <<<Displacing   9/coordinate 1 (+)>>>
             <<<Displacing   9/coordinate 1 (-)>>>
             <<<Displacing   9/coordinate 2 (+)>>>
             <<<Displacing   9/coordinate 2 (-)>>>
             <<<Displacing   9/coordinate 3 (+)>>>
             <<<Displacing   9/coordinate 3 (-)>>>
             <<<Displacing  10/coordinate 1 (+)>>>
             <<<Displacing  10/coordinate 1 (-)>>>
             <<<Displacing  10/coordinate 2 (+)>>>
             <<<Displacing  10/coordinate 2 (-)>>>
             <<<Displacing  10/coordinate 3 (+)>>>
             <<<Displacing  10/coordinate 3 (-)>>>
             <<<Displacing  11/coordinate 1 (+)>>>
             <<<Displacing  11/coordinate 1 (-)>>>
             <<<Displacing  11/coordinate 2 (+)>>>
             <<<Displacing  11/coordinate 2 (-)>>>
             <<<Displacing  11/coordinate 3 (+)>>>
             <<<Displacing  11/coordinate 3 (-)>>>
             <<<Displacing  12/coordinate 1 (+)>>>
             <<<Displacing  12/coordinate 1 (-)>>>
             <<<Displacing  12/coordinate 2 (+)>>>
             <<<Displacing  12/coordinate 3 (+)>>>
             <<<Displacing  12/coordinate 2 (-)>>>
             <<<Displacing  12/coordinate 3 (-)>>>
             <<<Displacing  13/coordinate 2 (+)>>>
             <<<Displacing  13/coordinate 1 (+)>>>
             <<<Displacing  13/coordinate 2 (-)>>>
             <<<Displacing  13/coordinate 1 (-)>>>
             <<<Displacing  13/coordinate 3 (+)>>>
             <<<Displacing  13/coordinate 3 (-)>>>
             <<<Displacing  14/coordinate 1 (+)>>>
             <<<Displacing  14/coordinate 1 (-)>>>
             <<<Displacing  14/coordinate 2 (+)>>>
             <<<Displacing  14/coordinate 2 (-)>>>
             <<<Displacing  14/coordinate 3 (+)>>>
             <<<Displacing  14/coordinate 3 (-)>>>
             <<<Displacing  15/coordinate 1 (+)>>>
             <<<Displacing  15/coordinate 1 (-)>>>
             <<<Displacing  15/coordinate 2 (+)>>>
             <<<Displacing  15/coordinate 2 (-)>>>
             <<<Displacing  15/coordinate 3 (+)>>>
             <<<Displacing  15/coordinate 3 (-)>>>
             <<<Displacing  16/coordinate 1 (+)>>>
             <<<Displacing  16/coordinate 1 (-)>>>
             <<<Displacing  16/coordinate 2 (+)>>>
             <<<Displacing  16/coordinate 2 (-)>>>
             <<<Displacing  16/coordinate 3 (+)>>>
             <<<Displacing  16/coordinate 3 (-)>>>
             <<<Displacing  17/coordinate 1 (+)>>>
             <<<Displacing  17/coordinate 1 (-)>>>
             <<<Displacing  17/coordinate 2 (+)>>>
             <<<Displacing  17/coordinate 2 (-)>>>
             <<<Displacing  17/coordinate 3 (+)>>>
             <<<Displacing  18/coordinate 1 (+)>>>
             <<<Displacing  17/coordinate 3 (-)>>>
             <<<Displacing  18/coordinate 1 (-)>>>
             <<<Displacing  18/coordinate 3 (+)>>>
             <<<Displacing  18/coordinate 2 (+)>>>
             <<<Displacing  18/coordinate 3 (-)>>>
             <<<Displacing  18/coordinate 2 (-)>>>
             <<<Displacing  19/coordinate 1 (+)>>>
             <<<Displacing  19/coordinate 2 (+)>>>
             <<<Displacing  19/coordinate 1 (-)>>>
             <<<Displacing  19/coordinate 2 (-)>>>
             <<<Displacing  20/coordinate 1 (+)>>>
             <<<Displacing  19/coordinate 3 (+)>>>
             <<<Displacing  20/coordinate 1 (-)>>>
             <<<Displacing  19/coordinate 3 (-)>>>
             <<<Displacing  20/coordinate 2 (+)>>>
             <<<Displacing  20/coordinate 3 (+)>>>
             <<<Displacing  20/coordinate 3 (-)>>>
             <<<Displacing  20/coordinate 2 (-)>>>
             <<<Displacing  21/coordinate 2 (+)>>>
             <<<Displacing  21/coordinate 2 (-)>>>
             <<<Displacing  21/coordinate 1 (+)>>>
             <<<Displacing  21/coordinate 1 (-)>>>
             <<<Displacing  22/coordinate 1 (+)>>>
             <<<Displacing  21/coordinate 3 (+)>>>
             <<<Displacing  21/coordinate 3 (-)>>>
             <<<Displacing  22/coordinate 1 (-)>>>
             <<<Displacing  22/coordinate 3 (+)>>>
             <<<Displacing  22/coordinate 2 (+)>>>
             <<<Displacing  22/coordinate 2 (-)>>>
             <<<Displacing  22/coordinate 3 (-)>>>
             <<<Displacing  23/coordinate 1 (+)>>>
             <<<Displacing  23/coordinate 2 (+)>>>
             <<<Displacing  23/coordinate 1 (-)>>>
             <<<Displacing  23/coordinate 2 (-)>>>
             <<<Displacing  23/coordinate 3 (+)>>>
             <<<Displacing  24/coordinate 1 (+)>>>
             <<<Displacing  23/coordinate 3 (-)>>>
             <<<Displacing  24/coordinate 1 (-)>>>
             <<<Displacing  24/coordinate 2 (+)>>>
             <<<Displacing  24/coordinate 2 (-)>>>
             <<<Displacing  24/coordinate 3 (+)>>>
             <<<Displacing  24/coordinate 3 (-)>>>
             <<<Displacing  25/coordinate 1 (+)>>>
             <<<Displacing  25/coordinate 2 (+)>>>
             <<<Displacing  25/coordinate 2 (-)>>>
             <<<Displacing  25/coordinate 1 (-)>>>
             <<<Displacing  25/coordinate 3 (+)>>>
             <<<Displacing  26/coordinate 1 (+)>>>
             <<<Displacing  25/coordinate 3 (-)>>>
             <<<Displacing  26/coordinate 1 (-)>>>
             <<<Displacing  26/coordinate 2 (+)>>>
             <<<Displacing  26/coordinate 3 (+)>>>
             <<<Displacing  26/coordinate 3 (-)>>>
             <<<Displacing  26/coordinate 2 (-)>>>
             <<<Displacing  27/coordinate 1 (+)>>>
             <<<Displacing  27/coordinate 1 (-)>>>
             <<<Displacing  27/coordinate 2 (+)>>>
             <<<Displacing  27/coordinate 2 (-)>>>
             <<<Displacing  27/coordinate 3 (+)>>>
             <<<Displacing  28/coordinate 1 (+)>>>
             <<<Displacing  27/coordinate 3 (-)>>>
             <<<Displacing  28/coordinate 1 (-)>>>
             <<<Displacing  28/coordinate 2 (+)>>>
             <<<Displacing  28/coordinate 3 (+)>>>
             <<<Displacing  28/coordinate 2 (-)>>>
             <<<Displacing  28/coordinate 3 (-)>>>
             <<<Displacing  29/coordinate 1 (+)>>>
             <<<Displacing  29/coordinate 2 (+)>>>
             <<<Displacing  29/coordinate 1 (-)>>>
             <<<Displacing  29/coordinate 2 (-)>>>
             <<<Displacing  30/coordinate 1 (+)>>>
             <<<Displacing  29/coordinate 3 (+)>>>
             <<<Displacing  30/coordinate 1 (-)>>>
             <<<Displacing  29/coordinate 3 (-)>>>
             <<<Displacing  30/coordinate 2 (+)>>>
             <<<Displacing  30/coordinate 3 (+)>>>
             <<<Displacing  30/coordinate 3 (-)>>>
             <<<Displacing  30/coordinate 2 (-)>>>
             <<<Displacing  31/coordinate 2 (+)>>>
             <<<Displacing  31/coordinate 1 (+)>>>
             <<<Displacing  31/coordinate 2 (-)>>>
             <<<Displacing  31/coordinate 1 (-)>>>
             <<<Displacing  31/coordinate 3 (+)>>>
             <<<Displacing  32/coordinate 1 (+)>>>
             <<<Displacing  31/coordinate 3 (-)>>>
             <<<Displacing  32/coordinate 1 (-)>>>
             <<<Displacing  32/coordinate 3 (+)>>>
             <<<Displacing  32/coordinate 3 (-)>>>
             <<<Displacing  32/coordinate 2 (+)>>>
             <<<Displacing  32/coordinate 2 (-)>>>
             <<<Displacing  33/coordinate 1 (+)>>>
             <<<Displacing  33/coordinate 2 (+)>>>
             <<<Displacing  33/coordinate 1 (-)>>>
             <<<Displacing  33/coordinate 2 (-)>>>
             <<<Displacing  33/coordinate 3 (+)>>>
             <<<Displacing  34/coordinate 1 (+)>>>
             <<<Displacing  33/coordinate 3 (-)>>>
             <<<Displacing  34/coordinate 1 (-)>>>
             <<<Displacing  34/coordinate 2 (+)>>>
             <<<Displacing  34/coordinate 3 (+)>>>
             <<<Displacing  34/coordinate 2 (-)>>>
             <<<Displacing  34/coordinate 3 (-)>>>
             <<<Displacing  35/coordinate 2 (+)>>>
             <<<Displacing  35/coordinate 1 (+)>>>
             <<<Displacing  35/coordinate 2 (-)>>>
             <<<Displacing  35/coordinate 1 (-)>>>
             <<<Displacing  36/coordinate 1 (+)>>>
             <<<Displacing  35/coordinate 3 (+)>>>
             <<<Displacing  35/coordinate 3 (-)>>>
             <<<Displacing  36/coordinate 1 (-)>>>
             <<<Displacing  36/coordinate 2 (+)>>>
             <<<Displacing  36/coordinate 3 (+)>>>
             <<<Displacing  36/coordinate 2 (-)>>>
             <<<Displacing  36/coordinate 3 (-)>>>

-----------------------
VIBRATIONAL FREQUENCIES
-----------------------

Scaling factor for frequencies =  1.000000000 (already applied!)

   0:         0.00 cm**-1
   1:         0.00 cm**-1
   2:         0.00 cm**-1
   3:         0.00 cm**-1
   4:         0.00 cm**-1
   5:         0.00 cm**-1
   6:      -287.70 cm**-1 ***imaginary mode***
   7:         8.93 cm**-1
   8:        28.87 cm**-1
   9:        37.15 cm**-1
  10:        44.88 cm**-1
  11:        57.93 cm**-1
  12:        89.21 cm**-1
  13:        93.38 cm**-1
  14:        96.27 cm**-1
  15:       105.39 cm**-1
  16:       139.51 cm**-1
  17:       168.99 cm**-1
  18:       174.56 cm**-1
  19:       222.38 cm**-1
  20:       236.85 cm**-1
  21:       270.63 cm**-1
  22:       279.22 cm**-1
  23:       304.17 cm**-1
  24:       354.33 cm**-1
  25:       367.51 cm**-1
  26:       386.19 cm**-1
  27:       424.62 cm**-1
  28:       431.16 cm**-1
  29:       454.67 cm**-1
  30:       485.79 cm**-1
  31:       502.56 cm**-1
  32:       532.09 cm**-1
  33:       588.19 cm**-1
  34:       595.64 cm**-1
  35:       613.85 cm**-1
  36:       659.94 cm**-1
  37:       669.93 cm**-1
  38:       743.00 cm**-1
  39:       754.13 cm**-1
  40:       778.80 cm**-1
  41:       825.14 cm**-1
  42:       851.12 cm**-1
  43:       859.12 cm**-1
  44:       876.52 cm**-1
  45:       892.05 cm**-1
  46:       909.45 cm**-1
  47:       928.69 cm**-1
  48:       935.34 cm**-1
  49:       943.51 cm**-1
  50:       947.90 cm**-1
  51:       990.08 cm**-1
  52:      1051.00 cm**-1
  53:      1069.44 cm**-1
  54:      1077.86 cm**-1
  55:      1088.45 cm**-1
  56:      1102.04 cm**-1
  57:      1121.22 cm**-1
  58:      1124.17 cm**-1
  59:      1127.77 cm**-1
  60:      1142.88 cm**-1
  61:      1182.20 cm**-1
  62:      1189.03 cm**-1
  63:      1209.34 cm**-1
  64:      1230.57 cm**-1
  65:      1252.85 cm**-1
  66:      1257.45 cm**-1
  67:      1274.36 cm**-1
  68:      1277.07 cm**-1
  69:      1303.37 cm**-1
  70:      1312.82 cm**-1
  71:      1327.08 cm**-1
  72:      1338.29 cm**-1
  73:      1357.31 cm**-1
  74:      1362.03 cm**-1
  75:      1412.65 cm**-1
  76:      1428.74 cm**-1
  77:      1449.41 cm**-1
  78:      1460.92 cm**-1
  79:      1483.09 cm**-1
  80:      1491.82 cm**-1
  81:      1498.69 cm**-1
  82:      1501.11 cm**-1
  83:      1517.49 cm**-1
  84:      1542.05 cm**-1
  85:      1572.58 cm**-1
  86:      1584.27 cm**-1
  87:      1646.76 cm**-1
  88:      2172.33 cm**-1
  89:      2495.33 cm**-1
  90:      2955.79 cm**-1
  91:      2969.13 cm**-1
  92:      2973.52 cm**-1
  93:      2983.33 cm**-1
  94:      2986.88 cm**-1
  95:      2995.48 cm**-1
  96:      3010.34 cm**-1
  97:      3029.03 cm**-1
  98:      3031.58 cm**-1
  99:      3037.89 cm**-1
 100:      3083.34 cm**-1
 101:      3086.85 cm**-1
 102:      3092.71 cm**-1
 103:      3099.63 cm**-1
 104:      3115.04 cm**-1
 105:      3631.00 cm**-1
 106:      3670.76 cm**-1
 107:      3688.74 cm**-1


------------
NORMAL MODES
------------

These modes are the cartesian displacements weighted by the diagonal matrix
M(i,i)=1/sqrt(m[i]) where m[i] is the mass of the displaced atom
Thus, these vectors are normalized but *not* orthogonal

                  0          1          2          3          4          5    
      0       0.000000   0.000000   0.000000   0.000000   0.000000   0.000000
      1       0.000000   0.000000   0.000000   0.000000   0.000000   0.000000
      2       0.000000   0.000000   0.000000   0.000000   0.000000   0.000000
      3       0.000000   0.000000   0.000000   0.000000   0.000000   0.000000
      4       0.000000   0.000000   0.000000   0.000000   0.000000   0.000000
      5       0.000000   0.000000   0.000000   0.000000   0.000000   0.000000
      6       0.000000   0.000000   0.000000   0.000000   0.000000   0.000000
      7       0.000000   0.000000   0.000000   0.000000   0.000000   0.000000
      8       0.000000   0.000000   0.000000   0.000000   0.000000   0.000000
      9       0.000000   0.000000   0.000000   0.000000   0.000000   0.000000
     10       0.000000   0.000000   0.000000   0.000000   0.000000   0.000000
     11       0.000000   0.000000   0.000000   0.000000   0.000000   0.000000
     12       0.000000   0.000000   0.000000   0.000000   0.000000   0.000000
     13       0.000000   0.000000   0.000000   0.000000   0.000000   0.000000
     14       0.000000   0.000000   0.000000   0.000000   0.000000   0.000000
     15       0.000000   0.000000   0.000000   0.000000   0.000000   0.000000
     16       0.000000   0.000000   0.000000   0.000000   0.000000   0.000000
     17       0.000000   0.000000   0.000000   0.000000   0.000000   0.000000
     18       0.000000   0.000000   0.000000   0.000000   0.000000   0.000000
     19       0.000000   0.000000   0.000000   0.000000   0.000000   0.000000
     20       0.000000   0.000000   0.000000   0.000000   0.000000   0.000000
     21       0.000000   0.000000   0.000000   0.000000   0.000000   0.000000
     22       0.000000   0.000000   0.000000   0.000000   0.000000   0.000000
     23       0.000000   0.000000   0.000000   0.000000   0.000000   0.000000
     24       0.000000   0.000000   0.000000   0.000000   0.000000   0.000000
     25       0.000000   0.000000   0.000000   0.000000   0.000000   0.000000
     26       0.000000   0.000000   0.000000   0.000000   0.000000   0.000000
     27       0.000000   0.000000   0.000000   0.000000   0.000000   0.000000
     28       0.000000   0.000000   0.000000   0.000000   0.000000   0.000000
     29       0.000000   0.000000   0.000000   0.000000   0.000000   0.000000
     30       0.000000   0.000000   0.000000   0.000000   0.000000   0.000000
     31       0.000000   0.000000   0.000000   0.000000   0.000000   0.000000
     32       0.000000   0.000000   0.000000   0.000000   0.000000   0.000000
     33       0.000000   0.000000   0.000000   0.000000   0.000000   0.000000
     34       0.000000   0.000000   0.000000   0.000000   0.000000   0.000000
     35       0.000000   0.000000   0.000000   0.000000   0.000000   0.000000
     36       0.000000   0.000000   0.000000   0.000000   0.000000   0.000000
     37       0.000000   0.000000   0.000000   0.000000   0.000000   0.000000
     38       0.000000   0.000000   0.000000   0.000000   0.000000   0.000000
     39       0.000000   0.000000   0.000000   0.000000   0.000000   0.000000
     40       0.000000   0.000000   0.000000   0.000000   0.000000   0.000000
     41       0.000000   0.000000   0.000000   0.000000   0.000000   0.000000
     42       0.000000   0.000000   0.000000   0.000000   0.000000   0.000000
     43       0.000000   0.000000   0.000000   0.000000   0.000000   0.000000
     44       0.000000   0.000000   0.000000   0.000000   0.000000   0.000000
     45       0.000000   0.000000   0.000000   0.000000   0.000000   0.000000
     46       0.000000   0.000000   0.000000   0.000000   0.000000   0.000000
     47       0.000000   0.000000   0.000000   0.000000   0.000000   0.000000
     48       0.000000   0.000000   0.000000   0.000000   0.000000   0.000000
     49       0.000000   0.000000   0.000000   0.000000   0.000000   0.000000
     50       0.000000   0.000000   0.000000   0.000000   0.000000   0.000000
     51       0.000000   0.000000   0.000000   0.000000   0.000000   0.000000
     52       0.000000   0.000000   0.000000   0.000000   0.000000   0.000000
     53       0.000000   0.000000   0.000000   0.000000   0.000000   0.000000
     54       0.000000   0.000000   0.000000   0.000000   0.000000   0.000000
     55       0.000000   0.000000   0.000000   0.000000   0.000000   0.000000
     56       0.000000   0.000000   0.000000   0.000000   0.000000   0.000000
     57       0.000000   0.000000   0.000000   0.000000   0.000000   0.000000
     58       0.000000   0.000000   0.000000   0.000000   0.000000   0.000000
     59       0.000000   0.000000   0.000000   0.000000   0.000000   0.000000
     60       0.000000   0.000000   0.000000   0.000000   0.000000   0.000000
     61       0.000000   0.000000   0.000000   0.000000   0.000000   0.000000
     62       0.000000   0.000000   0.000000   0.000000   0.000000   0.000000
     63       0.000000   0.000000   0.000000   0.000000   0.000000   0.000000
     64       0.000000   0.000000   0.000000   0.000000   0.000000   0.000000
     65       0.000000   0.000000   0.000000   0.000000   0.000000   0.000000
     66       0.000000   0.000000   0.000000   0.000000   0.000000   0.000000
     67       0.000000   0.000000   0.000000   0.000000   0.000000   0.000000
     68       0.000000   0.000000   0.000000   0.000000   0.000000   0.000000
     69       0.000000   0.000000   0.000000   0.000000   0.000000   0.000000
     70       0.000000   0.000000   0.000000   0.000000   0.000000   0.000000
     71       0.000000   0.000000   0.000000   0.000000   0.000000   0.000000
     72       0.000000   0.000000   0.000000   0.000000   0.000000   0.000000
     73       0.000000   0.000000   0.000000   0.000000   0.000000   0.000000
     74       0.000000   0.000000   0.000000   0.000000   0.000000   0.000000
     75       0.000000   0.000000   0.000000   0.000000   0.000000   0.000000
     76       0.000000   0.000000   0.000000   0.000000   0.000000   0.000000
     77       0.000000   0.000000   0.000000   0.000000   0.000000   0.000000
     78       0.000000   0.000000   0.000000   0.000000   0.000000   0.000000
     79       0.000000   0.000000   0.000000   0.000000   0.000000   0.000000
     80       0.000000   0.000000   0.000000   0.000000   0.000000   0.000000
     81       0.000000   0.000000   0.000000   0.000000   0.000000   0.000000
     82       0.000000   0.000000   0.000000   0.000000   0.000000   0.000000
     83       0.000000   0.000000   0.000000   0.000000   0.000000   0.000000
     84       0.000000   0.000000   0.000000   0.000000   0.000000   0.000000
     85       0.000000   0.000000   0.000000   0.000000   0.000000   0.000000
     86       0.000000   0.000000   0.000000   0.000000   0.000000   0.000000
     87       0.000000   0.000000   0.000000   0.000000   0.000000   0.000000
     88       0.000000   0.000000   0.000000   0.000000   0.000000   0.000000
     89       0.000000   0.000000   0.000000   0.000000   0.000000   0.000000
     90       0.000000   0.000000   0.000000   0.000000   0.000000   0.000000
     91       0.000000   0.000000   0.000000   0.000000   0.000000   0.000000
     92       0.000000   0.000000   0.000000   0.000000   0.000000   0.000000
     93       0.000000   0.000000   0.000000   0.000000   0.000000   0.000000
     94       0.000000   0.000000   0.000000   0.000000   0.000000   0.000000
     95       0.000000   0.000000   0.000000   0.000000   0.000000   0.000000
     96       0.000000   0.000000   0.000000   0.000000   0.000000   0.000000
     97       0.000000   0.000000   0.000000   0.000000   0.000000   0.000000
     98       0.000000   0.000000   0.000000   0.000000   0.000000   0.000000
     99       0.000000   0.000000   0.000000   0.000000   0.000000   0.000000
    100       0.000000   0.000000   0.000000   0.000000   0.000000   0.000000
    101       0.000000   0.000000   0.000000   0.000000   0.000000   0.000000
    102       0.000000   0.000000   0.000000   0.000000   0.000000   0.000000
    103       0.000000   0.000000   0.000000   0.000000   0.000000   0.000000
    104       0.000000   0.000000   0.000000   0.000000   0.000000   0.000000
    105       0.000000   0.000000   0.000000   0.000000   0.000000   0.000000
    106       0.000000   0.000000   0.000000   0.000000   0.000000   0.000000
    107       0.000000   0.000000   0.000000   0.000000   0.000000   0.000000
                  6          7          8          9         10         11    
      0      -0.022995   0.046146   0.018723  -0.033883   0.010857   0.012227
      1      -0.024264  -0.000847  -0.005398  -0.007891   0.028621  -0.002352
      2       0.019789   0.007845   0.014760  -0.016269  -0.050046  -0.019696
      3      -0.006010   0.016142   0.080062  -0.025130  -0.016051  -0.018579
      4      -0.007781  -0.033243   0.205093   0.043712   0.021075   0.003726
      5       0.021355   0.005573  -0.041950  -0.034150  -0.061432  -0.038633
      6       0.004471  -0.001930   0.109521  -0.012776  -0.051849  -0.049551
      7       0.006646   0.007661   0.213947   0.122272  -0.044479   0.012661
      8       0.009022   0.007563  -0.063940  -0.061650  -0.022176  -0.020798
      9       0.004441   0.009341   0.078632  -0.008905  -0.061139  -0.049508
     10       0.004380   0.080765   0.011748   0.148170  -0.103527   0.014079
     11      -0.005634   0.011930  -0.027925  -0.071162   0.029044   0.017046
     12      -0.006736   0.039597   0.017202  -0.018274  -0.033952  -0.019202
     13       0.004369   0.113839  -0.195174   0.088520  -0.089018   0.007472
     14      -0.012651   0.014056   0.029563  -0.050010   0.037739   0.036817
     15      -0.018504   0.058057  -0.011836  -0.030538   0.001816   0.011748
     16      -0.009221   0.073025  -0.196536   0.010874  -0.021141   0.000268
     17      -0.002485   0.012138   0.048985  -0.022335  -0.002609   0.018082
     18      -0.077641   0.066094  -0.000380  -0.038425   0.039129   0.038655
     19      -0.098566  -0.041400  -0.011703  -0.055218   0.056387  -0.006745
     20       0.080598   0.006410   0.031667   0.000050  -0.074880  -0.035061
     21      -0.008794   0.007495   0.106010  -0.027113  -0.009294  -0.018543
     22      -0.029022  -0.091690   0.378802   0.026436   0.067951   0.004537
     23       0.026014   0.002647  -0.074419  -0.027528  -0.101427  -0.066381
     24      -0.028998   0.081288  -0.057257  -0.036867   0.023095   0.036084
     25      -0.015027   0.098432  -0.353095  -0.033653  -0.012294  -0.004044
     26      -0.005508   0.013864   0.092352  -0.006594   0.005311   0.033418
     27       0.012525  -0.005113   0.101529   0.001589  -0.089506  -0.073079
     28       0.002142   0.111706   0.018597   0.213229  -0.158685   0.020533
     29      -0.010284   0.013612  -0.044493  -0.094209   0.061330   0.030801
     30      -0.029455   0.058799   0.000638  -0.035292   0.038014   0.039690
     31       0.070290  -0.099139  -0.014401  -0.047534   0.032770  -0.015201
     32       0.023719   0.001129   0.026069  -0.013800  -0.088503  -0.045924
     33       0.001404   0.083935   0.014272  -0.025038   0.037529   0.026832
     34       0.018813  -0.121124  -0.002213  -0.060058  -0.026850  -0.016599
     35       0.023843  -0.006480   0.012726  -0.015892  -0.064721  -0.036066
     36      -0.065152   0.025251  -0.020861  -0.029088   0.012152   0.027687
     37       0.306901  -0.116451  -0.042469  -0.031588   0.021922  -0.031715
     38      -0.055211  -0.006763   0.031095  -0.029999  -0.096843  -0.040018
     39       0.002212  -0.016540   0.005952  -0.045767   0.023575   0.072871
     40       0.005498   0.039436  -0.004051  -0.033652   0.036968  -0.072872
     41       0.010653  -0.014318  -0.016237  -0.028570   0.011530  -0.000640
     42       0.014300   0.061392   0.021974  -0.023717   0.023656   0.029526
     43       0.018723  -0.231984   0.005177  -0.082190  -0.091314   0.027671
     44       0.032414   0.079250   0.013578   0.007117  -0.015591  -0.076062
     45      -0.015343   0.203079   0.023498   0.001119   0.056351  -0.032760
     46       0.008496  -0.137299   0.005760  -0.065090  -0.064348  -0.012269
     47       0.018457  -0.096306   0.020010  -0.037877  -0.132645   0.002252
     48       0.000924   0.022238   0.001479  -0.057704   0.013651   0.168503
     49       0.003023   0.149726  -0.012357  -0.010209   0.133936  -0.166011
     50       0.012372  -0.087169  -0.012282  -0.063067  -0.093525   0.181404
     51       0.004950  -0.137824  -0.006194  -0.072099   0.009126   0.135739
     52       0.006168   0.047017  -0.016461  -0.021824   0.120926  -0.169089
     53       0.011086   0.060794  -0.028924   0.003283   0.147660  -0.180711
     54       0.114645  -0.016252  -0.018256  -0.024792   0.029752   0.043680
     55       0.028671  -0.008873   0.044984  -0.064395   0.117119   0.023533
     56      -0.098404   0.001649   0.051555  -0.036418   0.020839   0.002834
     57      -0.084583   0.096202  -0.001489  -0.038944   0.058458   0.054649
     58      -0.115459  -0.021753  -0.005406  -0.076803   0.071731   0.004743
     59       0.081838   0.011963   0.025462   0.017118  -0.074088  -0.032585
     60       0.120596  -0.030134  -0.034065   0.045762   0.025950   0.037081
     61       0.070739   0.028533   0.077591  -0.159240   0.106175   0.027425
     62      -0.156263   0.002951   0.063726  -0.149559   0.045260   0.019011
     63      -0.104046  -0.093597  -0.112385   0.261689   0.008677   0.012328
     64       0.057149  -0.078963  -0.023520  -0.012224   0.071650  -0.020872
     65       0.051627   0.002613   0.042739   0.366691   0.084942   0.035567
     66       0.215404  -0.047805  -0.051064   0.092731   0.023854   0.030852
     67      -0.161204  -0.038435   0.010225  -0.040039   0.096118   0.004940
     68      -0.154456   0.002297   0.048436   0.132118   0.047056   0.016264
     69      -0.216415  -0.108393  -0.100715   0.339137   0.041661   0.034930
     70       0.124771  -0.093426  -0.024812   0.223080   0.123619   0.008639
     71       0.153435   0.003632   0.035295   0.444748   0.092986   0.037877
     72       0.050846  -0.038261  -0.120570   0.011612  -0.042779  -0.026097
     73      -0.088757  -0.156624  -0.061735  -0.007784  -0.015339  -0.050507
     74      -0.070479  -0.005348  -0.015705  -0.015384  -0.102881  -0.059380
     75       0.410864  -0.065237  -0.113300   0.134862  -0.011424  -0.009036
     76       0.307800  -0.119850  -0.043239  -0.011597   0.030476  -0.037678
     77      -0.244044  -0.002369   0.010967   0.168517  -0.017480  -0.014904
     78       0.287253  -0.052814  -0.230528  -0.117089  -0.122727  -0.086008
     79      -0.378717  -0.158420  -0.000400  -0.092216  -0.053687  -0.046704
     80       0.020467  -0.004256  -0.034100   0.018605  -0.086776  -0.058825
     81       0.007495  -0.009345   0.019845  -0.014672   0.041442  -0.105090
     82       0.004456   0.044830   0.023901  -0.056985  -0.143342   0.139289
     83       0.006107  -0.021014  -0.036150  -0.041941   0.066226   0.045190
     84       0.007312   0.133992   0.029450   0.018149   0.119205  -0.238743
     85       0.004777   0.036246   0.037189  -0.069351  -0.236078   0.244708
     86       0.006611  -0.111904  -0.020695  -0.078798  -0.119697   0.281092
     87       0.011379  -0.055996   0.026543  -0.003355   0.023030  -0.187767
     88       0.005761  -0.090893   0.036607  -0.086884  -0.315346   0.303464
     89       0.008199   0.064222  -0.041943  -0.002941   0.212374  -0.187792
     90      -0.005983   0.048764  -0.007710  -0.015435  -0.040937  -0.019056
     91       0.008910   0.170969  -0.349250   0.105900  -0.131746   0.008911
     92      -0.022304   0.017379   0.057226  -0.055533   0.075825   0.066029
     93       0.012760  -0.025182   0.158292  -0.005506  -0.072873  -0.073673
     94       0.010359  -0.018270   0.383642   0.166665  -0.051411   0.018625
     95       0.012240   0.005878  -0.110272  -0.076772  -0.030912  -0.036793
     96       0.006312  -0.133910   0.012242  -0.041583  -0.026078   0.001656
     97       0.002063   0.244074   0.017805  -0.024078   0.027072  -0.004576
     98       0.000368  -0.017137  -0.069558  -0.059479   0.183572   0.091555
     99       0.009397  -0.121345   0.021456  -0.014755  -0.000082  -0.157340
    100       0.004077   0.231715   0.040995  -0.045207  -0.142018   0.192861
    101      -0.002417  -0.021283  -0.083685  -0.070160   0.224305   0.130078
    102       0.004823  -0.280681   0.002651  -0.074777  -0.106206   0.135845
    103       0.001229   0.262698   0.003508  -0.009542   0.139076  -0.132188
    104      -0.000072   0.089211  -0.087986  -0.018516   0.408099  -0.186495
    105       0.004550  -0.093180   0.006877  -0.055819  -0.022629   0.107537
    106       0.000775   0.389259   0.004477   0.007120   0.213971  -0.182688
    107       0.000075  -0.114343  -0.062226  -0.103075   0.009999   0.364793
                 12         13         14         15         16         17    
      0       0.010288   0.039242   0.009905   0.025892   0.005988  -0.068203
      1       0.024486   0.078494   0.076723  -0.030108  -0.174841   0.076999
      2       0.031483   0.010796  -0.009588  -0.021630   0.047752   0.051957
      3       0.039992   0.041971  -0.004485  -0.010765  -0.012050   0.001559
      4      -0.003310   0.032576   0.086088   0.014125  -0.151424   0.074188
      5       0.058771   0.031694  -0.019066  -0.058485   0.030476   0.086991
      6       0.068458   0.036695  -0.035927  -0.054579  -0.009641   0.068635
      7      -0.052444  -0.066238   0.012463   0.050687  -0.005233   0.019450
      8       0.053149   0.060035   0.018366  -0.040535  -0.008281   0.062266
      9       0.067220   0.030945  -0.049729  -0.059295   0.010243   0.060519
     10      -0.062834  -0.104049  -0.076722   0.021944   0.117392  -0.031464
     11       0.016471   0.063237   0.070789   0.024596  -0.029907   0.002637
     12       0.041445   0.034753  -0.032118  -0.024832   0.016945  -0.006876
     13      -0.013304  -0.017589  -0.064645  -0.039641   0.029759  -0.016395
     14      -0.019608   0.027375   0.075355   0.070870   0.012624  -0.040414
     15       0.012317   0.038394  -0.000375   0.020567   0.013280  -0.072991
     16       0.029254   0.073033   0.019243  -0.056944  -0.127762   0.042455
     17      -0.010800   0.001931   0.032757   0.044324   0.052929  -0.009253
     18      -0.014376   0.026176   0.016070   0.051274   0.015689  -0.054320
     19       0.008992   0.060353   0.055439  -0.059781  -0.132822   0.075987
     20       0.049059   0.019547  -0.005301  -0.025791   0.037414   0.029498
     21       0.041066   0.045592   0.003999  -0.008708  -0.023023   0.005420
     22       0.008157   0.061747   0.139851   0.021282  -0.218273   0.096585
     23       0.081697   0.027478  -0.050802  -0.099345   0.035942   0.134767
     24      -0.009259   0.039531   0.015446   0.053000   0.020737  -0.123527
     25       0.057647   0.122243   0.020769  -0.096386  -0.175986   0.046484
     26      -0.035299  -0.019131   0.040907   0.079535   0.078382  -0.039484
     27       0.086505   0.023679  -0.074648  -0.090646   0.019043   0.104313
     28      -0.105157  -0.193522  -0.152123   0.043761   0.268337  -0.082159
     29       0.014473   0.090305   0.105882   0.039603  -0.073298  -0.013280
     30      -0.030378   0.012998   0.012445   0.045000   0.041139  -0.049108
     31      -0.067707   0.001805   0.035473  -0.100310  -0.004824   0.035681
     32       0.072351   0.047165   0.005987  -0.025063   0.003996  -0.061207
     33       0.006383   0.027771   0.018116   0.046885   0.027227   0.096266
     34      -0.127776  -0.027477   0.026774  -0.131615   0.162525  -0.033224
     35       0.068546   0.048973   0.008218  -0.013937  -0.044342  -0.137385
     36      -0.036016  -0.019453   0.012970   0.070147   0.072904  -0.105677
     37       0.011282   0.025738   0.007224  -0.085810  -0.024564   0.088806
     38      -0.012014  -0.001345   0.033645  -0.024556   0.025076  -0.124518
[...]
  78:      1460.80    0.000000  (  0.000000   0.000000   0.000000)
  79:      1483.99    0.000000  (  0.000000   0.000000   0.000000)
  80:      1492.04    0.000000  (  0.000000   0.000000   0.000000)
  81:      1500.15    0.000000  (  0.000000   0.000000   0.000000)
  82:      1501.69    0.000000  (  0.000000   0.000000   0.000000)
  83:      1516.00    0.000000  (  0.000000   0.000000   0.000000)
  84:      1541.37    0.000000  (  0.000000   0.000000   0.000000)
  85:      1572.45    0.000000  (  0.000000   0.000000   0.000000)
  86:      1584.05    0.000000  (  0.000000   0.000000   0.000000)
  87:      1646.62    0.000000  (  0.000000   0.000000   0.000000)
  88:      2173.46    0.000000  (  0.000000   0.000000   0.000000)
  89:      2489.03    0.000000  (  0.000000   0.000000   0.000000)
  90:      2952.04    0.000000  (  0.000000   0.000000   0.000000)
  91:      2969.22    0.000000  (  0.000000   0.000000   0.000000)
  92:      2973.16    0.000000  (  0.000000   0.000000   0.000000)
  93:      2983.36    0.000000  (  0.000000   0.000000   0.000000)
  94:      2986.40    0.000000  (  0.000000   0.000000   0.000000)
  95:      2996.01    0.000000  (  0.000000   0.000000   0.000000)
  96:      3010.48    0.000000  (  0.000000   0.000000   0.000000)
  97:      3029.28    0.000000  (  0.000000   0.000000   0.000000)
  98:      3031.72    0.000000  (  0.000000   0.000000   0.000000)
  99:      3037.95    0.000000  (  0.000000   0.000000   0.000000)
 100:      3083.25    0.000000  (  0.000000   0.000000   0.000000)
 101:      3086.85    0.000000  (  0.000000   0.000000   0.000000)
 102:      3092.69    0.000000  (  0.000000   0.000000   0.000000)
 103:      3099.59    0.000000  (  0.000000   0.000000   0.000000)
 104:      3114.88    0.000000  (  0.000000   0.000000   0.000000)
 105:      3631.04    0.000000  (  0.000000   0.000000   0.000000)
 106:      3668.93    0.000000  (  0.000000   0.000000   0.000000)
 107:      3687.97    0.000000  (  0.000000   0.000000   0.000000)

The first frequency considered to be a vibration is 7
The total number of vibrations considered is 101


--------------------------
THERMOCHEMISTRY AT 298.15K
--------------------------

Temperature         ... 298.15 K
Pressure            ... 1.00 atm
Total Mass          ... 215.29 AMU

Throughout the following assumptions are being made:
  (1) The electronic state is orbitally nondegenerate
  (2) There are no thermally accessible electronically excited states
  (3) Hindered rotations indicated by low frequency modes are not
      treated as such but are treated as vibrations and this may
      cause some error
  (4) All equations used are the standard statistical mechanics
      equations for an ideal gas
  (5) All vibrations are strictly harmonic

freq.       6.87  E(vib)   ...       0.58 
freq.      21.86  E(vib)   ...       0.56 
freq.      37.00  E(vib)   ...       0.54 
freq.      49.09  E(vib)   ...       0.53 
freq.      63.41  E(vib)   ...       0.51 
freq.      89.19  E(vib)   ...       0.47 
freq.      93.75  E(vib)   ...       0.47 
freq.      97.41  E(vib)   ...       0.46 
freq.     106.72  E(vib)   ...       0.45 
freq.     139.08  E(vib)   ...       0.42 
freq.     169.80  E(vib)   ...       0.38 
freq.     174.01  E(vib)   ...       0.38 
freq.     226.53  E(vib)   ...       0.33 
freq.     241.84  E(vib)   ...       0.31 
freq.     271.13  E(vib)   ...       0.29 
freq.     278.37  E(vib)   ...       0.28 
freq.     301.77  E(vib)   ...       0.26 
freq.     353.26  E(vib)   ...       0.22 
freq.     366.09  E(vib)   ...       0.22 
freq.     386.96  E(vib)   ...       0.20 
freq.     423.55  E(vib)   ...       0.18 
freq.     432.27  E(vib)   ...       0.18 
freq.     452.71  E(vib)   ...       0.16 
freq.     485.94  E(vib)   ...       0.15 
freq.     502.50  E(vib)   ...       0.14 
freq.     529.56  E(vib)   ...       0.13 
freq.     588.05  E(vib)   ...       0.10 
freq.     597.09  E(vib)   ...       0.10 
freq.     613.53  E(vib)   ...       0.10 
freq.     659.40  E(vib)   ...       0.08 
freq.     671.07  E(vib)   ...       0.08 
freq.     741.49  E(vib)   ...       0.06 
freq.     753.76  E(vib)   ...       0.06 
freq.     779.60  E(vib)   ...       0.05 
freq.     825.74  E(vib)   ...       0.04 
freq.     851.91  E(vib)   ...       0.04 
freq.     859.89  E(vib)   ...       0.04 
freq.     877.92  E(vib)   ...       0.04 
freq.     893.58  E(vib)   ...       0.03 
freq.     910.38  E(vib)   ...       0.03 
freq.     929.45  E(vib)   ...       0.03 
freq.     935.43  E(vib)   ...       0.03 
freq.     944.02  E(vib)   ...       0.03 
freq.     948.48  E(vib)   ...       0.03 
freq.     990.10  E(vib)   ...       0.02 
freq.    1052.12  E(vib)   ...       0.02 
freq.    1068.94  E(vib)   ...       0.02 
freq.    1077.60  E(vib)   ...       0.02 
freq.    1088.33  E(vib)   ...       0.02 
freq.    1102.62  E(vib)   ...       0.02 
freq.    1120.92  E(vib)   ...       0.01 
freq.    1124.26  E(vib)   ...       0.01 
freq.    1128.46  E(vib)   ...       0.01 
freq.    1142.45  E(vib)   ...       0.01 
freq.    1181.75  E(vib)   ...       0.01 
freq.    1189.04  E(vib)   ...       0.01 
freq.    1209.74  E(vib)   ...       0.01 
freq.    1230.57  E(vib)   ...       0.01 
freq.    1253.27  E(vib)   ...       0.01 
freq.    1258.25  E(vib)   ...       0.01 
freq.    1275.20  E(vib)   ...       0.01 
freq.    1277.13  E(vib)   ...       0.01 
freq.    1303.53  E(vib)   ...       0.01 
freq.    1311.80  E(vib)   ...       0.01 
freq.    1327.05  E(vib)   ...       0.01 
freq.    1338.40  E(vib)   ...       0.01 
freq.    1357.12  E(vib)   ...       0.01 
freq.    1363.32  E(vib)   ...       0.01 
freq.    1414.12  E(vib)   ...       0.00 
freq.    1428.72  E(vib)   ...       0.00 
freq.    1449.14  E(vib)   ...       0.00 
freq.    1460.80  E(vib)   ...       0.00 
freq.    1483.99  E(vib)   ...       0.00 
freq.    1492.04  E(vib)   ...       0.00 
freq.    1500.15  E(vib)   ...       0.00 
freq.    1501.69  E(vib)   ...       0.00 
freq.    1516.00  E(vib)   ...       0.00 
freq.    1541.37  E(vib)   ...       0.00 
freq.    1572.45  E(vib)   ...       0.00 
freq.    1584.05  E(vib)   ...       0.00 
freq.    1646.62  E(vib)   ...       0.00 
freq.    2173.46  E(vib)   ...       0.00 
freq.    2489.03  E(vib)   ...       0.00 
freq.    2952.04  E(vib)   ...       0.00 
freq.    2969.22  E(vib)   ...       0.00 
freq.    2973.16  E(vib)   ...       0.00 
freq.    2983.36  E(vib)   ...       0.00 
freq.    2986.40  E(vib)   ...       0.00 
freq.    2996.01  E(vib)   ...       0.00 
freq.    3010.48  E(vib)   ...       0.00 
freq.    3029.28  E(vib)   ...       0.00 
freq.    3031.72  E(vib)   ...       0.00 
freq.    3037.95  E(vib)   ...       0.00 
freq.    3083.25  E(vib)   ...       0.00 
freq.    3086.85  E(vib)   ...       0.00 
freq.    3092.69  E(vib)   ...       0.00 
freq.    3099.59  E(vib)   ...       0.00 
freq.    3114.88  E(vib)   ...       0.00 
freq.    3631.04  E(vib)   ...       0.00 
freq.    3668.93  E(vib)   ...       0.00 
freq.    3687.97  E(vib)   ...       0.00 

------------
INNER ENERGY
------------

The inner energy is: U= E(el) + E(ZPE) + E(vib) + E(rot) + E(trans)
    E(el)   - is the total energy from the electronic structure calculation
              = E(kin-el) + E(nuc-el) + E(el-el) + E(nuc-nuc)
    E(ZPE)  - the the zero temperature vibrational energy from the frequency calculation
    E(vib)  - the the finite temperature correction to E(ZPE) due to population
              of excited vibrational states
    E(rot)  - is the rotational thermal energy
    E(trans)- is the translational thermal energy

Summary of contributions to the inner energy U:
Electronic energy                ...    -49.34421019 Eh
Zero point energy                ...      0.29648496 Eh     186.05 kcal/mol
Thermal vibrational correction   ...      0.01608848 Eh      10.10 kcal/mol
Thermal rotational correction    ...      0.00141627 Eh       0.89 kcal/mol
Thermal translational correction ...      0.00141627 Eh       0.89 kcal/mol
-----------------------------------------------------------------------
Total thermal energy                    -49.02880422 Eh


Summary of corrections to the electronic energy:
(perhaps to be used in another calculation)
Total thermal correction                  0.01892102 Eh      11.87 kcal/mol
Non-thermal (ZPE) correction              0.29648496 Eh     186.05 kcal/mol
-----------------------------------------------------------------------
Total correction                          0.31540598 Eh     197.92 kcal/mol


--------
ENTHALPY
--------

The enthalpy is H = U + kB*T
                kB is Boltzmann's constant
Total free energy                 ...    -49.02880422 Eh 
Thermal Enthalpy correction       ...      0.00094421 Eh       0.59 kcal/mol
-----------------------------------------------------------------------
Total Enthalpy                    ...    -49.02786001 Eh


Note: Only C1 symmetry has been detected, increase convergence thresholds 
      if your molecule has a higher symmetry. Symmetry factor of 1.0 is   
      used for the rotational entropy correction. 
 

Note: Rotational entropy computed according to Herzberg 
Infrared and Raman Spectra, Chapter V,1, Van Nostrand Reinhold, 1945 
Point Group:  C1, Symmetry Number:   1  
Rotational constants in cm-1:     0.027580     0.008591     0.008088 

Vibrational entropy computed according to the QRRHO of S. Grimme
Chem.Eur.J. 2012 18 9955


-------
ENTROPY
-------

The entropy contributions are T*S = T*(S(el)+S(vib)+S(rot)+S(trans))
     S(el)   - electronic entropy
     S(vib)  - vibrational entropy
     S(rot)  - rotational entropy
     S(trans)- translational entropy
The entropies will be listed as mutliplied by the temperature to get
units of energy

Electronic entropy                ...      0.00000000 Eh      0.00 kcal/mol
Vibrational entropy               ...      0.02973658 Eh     18.66 kcal/mol
Rotational entropy                ...      0.01572589 Eh      9.87 kcal/mol
Translational entropy             ...      0.01995728 Eh     12.52 kcal/mol
-----------------------------------------------------------------------
Final entropy term                ...      0.06541975 Eh     41.05 kcal/mol

In case the symmetry of your molecule has not been determined correctly
or in case you have a reason to use a different symmetry number we print 
out the resulting rotational entropy values for sn=1,12 :
 --------------------------------------------------------
|  sn= 1 | S(rot)=       0.01572589 Eh      9.87 kcal/mol|
|  sn= 2 | S(rot)=       0.01507144 Eh      9.46 kcal/mol|
|  sn= 3 | S(rot)=       0.01468860 Eh      9.22 kcal/mol|
|  sn= 4 | S(rot)=       0.01441698 Eh      9.05 kcal/mol|
|  sn= 5 | S(rot)=       0.01420629 Eh      8.91 kcal/mol|
|  sn= 6 | S(rot)=       0.01403415 Eh      8.81 kcal/mol|
|  sn= 7 | S(rot)=       0.01388860 Eh      8.72 kcal/mol|
|  sn= 8 | S(rot)=       0.01376252 Eh      8.64 kcal/mol|
|  sn= 9 | S(rot)=       0.01365132 Eh      8.57 kcal/mol|
|  sn=10 | S(rot)=       0.01355184 Eh      8.50 kcal/mol|
|  sn=11 | S(rot)=       0.01346185 Eh      8.45 kcal/mol|
|  sn=12 | S(rot)=       0.01337969 Eh      8.40 kcal/mol|
 --------------------------------------------------------


-------------------
GIBBS FREE ENERGY
-------------------

The Gibbs free energy is G = H - T*S

Total enthalpy                    ...    -49.02786001 Eh 
Total entropy correction          ...     -0.06541975 Eh    -41.05 kcal/mol
-----------------------------------------------------------------------
Final Gibbs free energy         ...    -49.09327976 Eh

For completeness - the Gibbs free energy minus the electronic energy
G-E(el)                           ...      0.25093044 Eh    157.46 kcal/mol


Total Time for Numerical Frequencies  :       530.966 sec



------------------------------------------------------------------------------- 
                    Intrinsic Reaction Coordinate Calculation                  
------------------------------------------------------------------------------- 

System:
Nr. of atoms                        .... 36
Algorithm: SD (steepest descent step) plus correction
Settings:
Max. no of cycles        MaxIter    .... 20
Direction                           .... Forward and backward
Initial displacement Hessian type   .... Read
Hessian Filename                    .... optts.hess
Following Hessian mode              .... 0
Initial displacement type           .... Energy
  Initial displacement energy change.... 2.000 mEh
Coordinate system following type    .... Cartesian
Length of steepest descent step     .... 0.150 bohr
Do parabolic fit 
  if SD step is uphill              .... YES
Do Correction to SD step            .... YES
Scaling for length of correction
  compared to SD step               .... 0.333
Do parabolic fit to SD correction   .... YES
Only interpolate for parabolic fit  .... YES
Do update to length of
  SD step and correction            .... YES
Convergence Tolerances:
  Max. Gradient            TolMAXG  ....  2.0000e-03 Eh/bohr
  RMS Gradient             TolRMSG  ....  5.0000e-04 Eh/bohr
Storing full IRC trajectory in      .... optts_IRC_Full_trj.xyz
Storing forward trajectory in       .... optts_IRC_F_trj.xyz
Storing backward trajectory in      .... optts_IRC_B_trj.xyz


 ...good, the file optts.hess exists
Reading the hessian file           ...... done
Determining length of initial displacement:
  Requested energy change (quadratic behavior): 2.000 mEh
  Resulting scaling factor for initial displacement along normalized TS mode: 0.7489

         *************************************************************
         *                          FORWARD IRC                      *
         *************************************************************

Iteration    E(Eh)      dE(kcal/mol)  max(|G|)   RMS(G) 
Convergence thresholds                0.002000  0.000500            
    0       -49.344400   -0.119056    0.021023  0.004744
    1       -49.346557   -1.472834    0.006055  0.001557
    2       -49.346975   -1.734791    0.005503  0.001356
    3       -49.347330   -1.957487    0.005564  0.001204
    4       -49.347772   -2.235262    0.006076  0.001208
    5       -49.348278   -2.552868    0.006785  0.001416
    6       -49.348793   -2.875788    0.007677  0.001431
    7       -49.349401   -3.257437    0.008635  0.001697
    8       -49.350023   -3.647433    0.009702  0.001718
    9       -49.350752   -4.104816    0.010752  0.002008
   10       -49.351494   -4.570405    0.011844  0.002025
   11       -49.352340   -5.101419    0.012786  0.002287
   12       -49.353194   -5.637339    0.013656  0.002288
   13       -49.354120   -6.218671    0.014187  0.002438
   14       -49.355046   -6.799471    0.014477  0.002417
   15       -49.355986   -7.389315    0.014287  0.002406
   16       -49.356910   -7.969051    0.013532  0.002337
   17       -49.357794   -8.524141    0.012322  0.002212
   18       -49.358620   -9.042257    0.010607  0.002050
   19       -49.359374   -9.515583    0.009563  0.001885

         *************************************************************
         *  MAXIMUM NUMBER OF ITERATIONS REACHED - STOPPING IRC RUN  *
         *************************************************************


         *************************************************************
         *                          BACKWARD IRC                     *
         *************************************************************

Iteration    E(Eh)      dE(kcal/mol)  max(|G|)   RMS(G) 
Convergence thresholds                0.002000  0.000500            
    0       -49.339328    3.063472    0.048461  0.009751
    1       -49.345379   -0.733748    0.009018  0.001863
    2       -49.345953   -1.093902    0.006802  0.001404
    3       -49.346873   -1.671222    0.006172  0.001397
    4       -49.348043   -2.405164    0.007618  0.001670
    5       -49.349476   -3.304042    0.009127  0.002000
    6       -49.351144   -4.351295    0.010634  0.002282
    7       -49.353009   -5.521079    0.011943  0.002494
    8       -49.354990   -6.764240    0.012952  0.002601
    9       -49.357024   -8.040584    0.013461  0.002630
   10       -49.359054   -9.314377    0.013505  0.002599
   11       -49.361050   -10.567212    0.012759  0.002552
   12       -49.363016   -11.800877    0.012392  0.002532
   13       -49.365023   -13.060217    0.012497  0.002633
   14       -49.367006   -14.304628    0.012268  0.002579
   15       -49.368994   -15.552231    0.012531  0.002512
   16       -49.370893   -16.743982    0.012337  0.002354
   17       -49.372625   -17.830539    0.012069  0.002116
   18       -49.374114   -18.764746    0.010797  0.001881
   19       -49.375357   -19.544986    0.009799  0.001578

         *************************************************************
         *  MAXIMUM NUMBER OF ITERATIONS REACHED - STOPPING IRC RUN  *
         *************************************************************


---------------------------------------------------------------
                       IRC PATH SUMMARY              
---------------------------------------------------------------
All gradients are in Eh/Bohr.

Step        E(Eh)      dE(kcal/mol)  max(|G|)   RMS(G) 
   1       -49.375357   -19.544986    0.009799  0.001578
   2       -49.374114   -18.764746    0.010797  0.001881
   3       -49.372625   -17.830539    0.012069  0.002116
   4       -49.370893   -16.743982    0.012337  0.002354
   5       -49.368994   -15.552231    0.012531  0.002512
   6       -49.367006   -14.304628    0.012268  0.002579
   7       -49.365023   -13.060217    0.012497  0.002633
   8       -49.363016   -11.800877    0.012392  0.002532
   9       -49.361050   -10.567212    0.012759  0.002552
  10       -49.359054   -9.314377    0.013505  0.002599
  11       -49.357024   -8.040584    0.013461  0.002630
  12       -49.354990   -6.764240    0.012952  0.002601
  13       -49.353009   -5.521079    0.011943  0.002494
  14       -49.351144   -4.351295    0.010634  0.002282
  15       -49.349476   -3.304042    0.009127  0.002000
  16       -49.348043   -2.405164    0.007618  0.001670
  17       -49.346873   -1.671222    0.006172  0.001397
  18       -49.345953   -1.093902    0.006802  0.001404
  19       -49.345379   -0.733748    0.009018  0.001863
  20       -49.339328    3.063472    0.048461  0.009751
  21       -49.344210    0.000000    0.000076  0.000012 <= TS
  22       -49.344400   -0.119056    0.021023  0.004744
  23       -49.346557   -1.472834    0.006055  0.001557
  24       -49.346975   -1.734791    0.005503  0.001356
  25       -49.347330   -1.957487    0.005564  0.001204
  26       -49.347772   -2.235262    0.006076  0.001208
  27       -49.348278   -2.552868    0.006785  0.001416
  28       -49.348793   -2.875788    0.007677  0.001431
  29       -49.349401   -3.257437    0.008635  0.001697
  30       -49.350023   -3.647433    0.009702  0.001718
  31       -49.350752   -4.104816    0.010752  0.002008
  32       -49.351494   -4.570405    0.011844  0.002025
  33       -49.352340   -5.101419    0.012786  0.002287
  34       -49.353194   -5.637339    0.013656  0.002288
  35       -49.354120   -6.218671    0.014187  0.002438
  36       -49.355046   -6.799471    0.014477  0.002417
  37       -49.355986   -7.389315    0.014287  0.002406
  38       -49.356910   -7.969051    0.013532  0.002337
  39       -49.357794   -8.524141    0.012322  0.002212
  40       -49.358620   -9.042257    0.010607  0.002050
  41       -49.359374   -9.515583    0.009563  0.001885

Timings for individual modules:

Sum of individual times         ...      215.266 sec (=   3.588 min)
Geometry relaxation             ...        2.533 sec (=   0.042 min)   1.2 %
XTB module                      ...      212.733 sec (=   3.546 min)  98.8 %
                             ****ORCA TERMINATED NORMALLY****
TOTAL RUN TIME: 0 days 0 hours 21 minutes 19 seconds 887 msec
