(SLURM) JOB ID:         618

                                 *****************
                                 * O   R   C   A *
                                 *****************

           --- An Ab Initio, DFT and Semiempirical electronic structure package ---

                  #######################################################
                  #                        -***-                        #
                  #          Department of theory and spectroscopy      #
                  #               Directorship: Frank Neese             #
                  #        Max Planck Institute fuer Kohlenforschung    #
                  #                Kaiser Wilhelm Platz 1               #
                  #                 D-45470 Muelheim/Ruhr               #
                  #                      Germany                        #
                  #                                                     #
                  #                  All rights reserved                #
                  #                        -***-                        #
                  #######################################################


                         Program Version 4.2.1 -  RELEASE  -


 With contributions from (in alphabetic order):
   Daniel Aravena         : Magnetic Suceptibility
   Michael Atanasov       : Ab Initio Ligand Field Theory (pilot matlab implementation)
   Alexander A. Auer      : GIAO ZORA, VPT2
   Ute Becker             : Parallelization
   Giovanni Bistoni       : ED, misc. LED, open-shell LED, HFLD
   Martin Brehm           : Molecular dynamics
   Dmytro Bykov           : SCF Hessian
   Vijay G. Chilkuri      : MRCI spin determinant printing, contributions to CSF-ICE
   Dipayan Datta          : RHF DLPNO-CCSD density
   Achintya Kumar Dutta   : EOM-CC, STEOM-CC
   Dmitry Ganyushin       : Spin-Orbit,Spin-Spin,Magnetic field MRCI
   Miquel Garcia          : C-PCM Hessian, Gaussian charge scheme
   Yang Guo               : DLPNO-NEVPT2, CIM, IAO-localization
   Andreas Hansen         : Spin unrestricted coupled pair/coupled cluster methods
   Benjamin Helmich-Paris : CASSCF linear response (MC-RPA)
   Lee Huntington         : MR-EOM, pCC
   Robert Izsak           : Overlap fitted RIJCOSX, COSX-SCS-MP3, EOM
   Christian Kollmar      : KDIIS, OOCD, Brueckner-CCSD(T), CCSD density
   Simone Kossmann        : Meta GGA functionals, TD-DFT gradient, OOMP2, MP2 Hessian
   Martin Krupicka        : AUTO-CI
   Lucas Lang             : DCDCAS
   Dagmar Lenk            : GEPOL surface, SMD
   Dimitrios Liakos       : Extrapolation schemes; Compound Job, initial MDCI parallelization
   Dimitrios Manganas     : Further ROCIS development; embedding schemes
   Dimitrios Pantazis     : SARC Basis sets
   Taras Petrenko         : DFT Hessian,TD-DFT gradient, ASA, ECA, R-Raman, ABS, FL, XAS/XES, NRVS
   Peter Pinski           : DLPNO-MP2, DLPNO-MP2 Gradient
   Christoph Reimann      : Effective Core Potentials
   Marius Retegan         : Local ZFS, SOC
   Christoph Riplinger    : Optimizer, TS searches, QM/MM, DLPNO-CCSD(T), (RO)-DLPNO pert. Triples
   Tobias Risthaus        : Range-separated hybrids, TD-DFT gradient, RPA, STAB
   Michael Roemelt        : Original ROCIS implementation
   Masaaki Saitow         : Open-shell DLPNO-CCSD energy and density
   Barbara Sandhoefer     : DKH picture change effects
   Avijit Sen             : IP-ROCIS
   Kantharuban Sivalingam : CASSCF convergence, NEVPT2, FIC-MRCI
   Bernardo de Souza      : ESD, SOC TD-DFT
   Georgi Stoychev        : AutoAux, RI-MP2 NMR
   Willem Van den Heuvel  : Paramagnetic NMR
   Boris Wezisla          : Elementary symmetry handling
   Frank Wennmohs         : Technical directorship


 We gratefully acknowledge several colleagues who have allowed us to
 interface, adapt or use parts of their codes:
   Stefan Grimme, W. Hujo, H. Kruse,             : VdW corrections, initial TS optimization,
                  C. Bannwarth                     DFT functionals, gCP, sTDA/sTD-DF
   Ed Valeev, F. Pavosevic, A. Kumar             : LibInt (2-el integral package), F12 methods
   Garnet Chan, S. Sharma, J. Yang, R. Olivares  : DMRG
   Ulf Ekstrom                                   : XCFun DFT Library
   Mihaly Kallay                                 : mrcc  (arbitrary order and MRCC methods)
   Andreas Klamt, Michael Diedenhofen            : otool_cosmo (COSMO solvation model)
   Jiri Pittner, Ondrej Demel                    : Mk-CCSD
   Frank Weinhold                                : gennbo (NPA and NBO analysis)
   Christopher J. Cramer and Donald G. Truhlar   : smd solvation model
   Lars Goerigk                                  : TD-DFT with DH, B97 family of functionals
   V. Asgeirsson, H. Jonsson                     : NEB implementation
   FAccTs GmbH                                   : IRC, NEB, NEB-TS, Multilevel, MM, QM/MM, CI optimization
   S Lehtola, MJT Oliveira, MAL Marques          : LibXC Library


 Your calculation uses the libint2 library for the computation of 2-el integrals
 For citations please refer to: http://libint.valeyev.net

 Your ORCA version has been built with support for libXC version: 4.2.3
 For citations please refer to: https://tddft.org/programs/libxc/

 This ORCA versions uses:
   CBLAS   interface :  Fast vector & matrix operations
   LAPACKE interface :  Fast linear algebra routines
   SCALAPACK package :  Parallel linear algebra routines




***************************************
The coordinates will be read from file: init.xyz
***************************************


Your calculation utilizes the SMD solvation module
Please cite in your paper:
A.V. Marenich, C.J. Cramer, D.G. Truhlar J. Phys. Chem. B, 113, (2009), 6378 

Your calculation utilizes the semiempirical GFN2-xTB method
Please cite in your paper:
C. Bannwarth, Ehlert S., S. Grimme,  J. Chem. Theory Comput., 15, (2019), 1652.
   

----- Orbital basis set information -----
Your calculation utilizes the basis: def2-SVP
   F. Weigend and R. Ahlrichs, Phys. Chem. Chem. Phys. 7, 3297 (2005).

================================================================================
                                        WARNINGS
                       Please study these warnings very carefully!
================================================================================

WARNING: Gradients needed for Numerical Frequencies
  ===> : Setting RunTyp to EnGrad

WARNING: The environment variable RSH_COMMAND is not set!
  ===> : All Displacements for the Numerical Hessian calculation
         will be started on localhost

WARNING: Found dipole moment calculation with XTB calculation
  ===> : Switching off dipole moment calculation


INFO   : the flag for use of LIBINT has been found!

================================================================================
                                       INPUT FILE
================================================================================
NAME = /tmp/slurm-scratch/freq.618/freq.inp
|  1> ! XTB2 NumFreq
|  2> %maxcore 1450
|  3> 
|  4> * xyzfile 0 1 init.xyz
|  5> 
|  6> %cpcm
|  7>  smd true
|  8>  smdsolvent "ch2cl2"
|  9> end
| 10> %pal nprocs 9 end
| 11> 
| 12>                          ****END OF INPUT****
================================================================================

                     *******************************
                     * Energy+Gradient Calculation *
                     *******************************

      -----------------------------------------------------------      
     |                   =====================                   |     
     |                           x T B                           |     
     |                   =====================                   |     
     |                         S. Grimme                         |     
     |          Mulliken Center for Theoretical Chemistry        |     
     |                    University of Bonn                     |     
      -----------------------------------------------------------      

   * xtb version 6.3.2 (30e43eb) compiled by 'schneider@apollo14' on 2020-08-08

   xtb is free software: you can redistribute it and/or modify it under
   the terms of the GNU Lesser General Public License as published by
   the Free Software Foundation, either version 3 of the License, or
   (at your option) any later version.
   
   xtb is distributed in the hope that it will be useful,
   but WITHOUT ANY WARRANTY; without even the implied warranty of
   MERCHANTABILITY or FITNESS FOR A PARTICULAR PURPOSE.  See the
   GNU Lesser General Public License for more details.
   
   Cite this work as:
   * S. Grimme, C. Bannwarth, P. Shushkov, J. Chem. Theory Comput., 2017,
     13, 1989-2009. DOI: 10.1021/acs.jctc.7b00118
   * C. Bannwarth, S. Ehlert and S. Grimme., J. Chem. Theory Comput., 2019,
     15, 1652-1671. DOI: 10.1021/acs.jctc.8b01176
   * P. Pracht, E. Caldeweyher, S. Ehlert, S. Grimme, ChemRxiv, 2019, preprint.
     DOI: 10.26434/chemrxiv.8326202.v1
   
   for GFN-FF:
   * S. Spicher and S. Grimme, Angew. Chem. Int. Ed., 2020,
     DOI: 10.1002/anie.202004239
   
   for DFT-D4:
   * E. Caldeweyher, C. Bannwarth and S. Grimme, J. Chem. Phys., 2017,
     147, 034112. DOI: 10.1063/1.4993215
   * E. Caldeweyher, S. Ehlert, A. Hansen, H. Neugebauer, S. Spicher,
     C. Bannwarth and S. Grimme, J. Chem. Phys., 2019, 150, 154122.
     DOI: 10.1063/1.5090222
   
   for sTDA-xTB:
   * S. Grimme and C. Bannwarth, J. Chem. Phys., 2016, 145, 054103.
     DOI: 10.1063/1.4959605
   
   in the mass-spec context:
   * V. Asgeirsson, C. Bauer and S. Grimme, Chem. Sci., 2017, 8, 4879.
     DOI: 10.1039/c7sc00601b
   * J. Koopman and S. Grimme, ACS Omega 2019, 4, 12, 15120-15133.
     DOI: 10.1021/acsomega.9b02011
   
   for metadynamics refer to:
   * S. Grimme, J. Chem. Theory Comput., 2019, 155, 2847-2862
     DOI: 10.1021/acs.jctc.9b00143
   
   with help from (in alphabetical order)
   C. Bannwarth, F. Bohle, G. Brandenburg, E. Caldeweyher, M. Checinski,
   S. Dohm, S. Ehlert, S. Ehrlich, F. März, H. Neugebauer, J. Pisarek,
   P. Pracht, P. Shushkov, and S. Spicher.
   
 * started run on 2021/02/05 at 13:01:33.848     

           -------------------------------------------------
          |                Calculation Setup                |
           -------------------------------------------------

          program call               : /opt/orca/otool_xtb /tmp/slurm-scratch/freq.618/freq_XTB.xyz --grad -c 0 -u 0 -P 9 --namespace /tmp/slurm-scratch/freq.618/freq --gbsa CH2Cl2
          hostname                   : apollo14
          calculation namespace      : /tmp/slurm-scratch/freq.618/freq
          coordinate file            : /tmp/slurm-scratch/freq.618/freq_XTB.xyz
          omp threads                :                     9
          number of atoms            :                    46
          number of electrons        :                   104
          charge                     :                     0
          spin                       :                   0.0
          first test random number   :      0.42546549437816

   ID    Z sym.   atoms
    1    6 C      1-6, 12, 18, 21, 25, 28, 31, 34, 39, 43
    2    1 H      7-9, 11, 13-15, 17, 19, 20, 22, 24, 26, 27, 29, 30, 32, 33,
                  35-38, 40-42, 44-46
    3    7 N      10, 16
    4    8 O      23

molecular fragmentation (1/2 indicates fragments):
1111111111211122222211221112222221111122221111
# atoms in fragment 1/2:    27    19
 fragment masses (1/2) :      161.24       91.15
CMA distance (Bohr)    :   8.766
constraining FC (au)   :  0.0500
########################################################################
[WARNING] Please study the warnings concerning your input carefully
-1- prog_main_parseArguments: Process number higher than OMP_NUM_THREADS, I hope you know what you are doing.
########################################################################

           -------------------------------------------------
          |                 G F N 2 - x T B                 |
           -------------------------------------------------

        Reference                      10.1021/acs.jctc.8b01176
      * Hamiltonian:
        H0-scaling (s, p, d)           1.850000    2.230000    2.230000
        zeta-weighting                 0.500000
      * Dispersion:
        s8                             2.700000
        a1                             0.520000
        a2                             5.000000
        s9                             5.000000
      * Repulsion:
        kExp                           1.500000    1.000000
        rExp                           1.000000
      * Coulomb:
        alpha                          2.000000
        third order                    shell-resolved
        anisotropic                    true
        a3                             3.000000
        a5                             4.000000
        cn-shift                       1.200000
        cn-exp                         4.000000
        max-rad                        5.000000

      * Solvation model:               GBSA
        Solvent                        CH2Cl2
        Parameter file                 internal GFN2-xTB/GBSA
        Dielectric constant                8.9300E+00
        Reference state                gsolv [1 M gas/solution]
        Free energy shift                  4.4408E-03 Eh       2.7867E+00 kcal/mol
        Temperature                        2.9815E+02 K
        Density                            1.3300E+00 kg/L
        Solvent mass                       8.4930E+01 g/mol
        Interaction kernel             Still
        Born radius scaling (c1)           1.4917E+00
        Born radii integrator          GBOBC
        Born offset                        0.0000E+00 a0       0.0000E+00 AA
        H-bond correction              false
        Ion screening                  false
        Surface tension                    1.0000E-05 Eh       1.5569E+01 dyn/cm
        Grid points                               230 per atom

          ...................................................
          :                      SETUP                      :
          :.................................................:
          :  # basis functions                 100          :
          :  # atomic orbitals                 100          :
          :  # shells                           64          :
          :  # electrons                       104          :
          :  max. iterations                   250          :
          :  Hamiltonian                  GFN2-xTB          :
          :  restarted?                      false          :
          :  GBSA solvation                   true          :
          :  PC potential                    false          :
          :  electronic temp.          300.0000000     K    :
          :  accuracy                    1.0000000          :
          :  -> integral cutoff          0.2500000E+02      :
          :  -> integral neglect         0.1000000E-07      :
          :  -> SCF convergence          0.1000000E-05 Eh   :
          :  -> wf. convergence          0.1000000E-03 e    :
          :  Broyden damping             0.4000000          :
          ...................................................

 iter      E             dE          RMSdq      gap      omega  full diag
   1    -57.0585056 -0.570585E+02  0.334E+00    3.10       0.0  T
   2    -57.1204438 -0.619381E-01  0.195E+00    3.10       1.0  T
   3    -57.1199461  0.497624E-03  0.692E-01    2.79       1.0  T
   4    -57.1222953 -0.234919E-02  0.327E-01    2.85       1.0  T
   5    -57.1256507 -0.335532E-02  0.665E-02    2.78       1.0  T
   6    -57.1256687 -0.180258E-04  0.321E-02    2.80       1.0  T
   7    -57.1256758 -0.709530E-05  0.141E-02    2.80       1.0  T
   8    -57.1256782 -0.245974E-05  0.360E-03    2.80       4.1  T
   9    -57.1256784 -0.203920E-06  0.139E-03    2.80      10.6  T
  10    -57.1256784 -0.490247E-08  0.715E-04    2.80      20.6  T
  11    -57.1256784 -0.597727E-08  0.296E-04    2.80      49.9  T

   *** convergence criteria satisfied after 11 iterations ***

         #    Occupation            Energy/Eh            Energy/eV
      -------------------------------------------------------------
         1        2.0000           -0.6612913             -17.9947
       ...           ...                  ...                  ...
        46        2.0000           -0.4274850             -11.6325
        47        2.0000           -0.4243697             -11.5477
        48        2.0000           -0.4200343             -11.4297
        49        2.0000           -0.4147093             -11.2848
        50        2.0000           -0.4046887             -11.0121
        51        2.0000           -0.3867681             -10.5245
        52        2.0000           -0.3797365             -10.3332 (HOMO)
        53                         -0.2767351              -7.5303 (LUMO)
        54                         -0.2343686              -6.3775
        55                         -0.1955182              -5.3203
        56                         -0.0944628              -2.5705
        57                          0.0117155               0.3188
       ...                                ...                  ...
       100                          0.6440390              17.5252
      -------------------------------------------------------------
                  HL-Gap            0.1030015 Eh            2.8028 eV
             Fermi-level           -0.3282358 Eh           -8.9318 eV

 SCC (total)                   0 d,  0 h,  0 min,  0.134 sec
 SCC setup                      ...        0 min,  0.005 sec (  3.901%)
 Dispersion                     ...        0 min,  0.003 sec (  2.498%)
 classical contributions        ...        0 min,  0.007 sec (  5.008%)
 integral evaluation            ...        0 min,  0.019 sec ( 13.853%)
 iterations                     ...        0 min,  0.056 sec ( 42.085%)
 molecular gradient             ...        0 min,  0.043 sec ( 31.701%)
 printout                       ...        0 min,  0.001 sec (  0.935%)

         :::::::::::::::::::::::::::::::::::::::::::::::::::::
         ::                     SUMMARY                     ::
         :::::::::::::::::::::::::::::::::::::::::::::::::::::
         :: total energy             -56.295012102694 Eh    ::
         :: total w/o Gsasa/hb       -56.271156096364 Eh    ::
         :: gradient norm              0.028201923535 Eh/a0 ::
         :: HOMO-LUMO gap              2.802812370598 eV    ::
         ::.................................................::
         :: SCC energy               -57.125678447007 Eh    ::
         :: -> isotropic ES            0.063202046278 Eh    ::
         :: -> anisotropic ES          0.004899320977 Eh    ::
         :: -> anisotropic XC          0.040652439913 Eh    ::
         :: -> dispersion             -0.036050879194 Eh    ::
         :: -> Gsolv                  -0.029927062672 Eh    ::
         ::    -> Gborn               -0.006071056342 Eh    ::
         ::    -> Gsasa               -0.028296835504 Eh    ::
         ::    -> Ghb                  0.000000000000 Eh    ::
         ::    -> Gshift               0.004440829173 Eh    ::
         :: repulsion energy           0.830147706132 Eh    ::
         :: add. restraining           0.000000000000 Eh    ::
         :: total charge              -0.000000000000 e     ::
         :::::::::::::::::::::::::::::::::::::::::::::::::::::

           -------------------------------------------------
          |                Property Printout                |
           -------------------------------------------------

    * Orbital Energies and Occupations

         #    Occupation            Energy/Eh            Energy/eV
      -------------------------------------------------------------
         1        2.0000           -0.6612913             -17.9947
       ...           ...                  ...                  ...
        40        2.0000           -0.4407965             -11.9947
        41        2.0000           -0.4392946             -11.9538
        42        2.0000           -0.4368352             -11.8869
        43        2.0000           -0.4366075             -11.8807
        44        2.0000           -0.4322235             -11.7614
        45        2.0000           -0.4295074             -11.6875
        46        2.0000           -0.4274850             -11.6325
        47        2.0000           -0.4243697             -11.5477
        48        2.0000           -0.4200343             -11.4297
        49        2.0000           -0.4147093             -11.2848
        50        2.0000           -0.4046887             -11.0121
        51        2.0000           -0.3867681             -10.5245
        52        2.0000           -0.3797365             -10.3332 (HOMO)
        53                         -0.2767351              -7.5303 (LUMO)
        54                         -0.2343686              -6.3775
        55                         -0.1955182              -5.3203
        56                         -0.0944628              -2.5705
        57                          0.0117155               0.3188
        58                          0.0305622               0.8316
        59                          0.0722871               1.9670
        60                          0.0906588               2.4670
        61                          0.0979193               2.6645
        62                          0.0983963               2.6775
        63                          0.1071913               2.9168
       ...                                ...                  ...
       100                          0.6440390              17.5252
      -------------------------------------------------------------
                  HL-Gap            0.1030015 Eh            2.8028 eV
             Fermi-level           -0.3282358 Eh           -8.9318 eV

     #   Z          covCN         q      C6AA      α(0)
     1   6 C        2.913    -0.028    28.698     8.784
     2   6 C        2.922    -0.030    28.737     8.791
     3   6 C        2.970     0.004    27.936     8.670
     4   6 C        2.918    -0.026    28.663     8.779
     5   6 C        2.914    -0.028    28.706     8.786
     6   6 C        2.916    -0.025    28.621     8.773
     7   1 H        0.925     0.038     2.474     2.460
     8   1 H        0.926     0.047     2.362     2.403
     9   1 H        0.925     0.044     2.392     2.419
    10   7 N        1.825    -0.263    27.671     7.795
    11   1 H        0.801     0.305     0.707     1.321
    12   6 C        3.768     0.020    20.266     6.416
    13   1 H        0.924     0.043     2.414     2.430
    14   1 H        0.924     0.009     2.912     2.669
    15   1 H        0.860     0.176     1.235     1.741
    16   7 N        2.628    -0.376    29.718     8.096
    17   1 H        0.805     0.277     0.793     1.399
    18   6 C        3.731     0.020    20.336     6.437
    19   1 H        0.924     0.010     2.896     2.661
    20   1 H        0.924     0.032     2.553     2.499
    21   6 C        2.859     0.078    26.264     8.400
    22   1 H        0.924     0.002     3.027     2.721
    23   8 O        1.606    -0.628    25.874     6.865
    24   1 H        0.860     0.144     1.443     1.882
    25   6 C        3.803    -0.062    21.689     6.630
    26   1 H        0.924     0.058     2.226     2.333
    27   1 H        0.924     0.029     2.594     2.519
    28   6 C        3.802    -0.066    21.774     6.643
    29   1 H        0.924     0.036     2.505     2.475
    30   1 H        0.924     0.043     2.407     2.426
    31   6 C        3.800    -0.054    21.539     6.608
    32   1 H        0.924     0.031     2.579     2.511
    33   1 H        0.924     0.032     2.564     2.504
    34   6 C        3.800    -0.052    21.517     6.604
    35   1 H        0.924     0.034     2.534     2.489
    36   1 H        0.924     0.029     2.601     2.522
    37   1 H        0.925     0.043     2.408     2.427
    38   1 H        0.925     0.043     2.413     2.429
    39   6 C        3.750    -0.103    22.526     6.769
    40   1 H        0.924     0.036     2.500     2.473
    41   1 H        0.924     0.036     2.509     2.477
    42   1 H        0.924     0.036     2.498     2.472
    43   6 C        3.750    -0.103    22.538     6.771
    44   1 H        0.924     0.041     2.439     2.442
    45   1 H        0.924     0.036     2.498     2.471
    46   1 H        0.924     0.034     2.528     2.486

 Mol. C6AA /au·bohr⁶  :      17447.703742
 Mol. C8AA /au·bohr⁸  :     382504.101696
 Mol. α(0) /au        :        202.679332


Wiberg/Mayer (AO) data.
largest (>0.10) Wiberg bond orders for each atom

 ---------------------------------------------------------------------------
     #   Z sym  total        # sym  WBO       # sym  WBO       # sym  WBO
 ---------------------------------------------------------------------------
     1   6 C    3.991 --     2 C    1.450     6 C    1.438    38 H    0.970
                             4 C    0.106
     2   6 C    3.987 --     1 C    1.450     3 C    1.381     7 H    0.968
                             5 C    0.105
     3   6 C    3.989 --     2 C    1.381     4 C    1.367    21 C    1.082
                             6 C    0.100
     4   6 C    3.990 --     5 C    1.466     3 C    1.367     8 H    0.965
                             1 C    0.106
     5   6 C    3.991 --     4 C    1.466     6 C    1.422    37 H    0.970
                             2 C    0.105
     6   6 C    3.987 --     1 C    1.438     5 C    1.422     9 H    0.971
                             3 C    0.100
     7   1 H    0.999 --     2 C    0.968
     8   1 H    0.998 --     4 C    0.965
     9   1 H    0.998 --     6 C    0.971
    10   7 N    3.078 --    21 C    1.841    12 C    1.021
    11   1 H    0.907 --    23 O    0.843
    12   6 C    3.983 --    10 N    1.021    25 C    0.985    14 H    0.966
                            13 H    0.960
    13   1 H    0.995 --    12 C    0.960
    14   1 H    1.000 --    12 C    0.966
    15   1 H    0.969 --    16 N    0.934
    16   7 N    3.058 --    18 C    1.013    24 H    0.965    15 H    0.934
    17   1 H    0.923 --    23 O    0.921
    18   6 C    3.983 --    16 N    1.013    28 C    1.007    20 H    0.975
                            19 H    0.971
    19   1 H    1.000 --    18 C    0.971
    20   1 H    0.999 --    18 C    0.975
    21   6 C    3.969 --    10 N    1.841     3 C    1.082    22 H    0.940
    22   1 H    1.000 --    21 C    0.940
    23   8 O    1.802 --    17 H    0.921    11 H    0.843
    24   1 H    0.979 --    16 N    0.965
    25   6 C    3.989 --    34 C    1.006    12 C    0.985    27 H    0.978
                            26 H    0.970
    26   1 H    0.997 --    25 C    0.970
    27   1 H    0.999 --    25 C    0.978
    28   6 C    3.996 --    31 C    1.007    18 C    1.007    29 H    0.976
                            30 H    0.975
    29   1 H    0.999 --    28 C    0.976
    30   1 H    0.998 --    28 C    0.975
    31   6 C    3.997 --    39 C    1.020    28 C    1.007    33 H    0.978
                            32 H    0.978
    32   1 H    0.999 --    31 C    0.978
    33   1 H    0.999 --    31 C    0.978
    34   6 C    3.996 --    43 C    1.019    25 C    1.006    36 H    0.978
                            35 H    0.978
    35   1 H    0.999 --    34 C    0.978
    36   1 H    0.999 --    34 C    0.978
    37   1 H    0.998 --     5 C    0.970
    38   1 H    0.998 --     1 C    0.970
    39   6 C    3.996 --    31 C    1.020    41 H    0.988    42 H    0.988
                            40 H    0.987
    40   1 H    0.998 --    39 C    0.987
    41   1 H    0.999 --    39 C    0.988
    42   1 H    0.999 --    39 C    0.988
    43   6 C    3.995 --    34 C    1.019    46 H    0.988    44 H    0.987
                            45 H    0.987
    44   1 H    0.998 --    43 C    0.987
    45   1 H    0.998 --    43 C    0.987
    46   1 H    0.999 --    43 C    0.988
 ---------------------------------------------------------------------------

Topologies differ in total number of bonds
Writing topology from bond orders to xtbtopo.mol

molecular dipole:
                 x           y           z       tot (Debye)
 q only:        1.082       0.096      -0.980
   full:        1.497       0.610      -1.299       5.271
molecular quadrupole (traceless):
                xx          xy          yy          xz          yz          zz
 q only:       -2.414      -4.895       3.865      10.322       5.140      -1.450
  q+dip:       -5.666     -11.118       9.655      12.581       3.259      -3.989
   full:       -6.641     -10.201       8.331      14.335       6.023      -1.690


           -------------------------------------------------
          | TOTAL ENERGY              -56.295012102694 Eh   |
          | GRADIENT NORM               0.028201923535 Eh/α |
          | HOMO-LUMO GAP               2.802812370598 eV   |
           -------------------------------------------------

------------------------------------------------------------------------
 * finished run on 2021/02/05 at 13:01:34.047     
------------------------------------------------------------------------
 total:
 * wall-time:     0 d,  0 h,  0 min,  0.198 sec
 *  cpu-time:     0 d,  0 h,  0 min,  2.295 sec
 * ratio c/w:    11.564 speedup
 SCF:
 * wall-time:     0 d,  0 h,  0 min,  0.138 sec
 *  cpu-time:     0 d,  0 h,  0 min,  1.618 sec
 * ratio c/w:    11.729 speedup


-------------------------   --------------------
FINAL SINGLE POINT ENERGY       -56.295012102690
-------------------------   --------------------


----------------------------------------------------------------------------
                           ORCA NUMERICAL FREQUENCIES
                              (9-process run)
----------------------------------------------------------------------------

Number of atoms                ... 46
Central differences            ... used
Number of displacements        ... 276
Numerical increment            ... 5.000e-03 bohr
IR-spectrum generation         ... on
Raman-spectrum generation      ... off
Surface Crossing Hessian       ... off
List of participating nodes    ...  /tmp/slurm-scratch/freq.618/freq.hostnames

The output will be reduced. Please look at the following files:
SCF program output             ... >/tmp/slurm-scratch/freq.618/freq.lastscf
Integral program output        ... >/tmp/slurm-scratch/freq.618/freq.lastint
Gradient program output        ... >/tmp/slurm-scratch/freq.618/freq.lastgrad
Dipole moment program output   ... >/tmp/slurm-scratch/freq.618/freq.lastmom
AutoCI program output          ... >/tmp/slurm-scratch/freq.618/freq.lastautoci


         <<< Energy and Gradient at the input geometry >>>

        <<< Energy and Gradient at displaced geometries >>>
             <<<Displacing   3/coordinate 3 (+)>>>
             <<<Displacing   1/coordinate 2 (+)>>>
             <<<Displacing   2/coordinate 1 (+)>>>
             <<<Displacing   2/coordinate 3 (+)>>>
             <<<Displacing   3/coordinate 2 (+)>>>
             <<<Displacing   2/coordinate 2 (+)>>>
             <<<Displacing   2/coordinate 3 (-)>>>
             <<<Displacing   1/coordinate 2 (-)>>>
             <<<Displacing   3/coordinate 3 (-)>>>
             <<<Displacing   3/coordinate 2 (-)>>>
             <<<Displacing   2/coordinate 1 (-)>>>
             <<<Displacing   1/coordinate 3 (+)>>>
             <<<Displacing   1/coordinate 1 (+)>>>
             <<<Displacing   2/coordinate 2 (-)>>>
             <<<Displacing   1/coordinate 3 (-)>>>
             <<<Displacing   3/coordinate 1 (+)>>>
             <<<Displacing   1/coordinate 1 (-)>>>
             <<<Displacing   3/coordinate 1 (-)>>>
             <<<Displacing   4/coordinate 1 (+)>>>
             <<<Displacing   4/coordinate 1 (-)>>>
             <<<Displacing   4/coordinate 2 (+)>>>
             <<<Displacing   6/coordinate 2 (+)>>>
             <<<Displacing   5/coordinate 2 (+)>>>
             <<<Displacing   6/coordinate 1 (+)>>>
             <<<Displacing   4/coordinate 2 (-)>>>
             <<<Displacing   6/coordinate 2 (-)>>>
             <<<Displacing   5/coordinate 2 (-)>>>
             <<<Displacing   4/coordinate 3 (+)>>>
             <<<Displacing   5/coordinate 3 (+)>>>
             <<<Displacing   6/coordinate 3 (+)>>>
             <<<Displacing   5/coordinate 1 (+)>>>
             <<<Displacing   6/coordinate 1 (-)>>>
             <<<Displacing   4/coordinate 3 (-)>>>
             <<<Displacing   5/coordinate 3 (-)>>>
             <<<Displacing   5/coordinate 1 (-)>>>
             <<<Displacing   6/coordinate 3 (-)>>>
             <<<Displacing   8/coordinate 1 (+)>>>
             <<<Displacing   8/coordinate 2 (+)>>>
             <<<Displacing   8/coordinate 1 (-)>>>
             <<<Displacing   9/coordinate 1 (+)>>>
             <<<Displacing   7/coordinate 3 (+)>>>
             <<<Displacing   8/coordinate 2 (-)>>>
             <<<Displacing   9/coordinate 1 (-)>>>
             <<<Displacing   7/coordinate 3 (-)>>>
             <<<Displacing   7/coordinate 1 (+)>>>
             <<<Displacing   7/coordinate 2 (+)>>>
             <<<Displacing   7/coordinate 1 (-)>>>
             <<<Displacing   9/coordinate 2 (+)>>>
             <<<Displacing   8/coordinate 3 (+)>>>
             <<<Displacing   7/coordinate 2 (-)>>>
             <<<Displacing   8/coordinate 3 (-)>>>
             <<<Displacing   9/coordinate 2 (-)>>>
             <<<Displacing   9/coordinate 3 (+)>>>
             <<<Displacing   9/coordinate 3 (-)>>>
             <<<Displacing  10/coordinate 1 (+)>>>
             <<<Displacing  11/coordinate 1 (+)>>>
             <<<Displacing  10/coordinate 2 (+)>>>
             <<<Displacing  10/coordinate 1 (-)>>>
             <<<Displacing  11/coordinate 1 (-)>>>
             <<<Displacing  10/coordinate 2 (-)>>>
             <<<Displacing  11/coordinate 2 (+)>>>
             <<<Displacing  11/coordinate 2 (-)>>>
             <<<Displacing  11/coordinate 3 (+)>>>
             <<<Displacing  10/coordinate 3 (+)>>>
             <<<Displacing  12/coordinate 1 (+)>>>
             <<<Displacing  11/coordinate 3 (-)>>>
             <<<Displacing  10/coordinate 3 (-)>>>
             <<<Displacing  12/coordinate 1 (-)>>>
             <<<Displacing  12/coordinate 3 (+)>>>
             <<<Displacing  12/coordinate 2 (+)>>>
             <<<Displacing  12/coordinate 3 (-)>>>
             <<<Displacing  12/coordinate 2 (-)>>>
             <<<Displacing  13/coordinate 1 (+)>>>
             <<<Displacing  13/coordinate 2 (+)>>>
             <<<Displacing  13/coordinate 3 (+)>>>
             <<<Displacing  13/coordinate 1 (-)>>>
             <<<Displacing  13/coordinate 2 (-)>>>
             <<<Displacing  13/coordinate 3 (-)>>>
             <<<Displacing  14/coordinate 1 (+)>>>
             <<<Displacing  14/coordinate 1 (-)>>>
             <<<Displacing  14/coordinate 2 (+)>>>
             <<<Displacing  14/coordinate 3 (+)>>>
             <<<Displacing  15/coordinate 1 (+)>>>
             <<<Displacing  14/coordinate 3 (-)>>>
             <<<Displacing  14/coordinate 2 (-)>>>
             <<<Displacing  15/coordinate 2 (+)>>>
             <<<Displacing  15/coordinate 1 (-)>>>
             <<<Displacing  15/coordinate 2 (-)>>>
             <<<Displacing  15/coordinate 3 (+)>>>
             <<<Displacing  15/coordinate 3 (-)>>>
             <<<Displacing  16/coordinate 2 (+)>>>
             <<<Displacing  16/coordinate 1 (+)>>>
             <<<Displacing  16/coordinate 3 (+)>>>
             <<<Displacing  16/coordinate 1 (-)>>>
             <<<Displacing  16/coordinate 2 (-)>>>
             <<<Displacing  16/coordinate 3 (-)>>>
             <<<Displacing  17/coordinate 3 (+)>>>
             <<<Displacing  17/coordinate 1 (+)>>>
             <<<Displacing  17/coordinate 3 (-)>>>
             <<<Displacing  17/coordinate 1 (-)>>>
             <<<Displacing  17/coordinate 2 (+)>>>
             <<<Displacing  18/coordinate 1 (+)>>>
             <<<Displacing  17/coordinate 2 (-)>>>
             <<<Displacing  18/coordinate 2 (+)>>>
             <<<Displacing  18/coordinate 1 (-)>>>
             <<<Displacing  18/coordinate 2 (-)>>>
             <<<Displacing  18/coordinate 3 (+)>>>
             <<<Displacing  18/coordinate 3 (-)>>>
             <<<Displacing  19/coordinate 2 (+)>>>
             <<<Displacing  19/coordinate 1 (+)>>>
             <<<Displacing  19/coordinate 2 (-)>>>
             <<<Displacing  19/coordinate 1 (-)>>>
             <<<Displacing  20/coordinate 2 (+)>>>
             <<<Displacing  19/coordinate 3 (+)>>>
             <<<Displacing  20/coordinate 1 (+)>>>
             <<<Displacing  20/coordinate 2 (-)>>>
             <<<Displacing  19/coordinate 3 (-)>>>
             <<<Displacing  20/coordinate 1 (-)>>>
             <<<Displacing  20/coordinate 3 (+)>>>
             <<<Displacing  21/coordinate 2 (+)>>>
             <<<Displacing  20/coordinate 3 (-)>>>
             <<<Displacing  21/coordinate 2 (-)>>>
             <<<Displacing  21/coordinate 1 (+)>>>
             <<<Displacing  21/coordinate 1 (-)>>>
             <<<Displacing  21/coordinate 3 (+)>>>
             <<<Displacing  21/coordinate 3 (-)>>>
             <<<Displacing  22/coordinate 2 (+)>>>
             <<<Displacing  22/coordinate 2 (-)>>>
             <<<Displacing  22/coordinate 1 (+)>>>
             <<<Displacing  22/coordinate 1 (-)>>>
             <<<Displacing  22/coordinate 3 (+)>>>
             <<<Displacing  23/coordinate 2 (+)>>>
             <<<Displacing  23/coordinate 1 (+)>>>
             <<<Displacing  22/coordinate 3 (-)>>>
             <<<Displacing  23/coordinate 2 (-)>>>
             <<<Displacing  23/coordinate 1 (-)>>>
             <<<Displacing  23/coordinate 3 (+)>>>
             <<<Displacing  24/coordinate 1 (+)>>>
             <<<Displacing  23/coordinate 3 (-)>>>
             <<<Displacing  24/coordinate 1 (-)>>>
             <<<Displacing  24/coordinate 2 (+)>>>
             <<<Displacing  24/coordinate 2 (-)>>>
             <<<Displacing  24/coordinate 3 (+)>>>
             <<<Displacing  24/coordinate 3 (-)>>>
             <<<Displacing  25/coordinate 1 (+)>>>
             <<<Displacing  25/coordinate 1 (-)>>>
             <<<Displacing  25/coordinate 2 (+)>>>
             <<<Displacing  26/coordinate 1 (+)>>>
             <<<Displacing  25/coordinate 3 (+)>>>
             <<<Displacing  25/coordinate 2 (-)>>>
             <<<Displacing  26/coordinate 1 (-)>>>
             <<<Displacing  25/coordinate 3 (-)>>>
             <<<Displacing  26/coordinate 2 (+)>>>
             <<<Displacing  26/coordinate 3 (+)>>>
             <<<Displacing  26/coordinate 2 (-)>>>
             <<<Displacing  27/coordinate 1 (+)>>>
             <<<Displacing  26/coordinate 3 (-)>>>
             <<<Displacing  27/coordinate 1 (-)>>>
             <<<Displacing  27/coordinate 2 (+)>>>
             <<<Displacing  27/coordinate 2 (-)>>>
             <<<Displacing  27/coordinate 3 (+)>>>
             <<<Displacing  27/coordinate 3 (-)>>>
             <<<Displacing  28/coordinate 1 (+)>>>
             <<<Displacing  28/coordinate 1 (-)>>>
             <<<Displacing  28/coordinate 3 (+)>>>
             <<<Displacing  28/coordinate 3 (-)>>>
             <<<Displacing  29/coordinate 1 (+)>>>
             <<<Displacing  28/coordinate 2 (+)>>>
             <<<Displacing  29/coordinate 1 (-)>>>
             <<<Displacing  28/coordinate 2 (-)>>>
             <<<Displacing  29/coordinate 2 (+)>>>
             <<<Displacing  30/coordinate 1 (+)>>>
             <<<Displacing  29/coordinate 2 (-)>>>
             <<<Displacing  30/coordinate 1 (-)>>>
             <<<Displacing  30/coordinate 2 (+)>>>
             <<<Displacing  29/coordinate 3 (+)>>>
             <<<Displacing  30/coordinate 2 (-)>>>
             <<<Displacing  29/coordinate 3 (-)>>>
             <<<Displacing  30/coordinate 3 (+)>>>
             <<<Displacing  30/coordinate 3 (-)>>>
             <<<Displacing  31/coordinate 1 (+)>>>
             <<<Displacing  31/coordinate 2 (+)>>>
             <<<Displacing  31/coordinate 1 (-)>>>
             <<<Displacing  31/coordinate 2 (-)>>>
             <<<Displacing  32/coordinate 1 (+)>>>
             <<<Displacing  31/coordinate 3 (+)>>>
             <<<Displacing  31/coordinate 3 (-)>>>
             <<<Displacing  32/coordinate 1 (-)>>>
             <<<Displacing  32/coordinate 2 (+)>>>
             <<<Displacing  32/coordinate 3 (+)>>>
             <<<Displacing  32/coordinate 2 (-)>>>
             <<<Displacing  32/coordinate 3 (-)>>>
             <<<Displacing  33/coordinate 1 (+)>>>
             <<<Displacing  33/coordinate 2 (+)>>>
             <<<Displacing  33/coordinate 1 (-)>>>
             <<<Displacing  33/coordinate 2 (-)>>>
             <<<Displacing  34/coordinate 1 (+)>>>
             <<<Displacing  33/coordinate 3 (+)>>>
             <<<Displacing  33/coordinate 3 (-)>>>
             <<<Displacing  34/coordinate 1 (-)>>>
             <<<Displacing  34/coordinate 2 (+)>>>
             <<<Displacing  35/coordinate 1 (+)>>>
             <<<Displacing  34/coordinate 2 (-)>>>
             <<<Displacing  34/coordinate 3 (+)>>>
             <<<Displacing  35/coordinate 1 (-)>>>
             <<<Displacing  34/coordinate 3 (-)>>>
             <<<Displacing  35/coordinate 3 (+)>>>
             <<<Displacing  35/coordinate 3 (-)>>>
             <<<Displacing  35/coordinate 2 (+)>>>
             <<<Displacing  35/coordinate 2 (-)>>>
             <<<Displacing  36/coordinate 2 (+)>>>
             <<<Displacing  36/coordinate 1 (+)>>>
             <<<Displacing  36/coordinate 2 (-)>>>
             <<<Displacing  36/coordinate 1 (-)>>>
             <<<Displacing  37/coordinate 1 (+)>>>
             <<<Displacing  36/coordinate 3 (+)>>>
             <<<Displacing  37/coordinate 1 (-)>>>
             <<<Displacing  36/coordinate 3 (-)>>>
             <<<Displacing  37/coordinate 2 (+)>>>
             <<<Displacing  37/coordinate 3 (+)>>>
             <<<Displacing  37/coordinate 3 (-)>>>
             <<<Displacing  37/coordinate 2 (-)>>>
             <<<Displacing  38/coordinate 1 (+)>>>
             <<<Displacing  38/coordinate 2 (+)>>>
             <<<Displacing  38/coordinate 1 (-)>>>
             <<<Displacing  38/coordinate 2 (-)>>>
             <<<Displacing  39/coordinate 1 (+)>>>
             <<<Displacing  39/coordinate 2 (+)>>>
             <<<Displacing  38/coordinate 3 (+)>>>
             <<<Displacing  39/coordinate 1 (-)>>>
             <<<Displacing  39/coordinate 2 (-)>>>
             <<<Displacing  38/coordinate 3 (-)>>>
             <<<Displacing  39/coordinate 3 (+)>>>
             <<<Displacing  40/coordinate 1 (+)>>>
             <<<Displacing  40/coordinate 1 (-)>>>
             <<<Displacing  39/coordinate 3 (-)>>>
             <<<Displacing  40/coordinate 2 (+)>>>
             <<<Displacing  41/coordinate 1 (+)>>>
             <<<Displacing  40/coordinate 3 (+)>>>
             <<<Displacing  40/coordinate 2 (-)>>>
             <<<Displacing  41/coordinate 1 (-)>>>
             <<<Displacing  40/coordinate 3 (-)>>>
             <<<Displacing  41/coordinate 2 (+)>>>
             <<<Displacing  41/coordinate 2 (-)>>>
             <<<Displacing  42/coordinate 2 (+)>>>
             <<<Displacing  41/coordinate 3 (+)>>>
             <<<Displacing  42/coordinate 2 (-)>>>
             <<<Displacing  41/coordinate 3 (-)>>>
             <<<Displacing  42/coordinate 1 (+)>>>
             <<<Displacing  42/coordinate 1 (-)>>>
             <<<Displacing  42/coordinate 3 (+)>>>
             <<<Displacing  42/coordinate 3 (-)>>>
             <<<Displacing  43/coordinate 1 (+)>>>
             <<<Displacing  43/coordinate 2 (+)>>>
             <<<Displacing  43/coordinate 1 (-)>>>
             <<<Displacing  43/coordinate 2 (-)>>>
             <<<Displacing  43/coordinate 3 (+)>>>
             <<<Displacing  44/coordinate 1 (+)>>>
             <<<Displacing  43/coordinate 3 (-)>>>
             <<<Displacing  44/coordinate 2 (+)>>>
             <<<Displacing  44/coordinate 1 (-)>>>
             <<<Displacing  44/coordinate 2 (-)>>>
             <<<Displacing  44/coordinate 3 (+)>>>
             <<<Displacing  45/coordinate 1 (+)>>>
             <<<Displacing  44/coordinate 3 (-)>>>
             <<<Displacing  45/coordinate 2 (+)>>>
             <<<Displacing  45/coordinate 1 (-)>>>
             <<<Displacing  45/coordinate 2 (-)>>>
             <<<Displacing  45/coordinate 3 (+)>>>
             <<<Displacing  45/coordinate 3 (-)>>>
             <<<Displacing  46/coordinate 1 (+)>>>
             <<<Displacing  46/coordinate 2 (+)>>>
             <<<Displacing  46/coordinate 1 (-)>>>
             <<<Displacing  46/coordinate 2 (-)>>>
             <<<Displacing  46/coordinate 3 (+)>>>
             <<<Displacing  46/coordinate 3 (-)>>>

-----------------------
VIBRATIONAL FREQUENCIES
-----------------------

Scaling factor for frequencies =  1.000000000 (already applied!)

   0:         0.00 cm**-1
   1:         0.00 cm**-1
   2:         0.00 cm**-1
   3:         0.00 cm**-1
   4:         0.00 cm**-1
   5:         0.00 cm**-1
   6:        14.77 cm**-1
   7:        24.39 cm**-1
   8:        28.19 cm**-1
   9:        44.00 cm**-1
  10:        52.13 cm**-1
  11:        55.91 cm**-1
  12:        59.04 cm**-1
  13:        67.67 cm**-1
  14:        68.64 cm**-1
  15:        75.93 cm**-1
  16:        78.28 cm**-1
  17:       111.61 cm**-1
  18:       118.06 cm**-1
  19:       121.67 cm**-1
  20:       133.67 cm**-1
  21:       155.81 cm**-1
  22:       183.12 cm**-1
  23:       183.93 cm**-1
  24:       222.28 cm**-1
  25:       223.84 cm**-1
  26:       266.33 cm**-1
  27:       275.39 cm**-1
  28:       275.65 cm**-1
  29:       288.11 cm**-1
  30:       383.46 cm**-1
  31:       388.82 cm**-1
  32:       394.02 cm**-1
  33:       398.13 cm**-1
  34:       425.82 cm**-1
  35:       428.95 cm**-1
  36:       453.65 cm**-1
  37:       454.54 cm**-1
  38:       512.96 cm**-1
  39:       588.81 cm**-1
  40:       624.59 cm**-1
  41:       668.17 cm**-1
  42:       690.06 cm**-1
  43:       757.65 cm**-1
  44:       771.27 cm**-1
  45:       773.40 cm**-1
  46:       825.10 cm**-1
  47:       829.10 cm**-1
  48:       859.23 cm**-1
  49:       877.34 cm**-1
  50:       906.84 cm**-1
  51:       920.43 cm**-1
  52:       928.68 cm**-1
  53:       933.48 cm**-1
  54:       935.48 cm**-1
  55:       939.26 cm**-1
  56:       945.35 cm**-1
  57:       953.40 cm**-1
  58:       984.57 cm**-1
  59:       995.39 cm**-1
  60:      1015.66 cm**-1
  61:      1019.14 cm**-1
  62:      1066.14 cm**-1
  63:      1068.21 cm**-1
  64:      1069.82 cm**-1
  65:      1098.17 cm**-1
  66:      1099.62 cm**-1
  67:      1112.18 cm**-1
  68:      1124.00 cm**-1
  69:      1126.38 cm**-1
  70:      1145.38 cm**-1
  71:      1157.55 cm**-1
  72:      1175.76 cm**-1
  73:      1184.29 cm**-1
  74:      1202.26 cm**-1
  75:      1211.33 cm**-1
  76:      1219.19 cm**-1
  77:      1240.21 cm**-1
  78:      1253.81 cm**-1
  79:      1268.37 cm**-1
  80:      1275.86 cm**-1
  81:      1276.43 cm**-1
  82:      1277.75 cm**-1
  83:      1282.87 cm**-1
  84:      1292.84 cm**-1
  85:      1293.47 cm**-1
  86:      1324.87 cm**-1
  87:      1353.24 cm**-1
  88:      1356.80 cm**-1
  89:      1367.80 cm**-1
  90:      1379.95 cm**-1
  91:      1422.88 cm**-1
  92:      1425.82 cm**-1
  93:      1428.48 cm**-1
  94:      1455.04 cm**-1
  95:      1471.98 cm**-1
  96:      1495.27 cm**-1
  97:      1501.57 cm**-1
  98:      1504.39 cm**-1
  99:      1504.71 cm**-1
 100:      1506.48 cm**-1
 101:      1507.13 cm**-1
 102:      1508.03 cm**-1
 103:      1510.94 cm**-1
 104:      1513.69 cm**-1
 105:      1542.98 cm**-1
 106:      1561.27 cm**-1
 107:      1564.29 cm**-1
 108:      1567.59 cm**-1
 109:      1668.49 cm**-1
 110:      2859.55 cm**-1
 111:      2879.97 cm**-1
 112:      2884.51 cm**-1
 113:      2934.27 cm**-1
 114:      2940.17 cm**-1
 115:      2945.27 cm**-1
 116:      2947.66 cm**-1
 117:      2955.11 cm**-1
 118:      2964.25 cm**-1
 119:      2966.11 cm**-1
 120:      2968.19 cm**-1
 121:      2973.65 cm**-1
 122:      2979.94 cm**-1
 123:      2980.25 cm**-1
 124:      2985.87 cm**-1
 125:      2989.18 cm**-1
 126:      2998.39 cm**-1
 127:      2999.36 cm**-1
 128:      3005.11 cm**-1
 129:      3030.75 cm**-1
 130:      3050.51 cm**-1
 131:      3056.92 cm**-1
 132:      3063.47 cm**-1
 133:      3072.89 cm**-1
 134:      3089.03 cm**-1
 135:      3315.48 cm**-1
 136:      3402.47 cm**-1
 137:      3593.82 cm**-1


------------
NORMAL MODES
------------

These modes are the cartesian displacements weighted by the diagonal matrix
M(i,i)=1/sqrt(m[i]) where m[i] is the mass of the displaced atom
Thus, these vectors are normalized but *not* orthogonal

                  0          1          2          3          4          5    
      0       0.000000   0.000000   0.000000   0.000000   0.000000   0.000000
      1       0.000000   0.000000   0.000000   0.000000   0.000000   0.000000
      2       0.000000   0.000000   0.000000   0.000000   0.000000   0.000000
      3       0.000000   0.000000   0.000000   0.000000   0.000000   0.000000
      4       0.000000   0.000000   0.000000   0.000000   0.000000   0.000000
      5       0.000000   0.000000   0.000000   0.000000   0.000000   0.000000
      6       0.000000   0.000000   0.000000   0.000000   0.000000   0.000000
      7       0.000000   0.000000   0.000000   0.000000   0.000000   0.000000
      8       0.000000   0.000000   0.000000   0.000000   0.000000   0.000000
      9       0.000000   0.000000   0.000000   0.000000   0.000000   0.000000
     10       0.000000   0.000000   0.000000   0.000000   0.000000   0.000000
     11       0.000000   0.000000   0.000000   0.000000   0.000000   0.000000
     12       0.000000   0.000000   0.000000   0.000000   0.000000   0.000000
     13       0.000000   0.000000   0.000000   0.000000   0.000000   0.000000
     14       0.000000   0.000000   0.000000   0.000000   0.000000   0.000000
     15       0.000000   0.000000   0.000000   0.000000   0.000000   0.000000
     16       0.000000   0.000000   0.000000   0.000000   0.000000   0.000000
     17       0.000000   0.000000   0.000000   0.000000   0.000000   0.000000
     18       0.000000   0.000000   0.000000   0.000000   0.000000   0.000000
     19       0.000000   0.000000   0.000000   0.000000   0.000000   0.000000
     20       0.000000   0.000000   0.000000   0.000000   0.000000   0.000000
     21       0.000000   0.000000   0.000000   0.000000   0.000000   0.000000
     22       0.000000   0.000000   0.000000   0.000000   0.000000   0.000000
     23       0.000000   0.000000   0.000000   0.000000   0.000000   0.000000
     24       0.000000   0.000000   0.000000   0.000000   0.000000   0.000000
     25       0.000000   0.000000   0.000000   0.000000   0.000000   0.000000
     26       0.000000   0.000000   0.000000   0.000000   0.000000   0.000000
     27       0.000000   0.000000   0.000000   0.000000   0.000000   0.000000
     28       0.000000   0.000000   0.000000   0.000000   0.000000   0.000000
     29       0.000000   0.000000   0.000000   0.000000   0.000000   0.000000
     30       0.000000   0.000000   0.000000   0.000000   0.000000   0.000000
     31       0.000000   0.000000   0.000000   0.000000   0.000000   0.000000
     32       0.000000   0.000000   0.000000   0.000000   0.000000   0.000000
     33       0.000000   0.000000   0.000000   0.000000   0.000000   0.000000
     34       0.000000   0.000000   0.000000   0.000000   0.000000   0.000000
     35       0.000000   0.000000   0.000000   0.000000   0.000000   0.000000
     36       0.000000   0.000000   0.000000   0.000000   0.000000   0.000000
     37       0.000000   0.000000   0.000000   0.000000   0.000000   0.000000
     38       0.000000   0.000000   0.000000   0.000000   0.000000   0.000000
     39       0.000000   0.000000   0.000000   0.000000   0.000000   0.000000
     40       0.000000   0.000000   0.000000   0.000000   0.000000   0.000000
     41       0.000000   0.000000   0.000000   0.000000   0.000000   0.000000
     42       0.000000   0.000000   0.000000   0.000000   0.000000   0.000000
     43       0.000000   0.000000   0.000000   0.000000   0.000000   0.000000
     44       0.000000   0.000000   0.000000   0.000000   0.000000   0.000000
     45       0.000000   0.000000   0.000000   0.000000   0.000000   0.000000
     46       0.000000   0.000000   0.000000   0.000000   0.000000   0.000000
     47       0.000000   0.000000   0.000000   0.000000   0.000000   0.000000
     48       0.000000   0.000000   0.000000   0.000000   0.000000   0.000000
     49       0.000000   0.000000   0.000000   0.000000   0.000000   0.000000
     50       0.000000   0.000000   0.000000   0.000000   0.000000   0.000000
     51       0.000000   0.000000   0.000000   0.000000   0.000000   0.000000
     52       0.000000   0.000000   0.000000   0.000000   0.000000   0.000000
     53       0.000000   0.000000   0.000000   0.000000   0.000000   0.000000
     54       0.000000   0.000000   0.000000   0.000000   0.000000   0.000000
     55       0.000000   0.000000   0.000000   0.000000   0.000000   0.000000
     56       0.000000   0.000000   0.000000   0.000000   0.000000   0.000000
     57       0.000000   0.000000   0.000000   0.000000   0.000000   0.000000
     58       0.000000   0.000000   0.000000   0.000000   0.000000   0.000000
     59       0.000000   0.000000   0.000000   0.000000   0.000000   0.000000
     60       0.000000   0.000000   0.000000   0.000000   0.000000   0.000000
     61       0.000000   0.000000   0.000000   0.000000   0.000000   0.000000
     62       0.000000   0.000000   0.000000   0.000000   0.000000   0.000000
     63       0.000000   0.000000   0.000000   0.000000   0.000000   0.000000
     64       0.000000   0.000000   0.000000   0.000000   0.000000   0.000000
     65       0.000000   0.000000   0.000000   0.000000   0.000000   0.000000
     66       0.000000   0.000000   0.000000   0.000000   0.000000   0.000000
     67       0.000000   0.000000   0.000000   0.000000   0.000000   0.000000
     68       0.000000   0.000000   0.000000   0.000000   0.000000   0.000000
     69       0.000000   0.000000   0.000000   0.000000   0.000000   0.000000
     70       0.000000   0.000000   0.000000   0.000000   0.000000   0.000000
     71       0.000000   0.000000   0.000000   0.000000   0.000000   0.000000
     72       0.000000   0.000000   0.000000   0.000000   0.000000   0.000000
     73       0.000000   0.000000   0.000000   0.000000   0.000000   0.000000
     74       0.000000   0.000000   0.000000   0.000000   0.000000   0.000000
     75       0.000000   0.000000   0.000000   0.000000   0.000000   0.000000
     76       0.000000   0.000000   0.000000   0.000000   0.000000   0.000000
     77       0.000000   0.000000   0.000000   0.000000   0.000000   0.000000
     78       0.000000   0.000000   0.000000   0.000000   0.000000   0.000000
     79       0.000000   0.000000   0.000000   0.000000   0.000000   0.000000
     80       0.000000   0.000000   0.000000   0.000000   0.000000   0.000000
     81       0.000000   0.000000   0.000000   0.000000   0.000000   0.000000
     82       0.000000   0.000000   0.000000   0.000000   0.000000   0.000000
     83       0.000000   0.000000   0.000000   0.000000   0.000000   0.000000
     84       0.000000   0.000000   0.000000   0.000000   0.000000   0.000000
     85       0.000000   0.000000   0.000000   0.000000   0.000000   0.000000
     86       0.000000   0.000000   0.000000   0.000000   0.000000   0.000000
     87       0.000000   0.000000   0.000000   0.000000   0.000000   0.000000
     88       0.000000   0.000000   0.000000   0.000000   0.000000   0.000000
     89       0.000000   0.000000   0.000000   0.000000   0.000000   0.000000
     90       0.000000   0.000000   0.000000   0.000000   0.000000   0.000000
     91       0.000000   0.000000   0.000000   0.000000   0.000000   0.000000
     92       0.000000   0.000000   0.000000   0.000000   0.000000   0.000000
     93       0.000000   0.000000   0.000000   0.000000   0.000000   0.000000
     94       0.000000   0.000000   0.000000   0.000000   0.000000   0.000000
     95       0.000000   0.000000   0.000000   0.000000   0.000000   0.000000
     96       0.000000   0.000000   0.000000   0.000000   0.000000   0.000000
     97       0.000000   0.000000   0.000000   0.000000   0.000000   0.000000
     98       0.000000   0.000000   0.000000   0.000000   0.000000   0.000000
     99       0.000000   0.000000   0.000000   0.000000   0.000000   0.000000
    100       0.000000   0.000000   0.000000   0.000000   0.000000   0.000000
    101       0.000000   0.000000   0.000000   0.000000   0.000000   0.000000
    102       0.000000   0.000000   0.000000   0.000000   0.000000   0.000000
    103       0.000000   0.000000   0.000000   0.000000   0.000000   0.000000
    104       0.000000   0.000000   0.000000   0.000000   0.000000   0.000000
    105       0.000000   0.000000   0.000000   0.000000   0.000000   0.000000
    106       0.000000   0.000000   0.000000   0.000000   0.000000   0.000000
    107       0.000000   0.000000   0.000000   0.000000   0.000000   0.000000
    108       0.000000   0.000000   0.000000   0.000000   0.000000   0.000000
    109       0.000000   0.000000   0.000000   0.000000   0.000000   0.000000
    110       0.000000   0.000000   0.000000   0.000000   0.000000   0.000000
    111       0.000000   0.000000   0.000000   0.000000   0.000000   0.000000
    112       0.000000   0.000000   0.000000   0.000000   0.000000   0.000000
    113       0.000000   0.000000   0.000000   0.000000   0.000000   0.000000
    114       0.000000   0.000000   0.000000   0.000000   0.000000   0.000000
    115       0.000000   0.000000   0.000000   0.000000   0.000000   0.000000
    116       0.000000   0.000000   0.000000   0.000000   0.000000   0.000000
    117       0.000000   0.000000   0.000000   0.000000   0.000000   0.000000
    118       0.000000   0.000000   0.000000   0.000000   0.000000   0.000000
    119       0.000000   0.000000   0.000000   0.000000   0.000000   0.000000
    120       0.000000   0.000000   0.000000   0.000000   0.000000   0.000000
    121       0.000000   0.000000   0.000000   0.000000   0.000000   0.000000
    122       0.000000   0.000000   0.000000   0.000000   0.000000   0.000000
    123       0.000000   0.000000   0.000000   0.000000   0.000000   0.000000
    124       0.000000   0.000000   0.000000   0.000000   0.000000   0.000000
    125       0.000000   0.000000   0.000000   0.000000   0.000000   0.000000
    126       0.000000   0.000000   0.000000   0.000000   0.000000   0.000000
    127       0.000000   0.000000   0.000000   0.000000   0.000000   0.000000
    128       0.000000   0.000000   0.000000   0.000000   0.000000   0.000000
    129       0.000000   0.000000   0.000000   0.000000   0.000000   0.000000
    130       0.000000   0.000000   0.000000   0.000000   0.000000   0.000000
    131       0.000000   0.000000   0.000000   0.000000   0.000000   0.000000
    132       0.000000   0.000000   0.000000   0.000000   0.000000   0.000000
    133       0.000000   0.000000   0.000000   0.000000   0.000000   0.000000
    134       0.000000   0.000000   0.000000   0.000000   0.000000   0.000000
    135       0.000000   0.000000   0.000000   0.000000   0.000000   0.000000
    136       0.000000   0.000000   0.000000   0.000000   0.000000   0.000000
    137       0.000000   0.000000   0.000000   0.000000   0.000000   0.000000
                  6          7          8          9         10         11    
      0      -0.028305   0.081329   0.033529   0.006288   0.068543  -0.048189
      1       0.066891   0.087864   0.080431  -0.007350   0.071513   0.001897
      2      -0.004268   0.078094   0.029172   0.061948   0.057081  -0.042784
      3      -0.026054   0.066228   0.029788   0.005241   0.063931  -0.042712
      4       0.046998   0.070019   0.072917   0.001553   0.061841  -0.002124
      5       0.032124   0.041977   0.024467   0.045550   0.051772  -0.015906
      6      -0.002985   0.050358   0.024598  -0.010462   0.036312  -0.015241
      7       0.016628   0.052702   0.058613   0.007875   0.018321   0.004779
      8       0.026113   0.007867   0.004561   0.035191  -0.020562   0.020264
      9       0.016741   0.051397   0.022403  -0.023678   0.013387   0.005107
     10       0.007212   0.056410   0.052201   0.006209  -0.016115   0.014875
     11      -0.018339   0.015933  -0.010333   0.044532  -0.086630   0.025658
     12       0.015529   0.067075   0.026879  -0.022187   0.019287  -0.001360
     13       0.029176   0.075002   0.060788  -0.002334  -0.004919   0.017758
     14      -0.051485   0.053780  -0.003605   0.061536  -0.078263  -0.003642
     15      -0.007022   0.081581   0.032285  -0.007427   0.046381  -0.027747
     16       0.059150   0.090134   0.074862  -0.009450   0.038466   0.011703
     17      -0.045043   0.083714   0.015855   0.069860  -0.007396  -0.037014
     18      -0.041555   0.065531   0.030906   0.015813   0.080966  -0.059026
     19       0.053818   0.068215   0.077840   0.003169   0.087821  -0.010367
     20       0.065287   0.037724   0.036107   0.039463   0.102632  -0.021335
     21       0.033165   0.037065   0.015267  -0.033223  -0.011154   0.025670
     22      -0.015970   0.043521   0.041144   0.011173  -0.051725   0.020340
     23      -0.023981  -0.011276  -0.028200   0.039646  -0.146158   0.051972
     24      -0.007752   0.092897   0.035562  -0.006509   0.050056  -0.032282
     25       0.076376   0.103377   0.081144  -0.016241   0.045767   0.014424
     26      -0.071404   0.111032   0.020349   0.082868  -0.002628  -0.058921
     27       0.011548   0.030112   0.025888  -0.031180   0.027767   0.005865
     28      -0.059985   0.024570   0.045375   0.019917   0.004090   0.001808
     29       0.032558  -0.047584   0.003696  -0.013170  -0.039713   0.075095
     30      -0.003372   0.022143  -0.095295   0.159646  -0.127771   0.067162
     31       0.022728  -0.040643   0.012244   0.012660  -0.124459  -0.077020
     32       0.035144   0.067478  -0.210151   0.042770   0.054825  -0.081928
     33       0.006005   0.015274   0.029947  -0.023719   0.033219  -0.001099
     34      -0.093298   0.007213   0.046997   0.036010   0.011565  -0.008035
     35       0.092037  -0.091454   0.021725  -0.013561  -0.026060   0.060866
     36      -0.046228   0.025565   0.057467  -0.013903   0.046210  -0.012888
     37      -0.316050   0.095795   0.069301   0.057821   0.016473   0.005302
     38       0.050964  -0.077510   0.031368  -0.008266  -0.022032   0.059300
     39       0.024134  -0.016375   0.022838  -0.013729   0.036866  -0.009795
     40      -0.049457  -0.010963   0.043194   0.032382   0.011303  -0.011397
     41       0.318750  -0.187298   0.000379  -0.031991  -0.027785   0.042906
     42       0.012780   0.057589   0.008827   0.029371  -0.144165   0.041915
     43      -0.016354  -0.059222  -0.044782   0.067345  -0.032173  -0.021563
     44      -0.017449   0.022924  -0.082536  -0.203447   0.037520   0.058460
     45      -0.008234   0.017706  -0.040265   0.084664  -0.122686   0.088109
     46      -0.014880  -0.047501  -0.038027   0.040422  -0.034921  -0.031183
     47      -0.008552   0.015650  -0.065833  -0.154091   0.030775   0.058543
     48      -0.017231   0.002617  -0.064406   0.110086  -0.104744   0.117308
     49       0.014077  -0.032362   0.076315  -0.005358  -0.204297  -0.002726
     50       0.067167   0.103739  -0.307382   0.154491   0.054606  -0.225951
     51       0.019120  -0.015661   0.035710  -0.053298  -0.202613  -0.008393
     52      -0.043715  -0.040179  -0.109676   0.006899   0.014572   0.002369
     53      -0.000901   0.009110  -0.045582  -0.173394   0.010840   0.039374
     54       0.039600   0.001209   0.076587  -0.115868  -0.274287  -0.063403
     55      -0.102383  -0.120825  -0.216726   0.127570   0.222880   0.131371
     56       0.022265  -0.001244   0.010122  -0.298973  -0.067498  -0.048979
     57       0.070786   0.035068   0.133374  -0.202541  -0.382809  -0.140101
     58      -0.015362   0.022377  -0.068177  -0.100028  -0.111214  -0.075866
     59      -0.026790   0.032207  -0.110969  -0.133862   0.062918   0.095979
     60      -0.001102   0.032799   0.022858  -0.010498   0.034513  -0.013004
     61      -0.008079   0.030916   0.052013   0.019396   0.012535  -0.003257
     62       0.074521  -0.035691   0.007086   0.017630  -0.019921   0.040084
     63      -0.009337   0.021269   0.020885   0.010200   0.041623  -0.033507
     64       0.016356   0.021013   0.055117   0.029015   0.022324  -0.015589
     65       0.158959  -0.060892   0.017376   0.035157   0.006128   0.013891
     66       0.003477   0.027768  -0.111899   0.174109  -0.118166   0.046864
     67       0.009098  -0.040383   0.035750   0.013341  -0.171535  -0.069772
     68       0.058590   0.093963  -0.276367   0.120835   0.053498  -0.178378
     69      -0.038397   0.002597  -0.118921   0.191385  -0.050229   0.165406
     70      -0.025779  -0.078505  -0.065506   0.112267  -0.011260   0.003592
     71       0.014814  -0.002095  -0.003409  -0.199046  -0.027578   0.005643
     72       0.041400   0.029806   0.007118  -0.042007   0.015531   0.020848
     73       0.089489  -0.097608   0.029439   0.033151   0.018608  -0.029965
     74      -0.101670  -0.024066   0.065204   0.012282  -0.009402   0.051526
     75       0.072804   0.043364   0.014332  -0.057435   0.001640  -0.033817
     76       0.050415  -0.079327   0.032171   0.035646   0.018355  -0.020343
     77      -0.361652   0.086894   0.079625   0.035698  -0.004030   0.133448
     78       0.054511   0.033516  -0.025891  -0.049837   0.006899   0.092477
     79       0.352592  -0.202664   0.013241   0.006031   0.008951  -0.115661
     80      -0.054367  -0.041036   0.055436   0.006078  -0.012879   0.052223
     81      -0.043272  -0.136622  -0.063065   0.070775   0.040725   0.118233
     82      -0.032118  -0.006225  -0.099846  -0.055869  -0.043958  -0.034482
     83       0.005298  -0.013479  -0.011355  -0.068536   0.027750   0.066179
     84      -0.090019  -0.180758  -0.153143   0.209291   0.214681   0.312913
     85      -0.058779  -0.065926  -0.133211   0.046961   0.073484   0.043120
     86       0.025050  -0.039260   0.050047  -0.096509  -0.022161  -0.059503
     87      -0.060827  -0.150361  -0.097554   0.125489   0.105118   0.197637
     88       0.021462   0.067563  -0.003775  -0.162206  -0.242171  -0.185005
     89      -0.015154  -0.000470  -0.060804   0.052135   0.102048   0.245081
     90      -0.018879  -0.177047   0.005883  -0.065296  -0.033415  -0.127549
     91      -0.054395   0.007916  -0.175420  -0.112669   0.006311   0.025542
     92       0.011439  -0.020969   0.007728  -0.080837   0.010760   0.024449
     93      -0.007549  -0.172835   0.031125  -0.104718  -0.079310  -0.189845
     94      -0.084430  -0.029828  -0.238711  -0.059159   0.138998   0.113457
     95       0.029707  -0.039703   0.052128  -0.192780  -0.052889  -0.149505
     96       0.010837  -0.160272   0.070556  -0.162796  -0.156808  -0.277506
     97      -0.043435   0.040760  -0.166703  -0.176160  -0.062273  -0.007850
     98      -0.008360   0.002983  -0.055240  -0.052125   0.062648   0.153065
     99       0.021453   0.021653   0.015926  -0.030526   0.025528   0.022031
    100      -0.030993  -0.082869   0.032358   0.064595   0.039704   0.051967
    101      -0.003981  -0.083873   0.100676   0.016519   0.002453  -0.071781
    102       0.032113   0.006218   0.050628  -0.028214   0.030737  -0.054337
    103      -0.238582  -0.004347   0.056132   0.074653   0.040833   0.126065
    104      -0.033432  -0.074920   0.111024   0.018514   0.003665  -0.075323
    105      -0.023558   0.018029   0.006352  -0.008666   0.040712   0.081091
    106      -0.001207  -0.096128   0.028267   0.064945   0.040874   0.044150
    107       0.198431  -0.165486   0.078004   0.010978   0.004785  -0.141933
    108       0.031836   0.067785   0.026198  -0.032568   0.002408   0.014222
    109       0.022988   0.077232   0.056308  -0.003329  -0.031070   0.024953
    110      -0.082828   0.058792  -0.014260   0.068800  -0.128653  -0.000323
    111      -0.045770   0.092621   0.037562   0.017836   0.088923  -0.068481
    112       0.088996   0.099620   0.090617  -0.012402   0.103894  -0.002957
    113      -0.000164   0.101613   0.043573   0.068890   0.110818  -0.068739
    114      -0.046010  -0.240897  -0.040302  -0.023557   0.108921  -0.100681
    115      -0.050771   0.027003  -0.179027  -0.153142  -0.025034   0.014223
    116       0.019370  -0.034770   0.050324   0.012152   0.007418   0.040151
    117      -0.038024  -0.263330  -0.015286  -0.084180   0.085353  -0.213218
    118      -0.062152   0.035360  -0.222941  -0.197379   0.002790   0.038599
    119       0.021648  -0.038904   0.058278   0.007460   0.001239   0.021143
    120      -0.066094  -0.258539  -0.082656   0.042415   0.201726  -0.005855
    121      -0.060441  -0.002843  -0.186667  -0.098288   0.036839   0.041140
    122       0.030508  -0.055927   0.092256   0.009062  -0.019012  -0.039557
    123      -0.053367  -0.246345  -0.056145   0.001406   0.142366  -0.063606
    124      -0.027127   0.062239  -0.130186  -0.192595  -0.137426  -0.045179
    125       0.011577  -0.019424   0.030992   0.087083   0.037163   0.150841
    126       0.045972   0.038428  -0.008329  -0.050043   0.009450   0.046437
    127       0.079622  -0.149012   0.008846   0.083491   0.057066   0.047124
    128      -0.130401  -0.048203   0.151979   0.025004   0.008015  -0.098561
    129       0.057241   0.048976  -0.001577  -0.062618  -0.000085   0.009018
    130       0.050980  -0.136734   0.014823   0.081808   0.055257   0.053901
    131      -0.288601   0.017491   0.183226   0.018159  -0.000119  -0.056508
    132       0.037049   0.032083  -0.001842  -0.042566   0.015512   0.043847
    133       0.029263  -0.145926   0.015620   0.096062   0.066032   0.081787
    134      -0.089796  -0.080059   0.169208   0.037215   0.019699  -0.163654
    135       0.059300   0.046129  -0.037886  -0.059153   0.001260   0.104552
    136       0.238718  -0.211749  -0.021102   0.086198   0.062472   0.002107
    137      -0.105621  -0.055884   0.142957   0.023913   0.007456  -0.095599
                 12         13         14         15         16         17    
      0      -0.028789  -0.001103  -0.053247   0.011931   0.026364   0.035237
      1       0.011158   0.090309  -0.039843   0.055819  -0.002383   0.003247
      2      -0.029292   0.049086  -0.075228   0.058710   0.085318   0.045018
      3      -0.030346  -0.011433  -0.026217   0.008092   0.070624   0.018651
      4       0.010268   0.040482  -0.002830   0.028781   0.082215   0.005975
      5      -0.034491   0.073597  -0.017626   0.078251   0.148648  -0.022354
      6      -0.021459  -0.001809   0.001700  -0.002125  -0.001472  -0.025861
      7       0.022674  -0.034290   0.037376  -0.032813   0.062665   0.003287
      8      -0.012955   0.010484   0.051523   0.007233   0.051305  -0.072943
      9      -0.013408   0.020859  -0.002843  -0.003370  -0.111400  -0.058309
     10       0.035714  -0.058602   0.036963  -0.066592  -0.037236  -0.007025
     11       0.011371  -0.075393   0.054976  -0.078326  -0.097126  -0.066242
     12      -0.012757   0.031406  -0.031085   0.000105  -0.159243  -0.047286
     13       0.035522  -0.009133  -0.001104  -0.040901  -0.126146  -0.015019
     14       0.014948  -0.100292  -0.005688  -0.099983  -0.166202  -0.007749
     15      -0.020224   0.019949  -0.056401   0.006971  -0.093169   0.001953
     16       0.023873   0.064252  -0.038939   0.018590  -0.111406  -0.006658
     17      -0.004495  -0.039332  -0.069777  -0.033638  -0.082876   0.051550
     18      -0.037505  -0.028038  -0.025763   0.011421   0.158743   0.043968
     19       0.000368   0.060155  -0.005142   0.056369   0.161002   0.013212
     20      -0.053480   0.141142  -0.023956   0.146977   0.267640  -0.028601
     21      -0.010812   0.031239   0.013483  -0.003132  -0.158710  -0.092897
     22       0.047719  -0.117805   0.065817  -0.115387  -0.045305  -0.006978
     23       0.025569  -0.122370   0.100318  -0.125931  -0.154959  -0.102652
     24      -0.019168   0.027240  -0.078014   0.008533  -0.132109   0.013866
     25       0.024344   0.100794  -0.068364   0.036505  -0.182068  -0.008386
     26      -0.001117  -0.059653  -0.116644  -0.051488  -0.143183   0.101651
     27      -0.006379  -0.001972   0.043150  -0.016536  -0.020998   0.016543
     28       0.041426  -0.093413   0.080541  -0.054527   0.111086   0.055056
     29       0.032645   0.022214   0.151616  -0.008379  -0.007490   0.025809
     30       0.000053  -0.014119  -0.063750   0.072212   0.051504   0.032989
     31      -0.102378   0.174904   0.007904  -0.059253   0.001075  -0.002469
     32       0.072470   0.040793  -0.000932  -0.043569   0.016422  -0.007526
     33      -0.004396  -0.006023   0.026891  -0.013119  -0.020414   0.009045
     34       0.052907  -0.100350   0.058926  -0.044455   0.117767   0.037857
     35       0.011410   0.023046   0.106174  -0.011327  -0.035128   0.019916
     36       0.012160   0.011118   0.001391   0.010228  -0.037973   0.054459
     37       0.141907  -0.056890   0.108108   0.017919   0.140854   0.142039
     38       0.026531   0.032550   0.105470   0.002307  -0.036077   0.043629
     39      -0.011381  -0.017396  -0.002958  -0.013609  -0.024986  -0.036435
     40       0.035792  -0.108619   0.046660  -0.056020   0.113061   0.015069
     41      -0.079834  -0.022279   0.043027  -0.071790  -0.060021  -0.097816
     42       0.044218   0.003974  -0.034978  -0.009032   0.042907   0.036214
     43      -0.205814  -0.034179   0.057607   0.130756  -0.059087  -0.012471
     44       0.091060   0.010944  -0.084244  -0.051452   0.043732   0.020596
     45       0.020693   0.002177  -0.079229   0.009183   0.063675   0.025365
     46      -0.185572  -0.034363   0.067540   0.117752  -0.060151  -0.005797
     47       0.047135   0.009522  -0.085958  -0.024359   0.038280   0.008296
     48      -0.045196  -0.048553  -0.068859   0.075346   0.050620   0.006802
     49      -0.024089   0.301176  -0.117626  -0.112852   0.035715   0.150695
     50       0.125246   0.045275   0.078749  -0.029337   0.002177  -0.037217
     51       0.067725  -0.052058  -0.088005   0.052877   0.080740  -0.022497
     52      -0.138589  -0.012797   0.046940   0.063755  -0.055636   0.011236
     53       0.049318  -0.001899  -0.086009  -0.009980   0.040487  -0.001428
     54       0.101299  -0.082686  -0.086801   0.093563   0.087584  -0.029688
     55      -0.213788   0.063267   0.036722  -0.061545  -0.071098   0.007259
     56       0.107128  -0.047684  -0.091477   0.028025   0.053558  -0.032029
     57       0.150321  -0.126050  -0.087076   0.155049   0.099004  -0.034597
     58      -0.057482  -0.055357   0.040758   0.124476  -0.040617   0.020520
     59       0.057931   0.032198  -0.095418  -0.053371   0.038308   0.026700
     60      -0.022408  -0.011724   0.017951  -0.005934   0.021889  -0.028975
     61       0.020103  -0.074641   0.057516  -0.048220   0.118429   0.009358
     62      -0.016709   0.028406   0.086483   0.013973   0.068101  -0.097758
     63      -0.039118  -0.032256  -0.002614  -0.002591   0.075687  -0.064149
     64       0.000921  -0.073273   0.035504  -0.040483   0.148805  -0.032572
     65      -0.069300   0.045058   0.030041   0.036378   0.129468  -0.207689
     66       0.000666  -0.042686  -0.046829   0.086733   0.045833   0.024133
     67      -0.055862   0.332310  -0.029081  -0.143144   0.025645   0.035648
     68       0.111230   0.035798   0.048828  -0.027889   0.006641  -0.019725
     69      -0.023359   0.028874  -0.098741  -0.008613   0.058624   0.034798
     70      -0.229918  -0.034074   0.045136   0.137777  -0.056046  -0.019646
     71       0.048837  -0.022329  -0.087729   0.019700   0.048708  -0.019381
     72      -0.015977  -0.015981   0.091671  -0.039136   0.009883   0.008307
     73      -0.012840  -0.137436  -0.033207  -0.081358   0.073299  -0.087207
     74       0.080341   0.067285   0.099975   0.051598  -0.037541   0.122377
     75      -0.092886  -0.120214   0.076191  -0.126609   0.078883   0.069665
     76       0.007455  -0.116683  -0.014679  -0.064264   0.074091  -0.071912
     77       0.241987   0.227407   0.222222   0.190031  -0.051908   0.193417
     78       0.036868   0.057766   0.184045   0.003396  -0.007778  -0.038291
     79      -0.185602  -0.307885  -0.150653  -0.232964   0.099389  -0.147736
     80       0.062332   0.054146   0.099658   0.035104  -0.036783   0.101490
     81      -0.028185   0.028958  -0.092157  -0.085153   0.060247  -0.042817
     82      -0.088521  -0.031880   0.037355   0.085916  -0.045478   0.015953
     83      -0.039990   0.002285  -0.055325   0.015180   0.023214  -0.001713
     84      -0.128348   0.096355  -0.154690  -0.238905   0.071715  -0.062935
     85      -0.170084   0.008095   0.044727   0.028548  -0.061443   0.009092
     86      -0.029231  -0.024107   0.027100   0.119469  -0.011011   0.013044
     87      -0.067803   0.054030  -0.119165  -0.144983   0.066076  -0.050514
     88      -0.010049  -0.102548   0.074865   0.230205  -0.043750   0.032335
     89      -0.126153   0.038106  -0.129560  -0.092062   0.048469  -0.017981
     90       0.067115  -0.008333   0.028072   0.060775   0.013219  -0.015726
     91      -0.032026  -0.006781  -0.040667  -0.015823  -0.010255   0.001526
     92      -0.034479  -0.006499  -0.028703   0.049385   0.011880   0.004127
     93       0.096152  -0.030269   0.049923   0.114150   0.010308  -0.018096
     94      -0.071113   0.057063  -0.059818  -0.141644  -0.023270   0.026124
     95       0.048035  -0.036838   0.043670   0.150997  -0.012500   0.017368
     96       0.139435  -0.067305   0.076240   0.197211   0.010963  -0.026460
     97       0.022401  -0.038585  -0.065443   0.022256   0.016581  -0.023819
     98      -0.046122   0.019657  -0.116531  -0.057693   0.049666  -0.016596
     99       0.008054   0.008554   0.061838  -0.008762  -0.020550  -0.006114
    100       0.140655   0.030600  -0.006292   0.075059  -0.024908  -0.136265
    101      -0.048792  -0.082263  -0.084688  -0.051523  -0.024515   0.126845
    102      -0.066856  -0.055411  -0.027936  -0.062973   0.003596  -0.092841
    103       0.261359   0.222127   0.128209   0.199312  -0.030585  -0.369972
    104      -0.044894  -0.065584  -0.081705  -0.043078  -0.020635   0.073922
    105       0.114882   0.102868   0.062072   0.093379  -0.100768   0.029095
    106       0.129919   0.007184  -0.029779   0.063452  -0.031140  -0.095652
    107      -0.155386  -0.262735  -0.230283  -0.161090  -0.033568   0.362234
    108      -0.005834   0.048125  -0.033363  -0.002864  -0.247976  -0.074859
    109       0.045086  -0.029269  -0.001461  -0.068817  -0.207269  -0.024280
    110       0.032793  -0.167520  -0.004443  -0.168079  -0.287211  -0.004919
    111      -0.034265  -0.010285  -0.072492   0.017551   0.081986   0.073747
    112       0.001738   0.147488  -0.070282   0.103658   0.012419   0.008574
    113      -0.044542   0.097152  -0.125861   0.112808   0.157916   0.090296
    114       0.033094   0.061039   0.058736  -0.040502  -0.028113   0.033014
    115       0.004189  -0.021021  -0.063942  -0.007324   0.009317  -0.015291
    116      -0.121373  -0.011291   0.019752   0.094177  -0.018821   0.021542
[...]
  14:        68.64    0.000000  (  0.000000   0.000000   0.000000)
  15:        75.93    0.000000  (  0.000000   0.000000   0.000000)
  16:        78.28    0.000000  (  0.000000   0.000000   0.000000)
  17:       111.61    0.000000  (  0.000000   0.000000   0.000000)
  18:       118.06    0.000000  (  0.000000   0.000000   0.000000)
  19:       121.67    0.000000  (  0.000000   0.000000   0.000000)
  20:       133.67    0.000000  (  0.000000   0.000000   0.000000)
  21:       155.81    0.000000  (  0.000000   0.000000   0.000000)
  22:       183.12    0.000000  (  0.000000   0.000000   0.000000)
  23:       183.93    0.000000  (  0.000000   0.000000   0.000000)
  24:       222.28    0.000000  (  0.000000   0.000000   0.000000)
  25:       223.84    0.000000  (  0.000000   0.000000   0.000000)
  26:       266.33    0.000000  (  0.000000   0.000000   0.000000)
  27:       275.39    0.000000  (  0.000000   0.000000   0.000000)
  28:       275.65    0.000000  (  0.000000   0.000000   0.000000)
  29:       288.11    0.000000  (  0.000000   0.000000   0.000000)
  30:       383.46    0.000000  (  0.000000   0.000000   0.000000)
  31:       388.82    0.000000  (  0.000000   0.000000   0.000000)
  32:       394.02    0.000000  (  0.000000   0.000000   0.000000)
  33:       398.13    0.000000  (  0.000000   0.000000   0.000000)
  34:       425.82    0.000000  (  0.000000   0.000000   0.000000)
  35:       428.95    0.000000  (  0.000000   0.000000   0.000000)
  36:       453.65    0.000000  (  0.000000   0.000000   0.000000)
  37:       454.54    0.000000  (  0.000000   0.000000   0.000000)
  38:       512.96    0.000000  (  0.000000   0.000000   0.000000)
  39:       588.81    0.000000  (  0.000000   0.000000   0.000000)
  40:       624.59    0.000000  (  0.000000   0.000000   0.000000)
  41:       668.17    0.000000  (  0.000000   0.000000   0.000000)
  42:       690.06    0.000000  (  0.000000   0.000000   0.000000)
  43:       757.65    0.000000  (  0.000000   0.000000   0.000000)
  44:       771.27    0.000000  (  0.000000   0.000000   0.000000)
  45:       773.40    0.000000  (  0.000000   0.000000   0.000000)
  46:       825.10    0.000000  (  0.000000   0.000000   0.000000)
  47:       829.10    0.000000  (  0.000000   0.000000   0.000000)
  48:       859.23    0.000000  (  0.000000   0.000000   0.000000)
  49:       877.34    0.000000  (  0.000000   0.000000   0.000000)
  50:       906.84    0.000000  (  0.000000   0.000000   0.000000)
  51:       920.43    0.000000  (  0.000000   0.000000   0.000000)
  52:       928.68    0.000000  (  0.000000   0.000000   0.000000)
  53:       933.48    0.000000  (  0.000000   0.000000   0.000000)
  54:       935.48    0.000000  (  0.000000   0.000000   0.000000)
  55:       939.26    0.000000  (  0.000000   0.000000   0.000000)
  56:       945.35    0.000000  (  0.000000   0.000000   0.000000)
  57:       953.40    0.000000  (  0.000000   0.000000   0.000000)
  58:       984.57    0.000000  (  0.000000   0.000000   0.000000)
  59:       995.39    0.000000  (  0.000000   0.000000   0.000000)
  60:      1015.66    0.000000  (  0.000000   0.000000   0.000000)
  61:      1019.14    0.000000  (  0.000000   0.000000   0.000000)
  62:      1066.14    0.000000  (  0.000000   0.000000   0.000000)
  63:      1068.21    0.000000  (  0.000000   0.000000   0.000000)
  64:      1069.82    0.000000  (  0.000000   0.000000   0.000000)
  65:      1098.17    0.000000  (  0.000000   0.000000   0.000000)
  66:      1099.62    0.000000  (  0.000000   0.000000   0.000000)
  67:      1112.18    0.000000  (  0.000000   0.000000   0.000000)
  68:      1124.00    0.000000  (  0.000000   0.000000   0.000000)
  69:      1126.38    0.000000  (  0.000000   0.000000   0.000000)
  70:      1145.38    0.000000  (  0.000000   0.000000   0.000000)
  71:      1157.55    0.000000  (  0.000000   0.000000   0.000000)
  72:      1175.76    0.000000  (  0.000000   0.000000   0.000000)
  73:      1184.29    0.000000  (  0.000000   0.000000   0.000000)
  74:      1202.26    0.000000  (  0.000000   0.000000   0.000000)
  75:      1211.33    0.000000  (  0.000000   0.000000   0.000000)
  76:      1219.19    0.000000  (  0.000000   0.000000   0.000000)
  77:      1240.21    0.000000  (  0.000000   0.000000   0.000000)
  78:      1253.81    0.000000  (  0.000000   0.000000   0.000000)
  79:      1268.37    0.000000  (  0.000000   0.000000   0.000000)
  80:      1275.86    0.000000  (  0.000000   0.000000   0.000000)
  81:      1276.43    0.000000  (  0.000000   0.000000   0.000000)
  82:      1277.75    0.000000  (  0.000000   0.000000   0.000000)
  83:      1282.87    0.000000  (  0.000000   0.000000   0.000000)
  84:      1292.84    0.000000  (  0.000000   0.000000   0.000000)
  85:      1293.47    0.000000  (  0.000000   0.000000   0.000000)
  86:      1324.87    0.000000  (  0.000000   0.000000   0.000000)
  87:      1353.24    0.000000  (  0.000000   0.000000   0.000000)
  88:      1356.80    0.000000  (  0.000000   0.000000   0.000000)
  89:      1367.80    0.000000  (  0.000000   0.000000   0.000000)
  90:      1379.95    0.000000  (  0.000000   0.000000   0.000000)
  91:      1422.88    0.000000  (  0.000000   0.000000   0.000000)
  92:      1425.82    0.000000  (  0.000000   0.000000   0.000000)
  93:      1428.48    0.000000  (  0.000000   0.000000   0.000000)
  94:      1455.04    0.000000  (  0.000000   0.000000   0.000000)
  95:      1471.98    0.000000  (  0.000000   0.000000   0.000000)
  96:      1495.27    0.000000  (  0.000000   0.000000   0.000000)
  97:      1501.57    0.000000  (  0.000000   0.000000   0.000000)
  98:      1504.39    0.000000  (  0.000000   0.000000   0.000000)
  99:      1504.71    0.000000  (  0.000000   0.000000   0.000000)
 100:      1506.48    0.000000  (  0.000000   0.000000   0.000000)
 101:      1507.13    0.000000  (  0.000000   0.000000   0.000000)
 102:      1508.03    0.000000  (  0.000000   0.000000   0.000000)
 103:      1510.94    0.000000  (  0.000000   0.000000   0.000000)
 104:      1513.69    0.000000  (  0.000000   0.000000   0.000000)
 105:      1542.98    0.000000  (  0.000000   0.000000   0.000000)
 106:      1561.27    0.000000  (  0.000000   0.000000   0.000000)
 107:      1564.29    0.000000  (  0.000000   0.000000   0.000000)
 108:      1567.59    0.000000  (  0.000000   0.000000   0.000000)
 109:      1668.49    0.000000  (  0.000000   0.000000   0.000000)
 110:      2859.55    0.000000  (  0.000000   0.000000   0.000000)
 111:      2879.97    0.000000  (  0.000000   0.000000   0.000000)
 112:      2884.51    0.000000  (  0.000000   0.000000   0.000000)
 113:      2934.27    0.000000  (  0.000000   0.000000   0.000000)
 114:      2940.17    0.000000  (  0.000000   0.000000   0.000000)
 115:      2945.27    0.000000  (  0.000000   0.000000   0.000000)
 116:      2947.66    0.000000  (  0.000000   0.000000   0.000000)
 117:      2955.11    0.000000  (  0.000000   0.000000   0.000000)
 118:      2964.25    0.000000  (  0.000000   0.000000   0.000000)
 119:      2966.11    0.000000  (  0.000000   0.000000   0.000000)
 120:      2968.19    0.000000  (  0.000000   0.000000   0.000000)
 121:      2973.65    0.000000  (  0.000000   0.000000   0.000000)
 122:      2979.94    0.000000  (  0.000000   0.000000   0.000000)
 123:      2980.25    0.000000  (  0.000000   0.000000   0.000000)
 124:      2985.87    0.000000  (  0.000000   0.000000   0.000000)
 125:      2989.18    0.000000  (  0.000000   0.000000   0.000000)
 126:      2998.39    0.000000  (  0.000000   0.000000   0.000000)
 127:      2999.36    0.000000  (  0.000000   0.000000   0.000000)
 128:      3005.11    0.000000  (  0.000000   0.000000   0.000000)
 129:      3030.75    0.000000  (  0.000000   0.000000   0.000000)
 130:      3050.51    0.000000  (  0.000000   0.000000   0.000000)
 131:      3056.92    0.000000  (  0.000000   0.000000   0.000000)
 132:      3063.47    0.000000  (  0.000000   0.000000   0.000000)
 133:      3072.89    0.000000  (  0.000000   0.000000   0.000000)
 134:      3089.03    0.000000  (  0.000000   0.000000   0.000000)
 135:      3315.48    0.000000  (  0.000000   0.000000   0.000000)
 136:      3402.47    0.000000  (  0.000000   0.000000   0.000000)
 137:      3593.82    0.000000  (  0.000000   0.000000   0.000000)

The first frequency considered to be a vibration is 6
The total number of vibrations considered is 132


--------------------------
THERMOCHEMISTRY AT 298.15K
--------------------------

Temperature         ... 298.15 K
Pressure            ... 1.00 atm
Total Mass          ... 252.40 AMU

Throughout the following assumptions are being made:
  (1) The electronic state is orbitally nondegenerate
  (2) There are no thermally accessible electronically excited states
  (3) Hindered rotations indicated by low frequency modes are not
      treated as such but are treated as vibrations and this may
      cause some error
  (4) All equations used are the standard statistical mechanics
      equations for an ideal gas
  (5) All vibrations are strictly harmonic

freq.      14.77  E(vib)   ...       0.57 
freq.      24.39  E(vib)   ...       0.56 
freq.      28.19  E(vib)   ...       0.55 
freq.      44.00  E(vib)   ...       0.53 
freq.      52.13  E(vib)   ...       0.52 
freq.      55.91  E(vib)   ...       0.52 
freq.      59.04  E(vib)   ...       0.51 
freq.      67.67  E(vib)   ...       0.50 
freq.      68.64  E(vib)   ...       0.50 
freq.      75.93  E(vib)   ...       0.49 
freq.      78.28  E(vib)   ...       0.49 
freq.     111.61  E(vib)   ...       0.45 
freq.     118.06  E(vib)   ...       0.44 
freq.     121.67  E(vib)   ...       0.44 
freq.     133.67  E(vib)   ...       0.42 
freq.     155.81  E(vib)   ...       0.40 
freq.     183.12  E(vib)   ...       0.37 
freq.     183.93  E(vib)   ...       0.37 
freq.     222.28  E(vib)   ...       0.33 
freq.     223.84  E(vib)   ...       0.33 
freq.     266.33  E(vib)   ...       0.29 
freq.     275.39  E(vib)   ...       0.28 
freq.     275.65  E(vib)   ...       0.28 
freq.     288.11  E(vib)   ...       0.27 
freq.     383.46  E(vib)   ...       0.20 
freq.     388.82  E(vib)   ...       0.20 
freq.     394.02  E(vib)   ...       0.20 
freq.     398.13  E(vib)   ...       0.20 
freq.     425.82  E(vib)   ...       0.18 
freq.     428.95  E(vib)   ...       0.18 
freq.     453.65  E(vib)   ...       0.16 
freq.     454.54  E(vib)   ...       0.16 
freq.     512.96  E(vib)   ...       0.13 
freq.     588.81  E(vib)   ...       0.10 
freq.     624.59  E(vib)   ...       0.09 
freq.     668.17  E(vib)   ...       0.08 
freq.     690.06  E(vib)   ...       0.07 
freq.     757.65  E(vib)   ...       0.06 
freq.     771.27  E(vib)   ...       0.05 
freq.     773.40  E(vib)   ...       0.05 
freq.     825.10  E(vib)   ...       0.04 
freq.     829.10  E(vib)   ...       0.04 
freq.     859.23  E(vib)   ...       0.04 
freq.     877.34  E(vib)   ...       0.04 
freq.     906.84  E(vib)   ...       0.03 
freq.     920.43  E(vib)   ...       0.03 
freq.     928.68  E(vib)   ...       0.03 
freq.     933.48  E(vib)   ...       0.03 
freq.     935.48  E(vib)   ...       0.03 
freq.     939.26  E(vib)   ...       0.03 
freq.     945.35  E(vib)   ...       0.03 
freq.     953.40  E(vib)   ...       0.03 
freq.     984.57  E(vib)   ...       0.02 
freq.     995.39  E(vib)   ...       0.02 
freq.    1015.66  E(vib)   ...       0.02 
freq.    1019.14  E(vib)   ...       0.02 
freq.    1066.14  E(vib)   ...       0.02 
freq.    1068.21  E(vib)   ...       0.02 
freq.    1069.82  E(vib)   ...       0.02 
freq.    1098.17  E(vib)   ...       0.02 
freq.    1099.62  E(vib)   ...       0.02 
freq.    1112.18  E(vib)   ...       0.01 
freq.    1124.00  E(vib)   ...       0.01 
freq.    1126.38  E(vib)   ...       0.01 
freq.    1145.38  E(vib)   ...       0.01 
freq.    1157.55  E(vib)   ...       0.01 
freq.    1175.76  E(vib)   ...       0.01 
freq.    1184.29  E(vib)   ...       0.01 
freq.    1202.26  E(vib)   ...       0.01 
freq.    1211.33  E(vib)   ...       0.01 
freq.    1219.19  E(vib)   ...       0.01 
freq.    1240.21  E(vib)   ...       0.01 
freq.    1253.81  E(vib)   ...       0.01 
freq.    1268.37  E(vib)   ...       0.01 
freq.    1275.86  E(vib)   ...       0.01 
freq.    1276.43  E(vib)   ...       0.01 
freq.    1277.75  E(vib)   ...       0.01 
freq.    1282.87  E(vib)   ...       0.01 
freq.    1292.84  E(vib)   ...       0.01 
freq.    1293.47  E(vib)   ...       0.01 
freq.    1324.87  E(vib)   ...       0.01 
freq.    1353.24  E(vib)   ...       0.01 
freq.    1356.80  E(vib)   ...       0.01 
freq.    1367.80  E(vib)   ...       0.01 
freq.    1379.95  E(vib)   ...       0.01 
freq.    1422.88  E(vib)   ...       0.00 
freq.    1425.82  E(vib)   ...       0.00 
freq.    1428.48  E(vib)   ...       0.00 
freq.    1455.04  E(vib)   ...       0.00 
freq.    1471.98  E(vib)   ...       0.00 
freq.    1495.27  E(vib)   ...       0.00 
freq.    1501.57  E(vib)   ...       0.00 
freq.    1504.39  E(vib)   ...       0.00 
freq.    1504.71  E(vib)   ...       0.00 
freq.    1506.48  E(vib)   ...       0.00 
freq.    1507.13  E(vib)   ...       0.00 
freq.    1508.03  E(vib)   ...       0.00 
freq.    1510.94  E(vib)   ...       0.00 
freq.    1513.69  E(vib)   ...       0.00 
freq.    1542.98  E(vib)   ...       0.00 
freq.    1561.27  E(vib)   ...       0.00 
freq.    1564.29  E(vib)   ...       0.00 
freq.    1567.59  E(vib)   ...       0.00 
freq.    1668.49  E(vib)   ...       0.00 
freq.    2859.55  E(vib)   ...       0.00 
freq.    2879.97  E(vib)   ...       0.00 
freq.    2884.51  E(vib)   ...       0.00 
freq.    2934.27  E(vib)   ...       0.00 
freq.    2940.17  E(vib)   ...       0.00 
freq.    2945.27  E(vib)   ...       0.00 
freq.    2947.66  E(vib)   ...       0.00 
freq.    2955.11  E(vib)   ...       0.00 
freq.    2964.25  E(vib)   ...       0.00 
freq.    2966.11  E(vib)   ...       0.00 
freq.    2968.19  E(vib)   ...       0.00 
freq.    2973.65  E(vib)   ...       0.00 
freq.    2979.94  E(vib)   ...       0.00 
freq.    2980.25  E(vib)   ...       0.00 
freq.    2985.87  E(vib)   ...       0.00 
freq.    2989.18  E(vib)   ...       0.00 
freq.    2998.39  E(vib)   ...       0.00 
freq.    2999.36  E(vib)   ...       0.00 
freq.    3005.11  E(vib)   ...       0.00 
freq.    3030.75  E(vib)   ...       0.00 
freq.    3050.51  E(vib)   ...       0.00 
freq.    3056.92  E(vib)   ...       0.00 
freq.    3063.47  E(vib)   ...       0.00 
freq.    3072.89  E(vib)   ...       0.00 
freq.    3089.03  E(vib)   ...       0.00 
freq.    3315.48  E(vib)   ...       0.00 
freq.    3402.47  E(vib)   ...       0.00 
freq.    3593.82  E(vib)   ...       0.00 

------------
INNER ENERGY
------------

The inner energy is: U= E(el) + E(ZPE) + E(vib) + E(rot) + E(trans)
    E(el)   - is the total energy from the electronic structure calculation
              = E(kin-el) + E(nuc-el) + E(el-el) + E(nuc-nuc)
    E(ZPE)  - the the zero temperature vibrational energy from the frequency calculation
    E(vib)  - the the finite temperature correction to E(ZPE) due to population
              of excited vibrational states
    E(rot)  - is the rotational thermal energy
    E(trans)- is the translational thermal energy

Summary of contributions to the inner energy U:
Electronic energy                ...    -56.29501210 Eh
Zero point energy                ...      0.39983873 Eh     250.90 kcal/mol
Thermal vibrational correction   ...      0.02135915 Eh      13.40 kcal/mol
Thermal rotational correction    ...      0.00141627 Eh       0.89 kcal/mol
Thermal translational correction ...      0.00141627 Eh       0.89 kcal/mol
-----------------------------------------------------------------------
Total thermal energy                    -55.87098168 Eh


Summary of corrections to the electronic energy:
(perhaps to be used in another calculation)
Total thermal correction                  0.02419170 Eh      15.18 kcal/mol
Non-thermal (ZPE) correction              0.39983873 Eh     250.90 kcal/mol
-----------------------------------------------------------------------
Total correction                          0.42403043 Eh     266.08 kcal/mol


--------
ENTHALPY
--------

The enthalpy is H = U + kB*T
                kB is Boltzmann's constant
Total free energy                 ...    -55.87098168 Eh 
Thermal Enthalpy correction       ...      0.00094421 Eh       0.59 kcal/mol
-----------------------------------------------------------------------
Total Enthalpy                    ...    -55.87003747 Eh


Note: Only C1 symmetry has been detected, increase convergence thresholds 
      if your molecule has a higher symmetry. Symmetry factor of 1.0 is   
      used for the rotational entropy correction. 
 

Note: Rotational entropy computed according to Herzberg 
Infrared and Raman Spectra, Chapter V,1, Van Nostrand Reinhold, 1945 
Point Group:  C1, Symmetry Number:   1  
Rotational constants in cm-1:     0.010743     0.007561     0.005004 

Vibrational entropy computed according to the QRRHO of S. Grimme
Chem.Eur.J. 2012 18 9955


-------
ENTROPY
-------

The entropy contributions are T*S = T*(S(el)+S(vib)+S(rot)+S(trans))
     S(el)   - electronic entropy
     S(vib)  - vibrational entropy
     S(rot)  - rotational entropy
     S(trans)- translational entropy
The entropies will be listed as mutliplied by the temperature to get
units of energy

Electronic entropy                ...      0.00000000 Eh      0.00 kcal/mol
Vibrational entropy               ...      0.03976320 Eh     24.95 kcal/mol
Rotational entropy                ...      0.01645803 Eh     10.33 kcal/mol
Translational entropy             ...      0.02018250 Eh     12.66 kcal/mol
-----------------------------------------------------------------------
Final entropy term                ...      0.07640373 Eh     47.94 kcal/mol

In case the symmetry of your molecule has not been determined correctly
or in case you have a reason to use a different symmetry number we print 
out the resulting rotational entropy values for sn=1,12 :
 --------------------------------------------------------
|  sn= 1 | S(rot)=       0.01645803 Eh     10.33 kcal/mol|
|  sn= 2 | S(rot)=       0.01580358 Eh      9.92 kcal/mol|
|  sn= 3 | S(rot)=       0.01542075 Eh      9.68 kcal/mol|
|  sn= 4 | S(rot)=       0.01514912 Eh      9.51 kcal/mol|
|  sn= 5 | S(rot)=       0.01493843 Eh      9.37 kcal/mol|
|  sn= 6 | S(rot)=       0.01476629 Eh      9.27 kcal/mol|
|  sn= 7 | S(rot)=       0.01462074 Eh      9.17 kcal/mol|
|  sn= 8 | S(rot)=       0.01449466 Eh      9.10 kcal/mol|
|  sn= 9 | S(rot)=       0.01438346 Eh      9.03 kcal/mol|
|  sn=10 | S(rot)=       0.01428398 Eh      8.96 kcal/mol|
|  sn=11 | S(rot)=       0.01419399 Eh      8.91 kcal/mol|
|  sn=12 | S(rot)=       0.01411183 Eh      8.86 kcal/mol|
 --------------------------------------------------------


-------------------
GIBBS FREE ENERGY
-------------------

The Gibbs free energy is G = H - T*S

Total enthalpy                    ...    -55.87003747 Eh 
Total entropy correction          ...     -0.07640373 Eh    -47.94 kcal/mol
-----------------------------------------------------------------------
Final Gibbs free energy         ...    -55.94644120 Eh

For completeness - the Gibbs free energy minus the electronic energy
G-E(el)                           ...      0.34857090 Eh    218.73 kcal/mol


Total Time for Numerical Frequencies  :       173.182 sec
Time for Reference State(s)           :         0.228 sec
Time for Displacements                :       157.457 sec

Timings for individual modules:

Sum of individual times         ...        0.435 sec (=   0.007 min)
XTB module                      ...        0.435 sec (=   0.007 min) 100.0 %
                             ****ORCA TERMINATED NORMALLY****
TOTAL RUN TIME: 0 days 0 hours 2 minutes 55 seconds 31 msec
(SLURM) EXECUTION TIME: 175.056312730 seconds.
