(SLURM) JOB ID:         86

                                 *****************
                                 * O   R   C   A *
                                 *****************

           --- An Ab Initio, DFT and Semiempirical electronic structure package ---

                  #######################################################
                  #                        -***-                        #
                  #          Department of theory and spectroscopy      #
                  #               Directorship: Frank Neese             #
                  #        Max Planck Institute fuer Kohlenforschung    #
                  #                Kaiser Wilhelm Platz 1               #
                  #                 D-45470 Muelheim/Ruhr               #
                  #                      Germany                        #
                  #                                                     #
                  #                  All rights reserved                #
                  #                        -***-                        #
                  #######################################################


                         Program Version 4.2.1 -  RELEASE  -


 With contributions from (in alphabetic order):
   Daniel Aravena         : Magnetic Suceptibility
   Michael Atanasov       : Ab Initio Ligand Field Theory (pilot matlab implementation)
   Alexander A. Auer      : GIAO ZORA, VPT2
   Ute Becker             : Parallelization
   Giovanni Bistoni       : ED, misc. LED, open-shell LED, HFLD
   Martin Brehm           : Molecular dynamics
   Dmytro Bykov           : SCF Hessian
   Vijay G. Chilkuri      : MRCI spin determinant printing, contributions to CSF-ICE
   Dipayan Datta          : RHF DLPNO-CCSD density
   Achintya Kumar Dutta   : EOM-CC, STEOM-CC
   Dmitry Ganyushin       : Spin-Orbit,Spin-Spin,Magnetic field MRCI
   Miquel Garcia          : C-PCM Hessian, Gaussian charge scheme
   Yang Guo               : DLPNO-NEVPT2, CIM, IAO-localization
   Andreas Hansen         : Spin unrestricted coupled pair/coupled cluster methods
   Benjamin Helmich-Paris : CASSCF linear response (MC-RPA)
   Lee Huntington         : MR-EOM, pCC
   Robert Izsak           : Overlap fitted RIJCOSX, COSX-SCS-MP3, EOM
   Christian Kollmar      : KDIIS, OOCD, Brueckner-CCSD(T), CCSD density
   Simone Kossmann        : Meta GGA functionals, TD-DFT gradient, OOMP2, MP2 Hessian
   Martin Krupicka        : AUTO-CI
   Lucas Lang             : DCDCAS
   Dagmar Lenk            : GEPOL surface, SMD
   Dimitrios Liakos       : Extrapolation schemes; Compound Job, initial MDCI parallelization
   Dimitrios Manganas     : Further ROCIS development; embedding schemes
   Dimitrios Pantazis     : SARC Basis sets
   Taras Petrenko         : DFT Hessian,TD-DFT gradient, ASA, ECA, R-Raman, ABS, FL, XAS/XES, NRVS
   Peter Pinski           : DLPNO-MP2, DLPNO-MP2 Gradient
   Christoph Reimann      : Effective Core Potentials
   Marius Retegan         : Local ZFS, SOC
   Christoph Riplinger    : Optimizer, TS searches, QM/MM, DLPNO-CCSD(T), (RO)-DLPNO pert. Triples
   Tobias Risthaus        : Range-separated hybrids, TD-DFT gradient, RPA, STAB
   Michael Roemelt        : Original ROCIS implementation
   Masaaki Saitow         : Open-shell DLPNO-CCSD energy and density
   Barbara Sandhoefer     : DKH picture change effects
   Avijit Sen             : IP-ROCIS
   Kantharuban Sivalingam : CASSCF convergence, NEVPT2, FIC-MRCI
   Bernardo de Souza      : ESD, SOC TD-DFT
   Georgi Stoychev        : AutoAux, RI-MP2 NMR
   Willem Van den Heuvel  : Paramagnetic NMR
   Boris Wezisla          : Elementary symmetry handling
   Frank Wennmohs         : Technical directorship


 We gratefully acknowledge several colleagues who have allowed us to
 interface, adapt or use parts of their codes:
   Stefan Grimme, W. Hujo, H. Kruse,             : VdW corrections, initial TS optimization,
                  C. Bannwarth                     DFT functionals, gCP, sTDA/sTD-DF
   Ed Valeev, F. Pavosevic, A. Kumar             : LibInt (2-el integral package), F12 methods
   Garnet Chan, S. Sharma, J. Yang, R. Olivares  : DMRG
   Ulf Ekstrom                                   : XCFun DFT Library
   Mihaly Kallay                                 : mrcc  (arbitrary order and MRCC methods)
   Andreas Klamt, Michael Diedenhofen            : otool_cosmo (COSMO solvation model)
   Jiri Pittner, Ondrej Demel                    : Mk-CCSD
   Frank Weinhold                                : gennbo (NPA and NBO analysis)
   Christopher J. Cramer and Donald G. Truhlar   : smd solvation model
   Lars Goerigk                                  : TD-DFT with DH, B97 family of functionals
   V. Asgeirsson, H. Jonsson                     : NEB implementation
   FAccTs GmbH                                   : IRC, NEB, NEB-TS, Multilevel, MM, QM/MM, CI optimization
   S Lehtola, MJT Oliveira, MAL Marques          : LibXC Library


 Your calculation uses the libint2 library for the computation of 2-el integrals
 For citations please refer to: http://libint.valeyev.net

 Your ORCA version has been built with support for libXC version: 4.2.3
 For citations please refer to: https://tddft.org/programs/libxc/

 This ORCA versions uses:
   CBLAS   interface :  Fast vector & matrix operations
   LAPACKE interface :  Fast linear algebra routines
   SCALAPACK package :  Parallel linear algebra routines




***************************************
The coordinates will be read from file: init.xyz
***************************************


Your calculation utilizes the SMD solvation module
Please cite in your paper:
A.V. Marenich, C.J. Cramer, D.G. Truhlar J. Phys. Chem. B, 113, (2009), 6378 

Your calculation utilizes the semiempirical GFN2-xTB method
Please cite in your paper:
C. Bannwarth, Ehlert S., S. Grimme,  J. Chem. Theory Comput., 15, (2019), 1652.
   

----- Orbital basis set information -----
Your calculation utilizes the basis: def2-SVP
   F. Weigend and R. Ahlrichs, Phys. Chem. Chem. Phys. 7, 3297 (2005).

================================================================================
                                        WARNINGS
                       Please study these warnings very carefully!
================================================================================

WARNING: Gradients needed for Numerical Frequencies
  ===> : Setting RunTyp to EnGrad

WARNING: The environment variable RSH_COMMAND is not set!
  ===> : All Displacements for the Numerical Hessian calculation
         will be started on localhost

WARNING: Found dipole moment calculation with XTB calculation
  ===> : Switching off dipole moment calculation


INFO   : the flag for use of LIBINT has been found!

================================================================================
                                       INPUT FILE
================================================================================
NAME = /tmp/slurm-scratch/freq.86/freq.inp
|  1> ! XTB2 NumFreq
|  2> %maxcore 1450
|  3> 
|  4> * xyzfile 0 1 init.xyz
|  5> 
|  6> %cpcm
|  7>  smd true
|  8>  smdsolvent "ch2cl2"
|  9> end
| 10> %pal nprocs 8 end
| 11> 
| 12>                          ****END OF INPUT****
================================================================================

                     *******************************
                     * Energy+Gradient Calculation *
                     *******************************

      -----------------------------------------------------------      
     |                   =====================                   |     
     |                           x T B                           |     
     |                   =====================                   |     
     |                         S. Grimme                         |     
     |          Mulliken Center for Theoretical Chemistry        |     
     |                    University of Bonn                     |     
      -----------------------------------------------------------      

   * xtb version 6.3.0 (preview) compiled by 'ehlert@majestix' on 2020-01-15

   This program is distributed in the hope that it will be useful,
   but WITHOUT ANY WARRANTY; without even the implied warranty of
   MERCHANTABILITY or FITNESS FOR A PARTICULAR PURPOSE.
   
   FOR NON-COMMERCIAL, ACADEMIA USE ONLY.
   
   Cite this work as:
   * S. Grimme, C. Bannwarth, P. Shushkov, J. Chem. Theory Comput., 2017,
     13, 1989-2009. DOI: 10.1021/acs.jctc.7b00118
   * C. Bannwarth, S. Ehlert and S. Grimme., J. Chem. Theory Comput., 2019,
     15, 1652-1671. DOI: 10.1021/acs.jctc.8b01176
   * P. Pracht, E. Caldeweyher, S. Ehlert, S. Grimme, ChemRxiv, 2019, preprint.
     DOI: 10.26434/chemrxiv.8326202.v1
   * S. Grimme, S. Spicher unpublished
   
   for DFT-D4:
   * E. Caldeweyher, C. Bannwarth and S. Grimme, J. Chem. Phys., 2017,
     147, 034112. DOI: 10.1063/1.4993215
   * E. Caldeweyher, S. Ehlert, A. Hansen, H. Neugebauer, S. Spicher,
     C. Bannwarth and S. Grimme, J. Chem. Phys., 2019, 150, 154122.
     DOI: 10.1063/1.5090222
   
   for sTDA-xTB:
   * S. Grimme and C. Bannwarth, J. Chem. Phys., 2016, 145, 054103.
     DOI: 10.1063/1.4959605
   
   in the mass-spec context:
   * V. Asgeirsson, C. Bauer and S. Grimme, Chem. Sci., 2017, 8, 4879.
     DOI: 10.1039/c7sc00601b
   
   for metadynamics refer to:
   * S. Grimme, J. Chem. Theory Comput., 2019, 155, 2847-2862
     DOI: 10.1021/acs.jctc.9b00143
   
   with help from (in alphabetical order)
   C. Bannwarth, F. Bohle, G. Brandenburg, E. Caldeweyher, M. Checinski,
   S. Dohm, S. Ehlert, S. Ehrlich, F. März, H. Neugebauer, J. Pisarek,
   P. Pracht, P. Shushkov, and S. Spicher.
   
 * started run on 2020/08/10 at 03:21:41.017     

           -------------------------------------------------
          |                Calculation Setup                |
           -------------------------------------------------

          program call               : /opt/orca/otool_xtb /tmp/slurm-scratch/freq.86/freq_XTB.xyz --grad -c 0 -u 0 -P 8 --namespace /tmp/slurm-scratch/freq.86/freq --gbsa CH2Cl2
          hostname                   : headnode-pbs
          calculation namespace      : /tmp/slurm-scratch/freq.86/freq
          coordinate file            : /tmp/slurm-scratch/freq.86/freq_XTB.xyz
          omp threads                :                     8
          number of atoms            :                    46
          number of electrons        :                   104
          charge                     :                     0
          spin                       :                   0.0
          first test random number   :      0.26256765719422


molecular fragmentation (1/2 indicates fragments):
1111111111211112222221112221111122211122221111
# atoms in fragment 1/2:    29    17
 fragment masses (1/2) :      178.25       74.14
CMA distance (Bohr)    :   9.073
constraining FC (au)   :  0.0500

########################################################################
# WARNING! Please study the warnings concerning your input carefully
#  - Process number higher than OMP_NUM_THREADS, I hope you know what you are doing.
########################################################################

           ------------------------------------------------- 
          |                 G F N 2 - x T B                 |
          | Geometry, Frequencies, Noncovalent interactions |
          |            JCTC 2019 parametrisation            |
           ------------------------------------------------- 
             k(s)              :                1.8500
             k(p)              :                2.2300
             k(d)              :                2.2300
             k(f)              :                2.0000
             kEN (H0ij)        :               -2.0000
             D4 a1             :                0.5200
             D4 a2             :                5.0000
             D4 s6             :                1.0000
             D4 s8             :                2.7000
             D4 s9             :                5.0000
             alphaj            :                2.0000

  Z AO/shell   Hii/eV     exponent
  1     Wed Apr 25 08:07:45 CEST 2018   EN: 2.200 GM2: 0.406  GM3: 0.0800  RAES: 1.40
     1s    -10.707211    1.230000
  6     Wed Apr 25 08:07:45 CEST 2018   EN: 2.550 GM2: 0.538  GM3: 0.1500  RAES: 3.00
     2s    -13.970922    2.096432
     2p    -10.063292    1.800000
  7     Wed Apr 25 08:07:45 CEST 2018   EN: 3.040 GM2: 0.461  GM3:-0.0640  RAES: 1.90
     2s    -16.686243    2.339881
     2p    -12.523956    2.014332
  8     Wed Apr 25 08:07:45 CEST 2018   EN: 3.440 GM2: 0.452  GM3:-0.0517  RAES: 1.80
     2s    -20.229985    2.439742
     2p    -15.503117    2.137023

 Solvent             : CH2Cl2
 Using internal parameter file: .param_gbsa2_CH2Cl2
 Gsolv ref. state (COSMO-RS): gsolv [1 M gas/solution]
 temperature (mdtemp)       :    298.150000000000     
 dielectric constant        :    8.93000000000000     
 rho                        :    1.33000000000000     
 mass                       :    84.9300000000000     
 surface tension            :    15.5689454083859     
 probe radius               :   0.719875900000000     
 Gshift (Eh)                :   4.440829173451759E-003
 c1                         :    1.49173776000000     
 soset                      :   0.000000000000000E+000
 HB correction              :  F
           ------------------------------------------------- 
          |        Self-Consistent Charge Iterations        |
           ------------------------------------------------- 

          ...................................................
          :                      SETUP                      :
          :.................................................:
          :  # basis functions                 100          :
          :  # atomic orbitals                 100          :
          :  # shells                           64          :
          :  # electrons                       104          :
          :  max. iterations                   250          :
          :  Hamiltonian                  GFN2-xTB          :
          :  GBSA solvation                   true          :
          :  PC potential                    false          :
          :  electronic temp.          300.0000000     K    :
          :  accuracy                    1.0000000          :
          :  -> integral cutoff          0.2500000E+02      :
          :  -> integral neglect         0.1000000E-07      :
          :  -> SCF convergence          0.1000000E-05 Eh   :
          :  -> wf. convergence          0.1000000E-03 e    :
          :  Broyden damping             0.4000000          :
          ...................................................
  Checking positiv definite overlap ...  done.
 

 iter      E             dE          RMSdq      gap      omega  full diag
   1    -56.9015734 -0.569016E+02  0.352E+00    3.73       0.0  T
   2    -57.0330069 -0.131434E+00  0.192E+00    3.41       1.0  T
   3    -57.0377323 -0.472540E-02  0.859E-01    2.67       1.0  T
   4    -57.0375462  0.186150E-03  0.352E-01    2.55       1.0  T
   5    -57.0418540 -0.430780E-02  0.833E-02    2.69       1.0  T
   6    -57.0419130 -0.590151E-04  0.396E-02    2.73       1.0  T
   7    -57.0419262 -0.131537E-04  0.163E-02    2.74       1.0  T
   8    -57.0419285 -0.237324E-05  0.631E-03    2.74       2.3  T
   9    -57.0419291 -0.599193E-06  0.286E-03    2.74       5.2  T
  10    -57.0419292 -0.481186E-07  0.122E-03    2.74      12.1  T
  11    -57.0419292 -0.817511E-08  0.609E-04    2.74      24.2  T
  12    -57.0419292 -0.492975E-08  0.160E-04    2.74      92.1  T

   *** convergence criteria satisfied after 12 iterations ***

         #    Occupation            Energy/Eh            Energy/eV
      -------------------------------------------------------------
         1        2.0000           -0.6719874             -18.2857
       ...           ...                  ...                  ...
        46        2.0000           -0.4266567             -11.6099
        47        2.0000           -0.4203240             -11.4376
        48        2.0000           -0.4053464             -11.0300
        49        2.0000           -0.4026418             -10.9564
        50        2.0000           -0.3953280             -10.7574
        51        2.0000           -0.3420414              -9.3074
        52        2.0000           -0.3279197              -8.9232 (HOMO)
        53                         -0.2271722              -6.1817 (LUMO)
        54                         -0.2247284              -6.1152
        55                         -0.1027279              -2.7954
        56                         -0.0520869              -1.4174
        57                         -0.0235815              -0.6417
       ...                                ...                  ...
       100                          0.6427172              17.4892
      -------------------------------------------------------------
                  HL-Gap            0.1007475 Eh            2.7415 eV
             Fermi-level           -0.2775460 Eh           -7.5524 eV

 SCC (total)                   0 d,  0 h,  0 min,  0.047 sec
 SCC setup                      ...        0 min,  0.002 sec (  3.360%)
 Dispersion                     ...        0 min,  0.001 sec (  1.201%)
 integral evaluation            ...        0 min,  0.008 sec ( 17.310%)
 zeroth order Hamiltonian       ...        0 min,  0.000 sec (  0.021%)
 iterations                     ...        0 min,  0.025 sec ( 53.366%)
 molecular gradient             ...        0 min,  0.011 sec ( 23.801%)
 printout                       ...        0 min,  0.000 sec (  0.851%)

         :::::::::::::::::::::::::::::::::::::::::::::::::::::
         ::                     SUMMARY                     ::
         :::::::::::::::::::::::::::::::::::::::::::::::::::::
         :: total energy             -56.277066362888 Eh    ::
         :: total w/o Gsasa/hb       -56.254530392307 Eh    ::
         :: gradient norm              0.035357858867 Eh/a0 ::
         :: HOMO-LUMO gap              2.741479779715 eV    ::
         ::.................................................::
         :: SCC energy               -57.064465155948 Eh    ::
         :: -> isotropic ES            0.117674463880 Eh    ::
         :: -> anisotropic ES          0.002606975509 Eh    ::
         :: -> anisotropic XC          0.029680303726 Eh    ::
         :: -> dispersion             -0.038512566555 Eh    ::
         :: -> Gsolv                  -0.041172271505 Eh    ::
         ::    -> Gborn               -0.018636300925 Eh    ::
         ::    -> Gsasa               -0.026976799754 Eh    ::
         ::    -> Ghb                  0.000000000000 Eh    ::
         ::    -> Gshift               0.004440829173 Eh    ::
         :: repulsion energy           0.786823902440 Eh    ::
         :: add. restraining           0.000000000000 Eh    ::
         :::::::::::::::::::::::::::::::::::::::::::::::::::::

           -------------------------------------------------
          |                Property Printout                |
           -------------------------------------------------

    * Orbital Energies and Occupations

         #    Occupation            Energy/Eh            Energy/eV
      -------------------------------------------------------------
         1        2.0000           -0.6719874             -18.2857
       ...           ...                  ...                  ...
        40        2.0000           -0.4503057             -12.2534
        41        2.0000           -0.4467575             -12.1569
        42        2.0000           -0.4425204             -12.0416
        43        2.0000           -0.4423166             -12.0360
        44        2.0000           -0.4300398             -11.7020
        45        2.0000           -0.4293596             -11.6835
        46        2.0000           -0.4266567             -11.6099
        47        2.0000           -0.4203240             -11.4376
        48        2.0000           -0.4053464             -11.0300
        49        2.0000           -0.4026418             -10.9564
        50        2.0000           -0.3953280             -10.7574
        51        2.0000           -0.3420414              -9.3074
        52        2.0000           -0.3279197              -8.9232 (HOMO)
        53                         -0.2271722              -6.1817 (LUMO)
        54                         -0.2247284              -6.1152
        55                         -0.1027279              -2.7954
        56                         -0.0520869              -1.4174
        57                         -0.0235815              -0.6417
        58                          0.0296860               0.8078
        59                          0.0491263               1.3368
        60                          0.0744046               2.0247
        61                          0.0868507               2.3633
        62                          0.0938605               2.5541
        63                          0.1023893               2.7862
       ...                                ...                  ...
       100                          0.6427172              17.4892
      -------------------------------------------------------------
                  HL-Gap            0.1007475 Eh            2.7415 eV
             Fermi-level           -0.2775460 Eh           -7.5524 eV

     #   Z        covCN         q      C6AA      α(0)
     1   6 C      2.914    -0.035    28.861     8.809
     2   6 C      2.919    -0.046    29.139     8.852
     3   6 C      2.962    -0.031    28.776     8.799
     4   6 C      2.920    -0.034    28.846     8.807
     5   6 C      2.914    -0.035    28.879     8.812
     6   6 C      2.915    -0.036    28.885     8.813
     7   1 H      0.925     0.016     2.793     2.613
     8   1 H      0.925     0.036     2.499     2.472
     9   1 H      0.925     0.036     2.503     2.474
    10   7 N      3.120    -0.267    26.901     7.703
    11   1 H      1.192     0.253     0.860     1.448
    12   6 C      3.734     0.004    20.603     6.478
    13   1 H      0.924     0.041     2.437     2.441
    14   1 H      0.924     0.053     2.289     2.366
    15   1 H      0.860     0.160     1.332     1.808
    16   7 N      3.359    -0.249    26.474     7.642
    17   1 H      0.860     0.199     1.111     1.651
    18   1 H      0.858     0.247     0.894     1.482
    19   6 C      3.733    -0.007    20.787     6.507
    20   1 H      0.925     0.062     2.170     2.304
    21   1 H      0.924     0.061     2.183     2.311
    22   6 C      3.648     0.212    17.562     6.021
    23   1 H      0.922    -0.051     4.105     3.169
    24   8 O      0.855    -0.749    30.096     7.355
    25   6 C      3.802    -0.073    21.899     6.663
    26   1 H      0.924     0.053     2.283     2.363
    27   1 H      0.924     0.047     2.359     2.402
    28   6 C      3.801    -0.061    21.667     6.627
    29   1 H      0.924     0.032     2.552     2.498
    30   1 H      0.924     0.033     2.538     2.491
    31   1 H      0.925     0.035     2.523     2.484
    32   1 H      0.925     0.034     2.532     2.488
    33   6 C      3.800    -0.057    21.592     6.616
    34   1 H      0.924     0.037     2.483     2.464
    35   1 H      0.924     0.041     2.436     2.441
    36   6 C      3.800    -0.055    21.564     6.612
    37   1 H      0.924     0.033     2.540     2.492
    38   1 H      0.924     0.037     2.486     2.466
    39   6 C      3.750    -0.106    22.596     6.779
    40   1 H      0.924     0.038     2.469     2.457
    41   1 H      0.924     0.040     2.448     2.447
    42   1 H      0.924     0.040     2.446     2.446
    43   6 C      3.750    -0.102    22.522     6.768
    44   1 H      0.924     0.040     2.449     2.448
    45   1 H      0.924     0.034     2.532     2.488
    46   1 H      0.924     0.037     2.486     2.466

 Mol. C6AA /au·bohr⁶  :      17255.767760
 Mol. C8AA /au·bohr⁸  :     377833.111955
 Mol. α(0) /au        :        200.545077


Wiberg/Mayer (AO) data.
largest (>0.10) Wiberg bond orders for each atom
          total WBO             WBO to atom ...
     1  C   3.991        C    2 1.451    C    6 1.430    H   32 0.971    C    4 0.110
     2  C   3.991        C    1 1.451    C    3 1.406    H    7 0.967    C    5 0.112
     3  C   3.980        C    4 1.422    C    2 1.406    C   22 0.944    C    6 0.110
     4  C   3.990        C    5 1.435    C    3 1.422    H    8 0.965    C    1 0.110
     5  C   3.991        C    6 1.445    C    4 1.435    H   31 0.971    C    2 0.112
     6  C   3.991        C    5 1.445    C    1 1.430    H    9 0.971    C    3 0.110
     7  H   1.000        C    2 0.967
     8  H   0.999        C    4 0.965
     9  H   0.998        C    6 0.971
    10  N   3.423        C   12 0.995    H   15 0.946    C   22 0.817    H   11 0.380    N   16 0.131
    11  H   0.936        N   16 0.531    N   10 0.380
    12  C   3.973        C   28 1.004    N   10 0.995    H   14 0.972    H   13 0.971
    13  H   0.998        C   12 0.971
    14  H   0.997        C   12 0.972
    15  H   0.974        N   10 0.946
    16  N   3.512        C   19 0.983    H   17 0.945    H   18 0.852    H   11 0.531    N   10 0.131
    17  H   0.960        N   16 0.945
    18  H   0.939        N   16 0.852
    19  C   3.953        C   25 1.007    N   16 0.983    H   21 0.971    H   20 0.970
    20  H   0.996        C   19 0.970
    21  H   0.996        C   19 0.971
    22  C   3.958        O   24 1.217    C    3 0.944    H   23 0.925    N   10 0.817
    23  H   0.997        C   22 0.925
    24  O   1.528        C   22 1.217
    25  C   3.992        C   19 1.007    C   33 1.005    H   27 0.975    H   26 0.974
    26  H   0.997        C   25 0.974
    27  H   0.998        C   25 0.975
    28  C   3.996        C   36 1.005    C   12 1.004    H   30 0.976    H   29 0.972
    29  H   0.999        C   28 0.972
    30  H   0.999        C   28 0.976
    31  H   0.998        C    5 0.971
    32  H   0.998        C    1 0.971
    33  C   3.995        C   39 1.020    C   25 1.005    H   34 0.978    H   35 0.977
    34  H   0.999        C   33 0.978
    35  H   0.998        C   33 0.977
    36  C   3.996        C   43 1.020    C   28 1.005    H   37 0.978    H   38 0.977
    37  H   0.999        C   36 0.978
    38  H   0.999        C   36 0.977
    39  C   3.995        C   33 1.020    H   42 0.987    H   40 0.987    H   41 0.987
    40  H   0.999        C   39 0.987
    41  H   0.998        C   39 0.987
    42  H   0.998        C   39 0.987
    43  C   3.996        C   36 1.020    H   45 0.988    H   46 0.988    H   44 0.987
    44  H   0.998        C   43 0.987
    45  H   0.999        C   43 0.988
    46  H   0.999        C   43 0.988

molecular dipole:
                 x           y           z       tot (Debye)
 q only:       -1.063      -2.796      -1.624
   full:       -1.288      -2.433      -1.640       8.145
molecular quadrupole (traceless):
                xx          xy          yy          xz          yz          zz
 q only:       -1.208     -10.424      31.356     -21.712     -18.218     -30.149
  q+dip:        0.266     -10.462      29.649     -22.454     -19.666     -29.915
   full:       -0.692      -9.475      30.952     -22.749     -17.932     -30.260

           -------------------------------------------------
          |                Property Printout                |
           -------------------------------------------------

    * Orbital Energies and Occupations

         #    Occupation            Energy/Eh            Energy/eV
      -------------------------------------------------------------
         1        2.0000           -0.6719874             -18.2857
       ...           ...                  ...                  ...
        40        2.0000           -0.4503057             -12.2534
        41        2.0000           -0.4467575             -12.1569
        42        2.0000           -0.4425204             -12.0416
        43        2.0000           -0.4423166             -12.0360
        44        2.0000           -0.4300398             -11.7020
        45        2.0000           -0.4293596             -11.6835
        46        2.0000           -0.4266567             -11.6099
        47        2.0000           -0.4203240             -11.4376
        48        2.0000           -0.4053464             -11.0300
        49        2.0000           -0.4026418             -10.9564
        50        2.0000           -0.3953280             -10.7574
        51        2.0000           -0.3420414              -9.3074
        52        2.0000           -0.3279197              -8.9232 (HOMO)
        53                         -0.2271722              -6.1817 (LUMO)
        54                         -0.2247284              -6.1152
        55                         -0.1027279              -2.7954
        56                         -0.0520869              -1.4174
        57                         -0.0235815              -0.6417
        58                          0.0296860               0.8078
        59                          0.0491263               1.3368
        60                          0.0744046               2.0247
        61                          0.0868507               2.3633
        62                          0.0938605               2.5541
        63                          0.1023893               2.7862
       ...                                ...                  ...
       100                          0.6427172              17.4892
      -------------------------------------------------------------
                  HL-Gap            0.1007475 Eh            2.7415 eV
             Fermi-level           -0.2775460 Eh           -7.5524 eV

     #   Z        covCN         q      C6AA      α(0)
     1   6 C      2.914    -0.035    28.861     8.809
     2   6 C      2.919    -0.046    29.139     8.852
     3   6 C      2.962    -0.031    28.776     8.799
     4   6 C      2.920    -0.034    28.846     8.807
     5   6 C      2.914    -0.035    28.879     8.812
     6   6 C      2.915    -0.036    28.885     8.813
     7   1 H      0.925     0.016     2.793     2.613
     8   1 H      0.925     0.036     2.499     2.472
     9   1 H      0.925     0.036     2.503     2.474
    10   7 N      3.120    -0.267    26.901     7.703
    11   1 H      1.192     0.253     0.860     1.448
    12   6 C      3.734     0.004    20.603     6.478
    13   1 H      0.924     0.041     2.437     2.441
    14   1 H      0.924     0.053     2.289     2.366
    15   1 H      0.860     0.160     1.332     1.808
    16   7 N      3.359    -0.249    26.474     7.642
    17   1 H      0.860     0.199     1.111     1.651
    18   1 H      0.858     0.247     0.894     1.482
    19   6 C      3.733    -0.007    20.787     6.507
    20   1 H      0.925     0.062     2.170     2.304
    21   1 H      0.924     0.061     2.183     2.311
    22   6 C      3.648     0.212    17.562     6.021
    23   1 H      0.922    -0.051     4.105     3.169
    24   8 O      0.855    -0.749    30.096     7.355
    25   6 C      3.802    -0.073    21.899     6.663
    26   1 H      0.924     0.053     2.283     2.363
    27   1 H      0.924     0.047     2.359     2.402
    28   6 C      3.801    -0.061    21.667     6.627
    29   1 H      0.924     0.032     2.552     2.498
    30   1 H      0.924     0.033     2.538     2.491
    31   1 H      0.925     0.035     2.523     2.484
    32   1 H      0.925     0.034     2.532     2.488
    33   6 C      3.800    -0.057    21.592     6.616
    34   1 H      0.924     0.037     2.483     2.464
    35   1 H      0.924     0.041     2.436     2.441
    36   6 C      3.800    -0.055    21.564     6.612
    37   1 H      0.924     0.033     2.540     2.492
    38   1 H      0.924     0.037     2.486     2.466
    39   6 C      3.750    -0.106    22.596     6.779
    40   1 H      0.924     0.038     2.469     2.457
    41   1 H      0.924     0.040     2.448     2.447
    42   1 H      0.924     0.040     2.446     2.446
    43   6 C      3.750    -0.102    22.522     6.768
    44   1 H      0.924     0.040     2.449     2.448
    45   1 H      0.924     0.034     2.532     2.488
    46   1 H      0.924     0.037     2.486     2.466

 Mol. C6AA /au·bohr⁶  :      17255.767760
 Mol. C8AA /au·bohr⁸  :     377833.111955
 Mol. α(0) /au        :        200.545077


Wiberg/Mayer (AO) data.
largest (>0.10) Wiberg bond orders for each atom
          total WBO             WBO to atom ...
     1  C   3.991        C    2 1.451    C    6 1.430    H   32 0.971    C    4 0.110
     2  C   3.991        C    1 1.451    C    3 1.406    H    7 0.967    C    5 0.112
     3  C   3.980        C    4 1.422    C    2 1.406    C   22 0.944    C    6 0.110
     4  C   3.990        C    5 1.435    C    3 1.422    H    8 0.965    C    1 0.110
     5  C   3.991        C    6 1.445    C    4 1.435    H   31 0.971    C    2 0.112
     6  C   3.991        C    5 1.445    C    1 1.430    H    9 0.971    C    3 0.110
     7  H   1.000        C    2 0.967
     8  H   0.999        C    4 0.965
     9  H   0.998        C    6 0.971
    10  N   3.423        C   12 0.995    H   15 0.946    C   22 0.817    H   11 0.380    N   16 0.131
    11  H   0.936        N   16 0.531    N   10 0.380
    12  C   3.973        C   28 1.004    N   10 0.995    H   14 0.972    H   13 0.971
    13  H   0.998        C   12 0.971
    14  H   0.997        C   12 0.972
    15  H   0.974        N   10 0.946
    16  N   3.512        C   19 0.983    H   17 0.945    H   18 0.852    H   11 0.531    N   10 0.131
    17  H   0.960        N   16 0.945
    18  H   0.939        N   16 0.852
    19  C   3.953        C   25 1.007    N   16 0.983    H   21 0.971    H   20 0.970
    20  H   0.996        C   19 0.970
    21  H   0.996        C   19 0.971
    22  C   3.958        O   24 1.217    C    3 0.944    H   23 0.925    N   10 0.817
    23  H   0.997        C   22 0.925
    24  O   1.528        C   22 1.217
    25  C   3.992        C   19 1.007    C   33 1.005    H   27 0.975    H   26 0.974
    26  H   0.997        C   25 0.974
    27  H   0.998        C   25 0.975
    28  C   3.996        C   36 1.005    C   12 1.004    H   30 0.976    H   29 0.972
    29  H   0.999        C   28 0.972
    30  H   0.999        C   28 0.976
    31  H   0.998        C    5 0.971
    32  H   0.998        C    1 0.971
    33  C   3.995        C   39 1.020    C   25 1.005    H   34 0.978    H   35 0.977
    34  H   0.999        C   33 0.978
    35  H   0.998        C   33 0.977
    36  C   3.996        C   43 1.020    C   28 1.005    H   37 0.978    H   38 0.977
    37  H   0.999        C   36 0.978
    38  H   0.999        C   36 0.977
    39  C   3.995        C   33 1.020    H   42 0.987    H   40 0.987    H   41 0.987
    40  H   0.999        C   39 0.987
    41  H   0.998        C   39 0.987
    42  H   0.998        C   39 0.987
    43  C   3.996        C   36 1.020    H   45 0.988    H   46 0.988    H   44 0.987
    44  H   0.998        C   43 0.987
    45  H   0.999        C   43 0.988
    46  H   0.999        C   43 0.988

molecular dipole:
                 x           y           z       tot (Debye)
 q only:       -1.063      -2.796      -1.624
   full:       -1.288      -2.433      -1.640       8.145
molecular quadrupole (traceless):
                xx          xy          yy          xz          yz          zz
 q only:       -1.208     -10.424      31.356     -21.712     -18.218     -30.149
  q+dip:        0.266     -10.462      29.649     -22.454     -19.666     -29.915
   full:       -0.692      -9.475      30.952     -22.749     -17.932     -30.260


           -------------------------------------------------
          | TOTAL ENERGY              -56.277066362888 Eh   |
          | GRADIENT NORM               0.035357858867 Eh/α |
          | HOMO-LUMO GAP               2.741479779715 eV   |
           -------------------------------------------------

------------------------------------------------------------------------
 * finished run on 2020/08/10 at 03:21:41.106     
------------------------------------------------------------------------
 total:
 * wall-time:     0 d,  0 h,  0 min,  0.089 sec
 *  cpu-time:     0 d,  0 h,  0 min,  0.633 sec
 * ratio c/w:     7.107 speedup
 SCF:
 * wall-time:     0 d,  0 h,  0 min,  0.047 sec
 *  cpu-time:     0 d,  0 h,  0 min,  0.345 sec
 * ratio c/w:     7.290 speedup


-------------------------   --------------------
FINAL SINGLE POINT ENERGY       -56.277066362890
-------------------------   --------------------


----------------------------------------------------------------------------
                           ORCA NUMERICAL FREQUENCIES
                              (8-process run)
----------------------------------------------------------------------------

Number of atoms                ... 46
Central differences            ... used
Number of displacements        ... 276
Numerical increment            ... 5.000e-03 bohr
IR-spectrum generation         ... on
Raman-spectrum generation      ... off
Surface Crossing Hessian       ... off
List of participating nodes    ...  /tmp/slurm-scratch/freq.86/freq.hostnames

The output will be reduced. Please look at the following files:
SCF program output             ... >/tmp/slurm-scratch/freq.86/freq.lastscf
Integral program output        ... >/tmp/slurm-scratch/freq.86/freq.lastint
Gradient program output        ... >/tmp/slurm-scratch/freq.86/freq.lastgrad
Dipole moment program output   ... >/tmp/slurm-scratch/freq.86/freq.lastmom
AutoCI program output          ... >/tmp/slurm-scratch/freq.86/freq.lastautoci


         <<< Energy and Gradient at the input geometry >>>

        <<< Energy and Gradient at displaced geometries >>>
             <<<Displacing   2/coordinate 3 (+)>>>
             <<<Displacing   2/coordinate 2 (+)>>>
             <<<Displacing   1/coordinate 3 (+)>>>
             <<<Displacing   3/coordinate 2 (+)>>>
             <<<Displacing   3/coordinate 1 (+)>>>
             <<<Displacing   1/coordinate 2 (+)>>>
             <<<Displacing   1/coordinate 1 (+)>>>
             <<<Displacing   2/coordinate 1 (+)>>>
             <<<Displacing   3/coordinate 1 (-)>>>
             <<<Displacing   3/coordinate 2 (-)>>>
             <<<Displacing   1/coordinate 3 (-)>>>
             <<<Displacing   2/coordinate 2 (-)>>>
             <<<Displacing   2/coordinate 3 (-)>>>
             <<<Displacing   1/coordinate 1 (-)>>>
             <<<Displacing   1/coordinate 2 (-)>>>
             <<<Displacing   2/coordinate 1 (-)>>>
             <<<Displacing   4/coordinate 1 (+)>>>
             <<<Displacing   4/coordinate 2 (+)>>>
             <<<Displacing   5/coordinate 2 (+)>>>
             <<<Displacing   3/coordinate 3 (+)>>>
             <<<Displacing   4/coordinate 3 (+)>>>
             <<<Displacing   5/coordinate 1 (+)>>>
             <<<Displacing   5/coordinate 3 (+)>>>
             <<<Displacing   4/coordinate 2 (-)>>>
             <<<Displacing   4/coordinate 1 (-)>>>
             <<<Displacing   6/coordinate 1 (+)>>>
             <<<Displacing   5/coordinate 1 (-)>>>
             <<<Displacing   3/coordinate 3 (-)>>>
             <<<Displacing   5/coordinate 2 (-)>>>
             <<<Displacing   4/coordinate 3 (-)>>>
             <<<Displacing   5/coordinate 3 (-)>>>
             <<<Displacing   6/coordinate 1 (-)>>>
             <<<Displacing   6/coordinate 2 (+)>>>
             <<<Displacing   7/coordinate 1 (+)>>>
             <<<Displacing   6/coordinate 3 (+)>>>
             <<<Displacing   7/coordinate 2 (+)>>>
             <<<Displacing   7/coordinate 3 (+)>>>
             <<<Displacing   6/coordinate 2 (-)>>>
             <<<Displacing   8/coordinate 1 (+)>>>
             <<<Displacing   8/coordinate 2 (+)>>>
             <<<Displacing   7/coordinate 1 (-)>>>
             <<<Displacing   8/coordinate 3 (+)>>>
             <<<Displacing   6/coordinate 3 (-)>>>
             <<<Displacing   7/coordinate 2 (-)>>>
             <<<Displacing   7/coordinate 3 (-)>>>
             <<<Displacing   8/coordinate 2 (-)>>>
             <<<Displacing   8/coordinate 1 (-)>>>
             <<<Displacing   8/coordinate 3 (-)>>>
             <<<Displacing   9/coordinate 1 (+)>>>
             <<<Displacing   9/coordinate 3 (+)>>>
             <<<Displacing   9/coordinate 2 (+)>>>
             <<<Displacing  10/coordinate 1 (+)>>>
             <<<Displacing   9/coordinate 1 (-)>>>
             <<<Displacing  10/coordinate 2 (+)>>>
             <<<Displacing  10/coordinate 3 (+)>>>
             <<<Displacing   9/coordinate 3 (-)>>>
             <<<Displacing   9/coordinate 2 (-)>>>
             <<<Displacing  11/coordinate 1 (+)>>>
             <<<Displacing  10/coordinate 1 (-)>>>
             <<<Displacing  11/coordinate 2 (+)>>>
             <<<Displacing  10/coordinate 3 (-)>>>
             <<<Displacing  10/coordinate 2 (-)>>>
             <<<Displacing  11/coordinate 1 (-)>>>
             <<<Displacing  11/coordinate 2 (-)>>>
             <<<Displacing  11/coordinate 3 (+)>>>
             <<<Displacing  12/coordinate 2 (+)>>>
             <<<Displacing  12/coordinate 1 (+)>>>
             <<<Displacing  12/coordinate 3 (+)>>>
             <<<Displacing  11/coordinate 3 (-)>>>
             <<<Displacing  13/coordinate 1 (+)>>>
             <<<Displacing  13/coordinate 2 (+)>>>
             <<<Displacing  12/coordinate 2 (-)>>>
             <<<Displacing  12/coordinate 1 (-)>>>
             <<<Displacing  12/coordinate 3 (-)>>>
             <<<Displacing  13/coordinate 3 (+)>>>
             <<<Displacing  13/coordinate 1 (-)>>>
             <<<Displacing  13/coordinate 2 (-)>>>
             <<<Displacing  14/coordinate 1 (+)>>>
             <<<Displacing  13/coordinate 3 (-)>>>
             <<<Displacing  14/coordinate 1 (-)>>>
             <<<Displacing  14/coordinate 2 (+)>>>
             <<<Displacing  15/coordinate 1 (+)>>>
             <<<Displacing  14/coordinate 3 (+)>>>
             <<<Displacing  15/coordinate 2 (+)>>>
             <<<Displacing  15/coordinate 3 (+)>>>
             <<<Displacing  14/coordinate 2 (-)>>>
             <<<Displacing  16/coordinate 1 (+)>>>
             <<<Displacing  15/coordinate 1 (-)>>>
             <<<Displacing  14/coordinate 3 (-)>>>
             <<<Displacing  15/coordinate 2 (-)>>>
             <<<Displacing  15/coordinate 3 (-)>>>
             <<<Displacing  16/coordinate 1 (-)>>>
             <<<Displacing  16/coordinate 3 (+)>>>
             <<<Displacing  16/coordinate 2 (+)>>>
             <<<Displacing  16/coordinate 2 (-)>>>
             <<<Displacing  16/coordinate 3 (-)>>>
             <<<Displacing  17/coordinate 1 (+)>>>
             <<<Displacing  17/coordinate 2 (+)>>>
             <<<Displacing  17/coordinate 3 (+)>>>
             <<<Displacing  18/coordinate 1 (+)>>>
             <<<Displacing  18/coordinate 2 (+)>>>
             <<<Displacing  18/coordinate 3 (+)>>>
             <<<Displacing  17/coordinate 1 (-)>>>
             <<<Displacing  17/coordinate 2 (-)>>>
             <<<Displacing  18/coordinate 1 (-)>>>
             <<<Displacing  17/coordinate 3 (-)>>>
             <<<Displacing  19/coordinate 1 (+)>>>
             <<<Displacing  18/coordinate 3 (-)>>>
             <<<Displacing  19/coordinate 2 (+)>>>
             <<<Displacing  18/coordinate 2 (-)>>>
             <<<Displacing  19/coordinate 1 (-)>>>
             <<<Displacing  19/coordinate 2 (-)>>>
             <<<Displacing  19/coordinate 3 (+)>>>
             <<<Displacing  20/coordinate 1 (+)>>>
             <<<Displacing  20/coordinate 3 (+)>>>
             <<<Displacing  20/coordinate 2 (+)>>>
             <<<Displacing  21/coordinate 1 (+)>>>
             <<<Displacing  21/coordinate 2 (+)>>>
             <<<Displacing  19/coordinate 3 (-)>>>
             <<<Displacing  21/coordinate 3 (+)>>>
             <<<Displacing  20/coordinate 3 (-)>>>
             <<<Displacing  20/coordinate 1 (-)>>>
             <<<Displacing  21/coordinate 1 (-)>>>
             <<<Displacing  22/coordinate 1 (+)>>>
             <<<Displacing  20/coordinate 2 (-)>>>
             <<<Displacing  21/coordinate 2 (-)>>>
             <<<Displacing  21/coordinate 3 (-)>>>
             <<<Displacing  22/coordinate 1 (-)>>>
             <<<Displacing  22/coordinate 2 (+)>>>
             <<<Displacing  22/coordinate 3 (+)>>>
             <<<Displacing  23/coordinate 1 (+)>>>
             <<<Displacing  23/coordinate 3 (+)>>>
             <<<Displacing  23/coordinate 2 (+)>>>
             <<<Displacing  24/coordinate 1 (+)>>>
             <<<Displacing  22/coordinate 3 (-)>>>
             <<<Displacing  22/coordinate 2 (-)>>>
             <<<Displacing  23/coordinate 1 (-)>>>
             <<<Displacing  24/coordinate 2 (+)>>>
             <<<Displacing  24/coordinate 3 (+)>>>
             <<<Displacing  23/coordinate 3 (-)>>>
             <<<Displacing  23/coordinate 2 (-)>>>
             <<<Displacing  24/coordinate 1 (-)>>>
             <<<Displacing  24/coordinate 3 (-)>>>
             <<<Displacing  24/coordinate 2 (-)>>>
             <<<Displacing  25/coordinate 1 (+)>>>
             <<<Displacing  25/coordinate 2 (+)>>>
             <<<Displacing  26/coordinate 2 (+)>>>
             <<<Displacing  25/coordinate 3 (+)>>>
             <<<Displacing  26/coordinate 1 (+)>>>
             <<<Displacing  25/coordinate 1 (-)>>>
             <<<Displacing  26/coordinate 3 (+)>>>
             <<<Displacing  25/coordinate 2 (-)>>>
             <<<Displacing  26/coordinate 2 (-)>>>
             <<<Displacing  25/coordinate 3 (-)>>>
             <<<Displacing  26/coordinate 1 (-)>>>
             <<<Displacing  27/coordinate 1 (+)>>>
             <<<Displacing  27/coordinate 2 (+)>>>
             <<<Displacing  26/coordinate 3 (-)>>>
             <<<Displacing  27/coordinate 1 (-)>>>
             <<<Displacing  27/coordinate 2 (-)>>>
             <<<Displacing  28/coordinate 1 (+)>>>
             <<<Displacing  28/coordinate 2 (+)>>>
             <<<Displacing  27/coordinate 3 (+)>>>
             <<<Displacing  29/coordinate 1 (+)>>>
             <<<Displacing  28/coordinate 3 (+)>>>
             <<<Displacing  28/coordinate 1 (-)>>>
             <<<Displacing  29/coordinate 2 (+)>>>
             <<<Displacing  28/coordinate 2 (-)>>>
             <<<Displacing  28/coordinate 3 (-)>>>
             <<<Displacing  29/coordinate 1 (-)>>>
             <<<Displacing  27/coordinate 3 (-)>>>
             <<<Displacing  30/coordinate 1 (+)>>>
             <<<Displacing  29/coordinate 3 (+)>>>
             <<<Displacing  29/coordinate 2 (-)>>>
             <<<Displacing  30/coordinate 1 (-)>>>
             <<<Displacing  29/coordinate 3 (-)>>>
             <<<Displacing  31/coordinate 2 (+)>>>
             <<<Displacing  30/coordinate 3 (+)>>>
             <<<Displacing  30/coordinate 2 (+)>>>
             <<<Displacing  31/coordinate 3 (+)>>>
             <<<Displacing  31/coordinate 1 (+)>>>
             <<<Displacing  30/coordinate 2 (-)>>>
             <<<Displacing  32/coordinate 1 (+)>>>
             <<<Displacing  30/coordinate 3 (-)>>>
             <<<Displacing  31/coordinate 3 (-)>>>
             <<<Displacing  31/coordinate 2 (-)>>>
             <<<Displacing  31/coordinate 1 (-)>>>
             <<<Displacing  32/coordinate 2 (+)>>>
             <<<Displacing  32/coordinate 3 (+)>>>
             <<<Displacing  32/coordinate 1 (-)>>>
             <<<Displacing  32/coordinate 2 (-)>>>
             <<<Displacing  32/coordinate 3 (-)>>>
             <<<Displacing  33/coordinate 3 (+)>>>
             <<<Displacing  33/coordinate 2 (+)>>>
             <<<Displacing  33/coordinate 1 (+)>>>
             <<<Displacing  34/coordinate 2 (+)>>>
             <<<Displacing  34/coordinate 1 (+)>>>
             <<<Displacing  34/coordinate 3 (+)>>>
             <<<Displacing  33/coordinate 3 (-)>>>
             <<<Displacing  33/coordinate 2 (-)>>>
             <<<Displacing  33/coordinate 1 (-)>>>
             <<<Displacing  35/coordinate 1 (+)>>>
             <<<Displacing  34/coordinate 2 (-)>>>
             <<<Displacing  34/coordinate 1 (-)>>>
             <<<Displacing  34/coordinate 3 (-)>>>
             <<<Displacing  35/coordinate 2 (+)>>>
             <<<Displacing  35/coordinate 1 (-)>>>
             <<<Displacing  35/coordinate 2 (-)>>>
             <<<Displacing  35/coordinate 3 (+)>>>
             <<<Displacing  36/coordinate 2 (+)>>>
             <<<Displacing  36/coordinate 1 (+)>>>
             <<<Displacing  37/coordinate 1 (+)>>>
             <<<Displacing  37/coordinate 2 (+)>>>
             <<<Displacing  36/coordinate 3 (+)>>>
             <<<Displacing  37/coordinate 3 (+)>>>
             <<<Displacing  36/coordinate 1 (-)>>>
             <<<Displacing  37/coordinate 1 (-)>>>
             <<<Displacing  35/coordinate 3 (-)>>>
             <<<Displacing  36/coordinate 2 (-)>>>
             <<<Displacing  36/coordinate 3 (-)>>>
             <<<Displacing  37/coordinate 2 (-)>>>
             <<<Displacing  38/coordinate 1 (+)>>>
             <<<Displacing  37/coordinate 3 (-)>>>
             <<<Displacing  38/coordinate 1 (-)>>>
             <<<Displacing  38/coordinate 3 (+)>>>
             <<<Displacing  38/coordinate 2 (+)>>>
             <<<Displacing  39/coordinate 1 (+)>>>
             <<<Displacing  39/coordinate 2 (+)>>>
             <<<Displacing  40/coordinate 1 (+)>>>
             <<<Displacing  39/coordinate 3 (+)>>>
             <<<Displacing  40/coordinate 2 (+)>>>
             <<<Displacing  38/coordinate 3 (-)>>>
             <<<Displacing  38/coordinate 2 (-)>>>
             <<<Displacing  39/coordinate 1 (-)>>>
             <<<Displacing  39/coordinate 2 (-)>>>
             <<<Displacing  40/coordinate 3 (+)>>>
             <<<Displacing  40/coordinate 1 (-)>>>
             <<<Displacing  39/coordinate 3 (-)>>>
             <<<Displacing  40/coordinate 2 (-)>>>
             <<<Displacing  40/coordinate 3 (-)>>>
             <<<Displacing  41/coordinate 1 (+)>>>
             <<<Displacing  41/coordinate 2 (+)>>>
             <<<Displacing  41/coordinate 3 (+)>>>
             <<<Displacing  42/coordinate 3 (+)>>>
             <<<Displacing  42/coordinate 1 (+)>>>
             <<<Displacing  42/coordinate 2 (+)>>>
             <<<Displacing  41/coordinate 2 (-)>>>
             <<<Displacing  43/coordinate 1 (+)>>>
             <<<Displacing  41/coordinate 1 (-)>>>
             <<<Displacing  41/coordinate 3 (-)>>>
             <<<Displacing  42/coordinate 3 (-)>>>
             <<<Displacing  42/coordinate 1 (-)>>>
             <<<Displacing  42/coordinate 2 (-)>>>
             <<<Displacing  43/coordinate 2 (+)>>>
             <<<Displacing  43/coordinate 1 (-)>>>
             <<<Displacing  43/coordinate 2 (-)>>>
             <<<Displacing  43/coordinate 3 (+)>>>
             <<<Displacing  44/coordinate 2 (+)>>>
             <<<Displacing  44/coordinate 1 (+)>>>
             <<<Displacing  44/coordinate 3 (+)>>>
             <<<Displacing  45/coordinate 1 (+)>>>
             <<<Displacing  45/coordinate 2 (+)>>>
             <<<Displacing  43/coordinate 3 (-)>>>
             <<<Displacing  45/coordinate 3 (+)>>>
             <<<Displacing  44/coordinate 2 (-)>>>
             <<<Displacing  44/coordinate 3 (-)>>>
             <<<Displacing  44/coordinate 1 (-)>>>
             <<<Displacing  46/coordinate 1 (+)>>>
             <<<Displacing  45/coordinate 1 (-)>>>
             <<<Displacing  45/coordinate 2 (-)>>>
             <<<Displacing  45/coordinate 3 (-)>>>
             <<<Displacing  46/coordinate 1 (-)>>>
             <<<Displacing  46/coordinate 3 (+)>>>
             <<<Displacing  46/coordinate 2 (+)>>>
             <<<Displacing  46/coordinate 3 (-)>>>
             <<<Displacing  46/coordinate 2 (-)>>>

-----------------------
VIBRATIONAL FREQUENCIES
-----------------------

Scaling factor for frequencies =  1.000000000 (already applied!)

   0:         0.00 cm**-1
   1:         0.00 cm**-1
   2:         0.00 cm**-1
   3:         0.00 cm**-1
   4:         0.00 cm**-1
   5:         0.00 cm**-1
   6:      -882.24 cm**-1 ***imaginary mode***
   7:        31.56 cm**-1
   8:        36.99 cm**-1
   9:        50.18 cm**-1
  10:        54.53 cm**-1
  11:        72.05 cm**-1
  12:        77.46 cm**-1
  13:        83.00 cm**-1
  14:        93.86 cm**-1
  15:       120.59 cm**-1
  16:       126.18 cm**-1
  17:       136.85 cm**-1
  18:       139.12 cm**-1
  19:       170.66 cm**-1
  20:       190.57 cm**-1
  21:       211.05 cm**-1
  22:       220.85 cm**-1
  23:       231.33 cm**-1
  24:       269.29 cm**-1
  25:       273.08 cm**-1
  26:       282.09 cm**-1
  27:       379.93 cm**-1
  28:       382.41 cm**-1
  29:       389.27 cm**-1
  30:       391.17 cm**-1
  31:       406.01 cm**-1
  32:       422.24 cm**-1
  33:       482.24 cm**-1
  34:       509.94 cm**-1
  35:       580.12 cm**-1
  36:       589.19 cm**-1
  37:       616.47 cm**-1
  38:       641.81 cm**-1
  39:       670.90 cm**-1
  40:       737.84 cm**-1
  41:       765.84 cm**-1
  42:       776.58 cm**-1
  43:       785.69 cm**-1
  44:       815.47 cm**-1
  45:       828.47 cm**-1
  46:       839.47 cm**-1
  47:       876.39 cm**-1
  48:       887.10 cm**-1
  49:       909.46 cm**-1
  50:       931.98 cm**-1
  51:       932.51 cm**-1
  52:       936.34 cm**-1
  53:       937.95 cm**-1
  54:       947.77 cm**-1
  55:       954.12 cm**-1
  56:       970.60 cm**-1
  57:       978.83 cm**-1
  58:      1003.81 cm**-1
  59:      1035.90 cm**-1
  60:      1058.80 cm**-1
  61:      1066.57 cm**-1
  62:      1076.66 cm**-1
  63:      1092.47 cm**-1
  64:      1097.66 cm**-1
  65:      1103.01 cm**-1
  66:      1106.94 cm**-1
  67:      1115.76 cm**-1
  68:      1127.56 cm**-1
  69:      1140.11 cm**-1
  70:      1151.87 cm**-1
  71:      1176.27 cm**-1
  72:      1185.20 cm**-1
  73:      1194.23 cm**-1
  74:      1197.56 cm**-1
  75:      1209.80 cm**-1
  76:      1232.09 cm**-1
  77:      1239.03 cm**-1
  78:      1251.09 cm**-1
  79:      1270.27 cm**-1
  80:      1271.23 cm**-1
  81:      1276.93 cm**-1
  82:      1277.25 cm**-1
  83:      1278.43 cm**-1
  84:      1283.08 cm**-1
  85:      1285.36 cm**-1
  86:      1302.88 cm**-1
  87:      1310.55 cm**-1
  88:      1342.26 cm**-1
  89:      1346.96 cm**-1
  90:      1372.17 cm**-1
  91:      1373.75 cm**-1
  92:      1403.73 cm**-1
  93:      1420.10 cm**-1
  94:      1428.61 cm**-1
  95:      1429.48 cm**-1
  96:      1455.91 cm**-1
  97:      1473.58 cm**-1
  98:      1476.16 cm**-1
  99:      1493.68 cm**-1
 100:      1498.69 cm**-1
 101:      1500.70 cm**-1
 102:      1502.02 cm**-1
 103:      1503.97 cm**-1
 104:      1506.03 cm**-1
 105:      1506.77 cm**-1
 106:      1507.05 cm**-1
 107:      1510.79 cm**-1
 108:      1512.36 cm**-1
 109:      1565.72 cm**-1
 110:      1572.04 cm**-1
 111:      2660.75 cm**-1
 112:      2891.30 cm**-1
 113:      2935.46 cm**-1
 114:      2943.18 cm**-1
 115:      2945.35 cm**-1
 116:      2948.47 cm**-1
 117:      2954.02 cm**-1
 118:      2966.60 cm**-1
 119:      2967.54 cm**-1
 120:      2972.05 cm**-1
 121:      2979.60 cm**-1
 122:      2980.21 cm**-1
 123:      2981.21 cm**-1
 124:      2983.82 cm**-1
 125:      2986.96 cm**-1
 126:      2989.84 cm**-1
 127:      2997.53 cm**-1
 128:      2998.09 cm**-1
 129:      3001.48 cm**-1
 130:      3019.60 cm**-1
 131:      3023.36 cm**-1
 132:      3046.25 cm**-1
 133:      3049.03 cm**-1
 134:      3063.00 cm**-1
 135:      3070.29 cm**-1
 136:      3358.24 cm**-1
 137:      3407.89 cm**-1


------------
NORMAL MODES
------------

These modes are the cartesian displacements weighted by the diagonal matrix
M(i,i)=1/sqrt(m[i]) where m[i] is the mass of the displaced atom
Thus, these vectors are normalized but *not* orthogonal

                  0          1          2          3          4          5    
      0       0.000000   0.000000   0.000000   0.000000   0.000000   0.000000
      1       0.000000   0.000000   0.000000   0.000000   0.000000   0.000000
      2       0.000000   0.000000   0.000000   0.000000   0.000000   0.000000
      3       0.000000   0.000000   0.000000   0.000000   0.000000   0.000000
      4       0.000000   0.000000   0.000000   0.000000   0.000000   0.000000
      5       0.000000   0.000000   0.000000   0.000000   0.000000   0.000000
      6       0.000000   0.000000   0.000000   0.000000   0.000000   0.000000
      7       0.000000   0.000000   0.000000   0.000000   0.000000   0.000000
      8       0.000000   0.000000   0.000000   0.000000   0.000000   0.000000
      9       0.000000   0.000000   0.000000   0.000000   0.000000   0.000000
     10       0.000000   0.000000   0.000000   0.000000   0.000000   0.000000
     11       0.000000   0.000000   0.000000   0.000000   0.000000   0.000000
     12       0.000000   0.000000   0.000000   0.000000   0.000000   0.000000
     13       0.000000   0.000000   0.000000   0.000000   0.000000   0.000000
     14       0.000000   0.000000   0.000000   0.000000   0.000000   0.000000
     15       0.000000   0.000000   0.000000   0.000000   0.000000   0.000000
     16       0.000000   0.000000   0.000000   0.000000   0.000000   0.000000
     17       0.000000   0.000000   0.000000   0.000000   0.000000   0.000000
     18       0.000000   0.000000   0.000000   0.000000   0.000000   0.000000
     19       0.000000   0.000000   0.000000   0.000000   0.000000   0.000000
     20       0.000000   0.000000   0.000000   0.000000   0.000000   0.000000
     21       0.000000   0.000000   0.000000   0.000000   0.000000   0.000000
     22       0.000000   0.000000   0.000000   0.000000   0.000000   0.000000
     23       0.000000   0.000000   0.000000   0.000000   0.000000   0.000000
     24       0.000000   0.000000   0.000000   0.000000   0.000000   0.000000
     25       0.000000   0.000000   0.000000   0.000000   0.000000   0.000000
     26       0.000000   0.000000   0.000000   0.000000   0.000000   0.000000
     27       0.000000   0.000000   0.000000   0.000000   0.000000   0.000000
     28       0.000000   0.000000   0.000000   0.000000   0.000000   0.000000
     29       0.000000   0.000000   0.000000   0.000000   0.000000   0.000000
     30       0.000000   0.000000   0.000000   0.000000   0.000000   0.000000
     31       0.000000   0.000000   0.000000   0.000000   0.000000   0.000000
     32       0.000000   0.000000   0.000000   0.000000   0.000000   0.000000
     33       0.000000   0.000000   0.000000   0.000000   0.000000   0.000000
     34       0.000000   0.000000   0.000000   0.000000   0.000000   0.000000
     35       0.000000   0.000000   0.000000   0.000000   0.000000   0.000000
     36       0.000000   0.000000   0.000000   0.000000   0.000000   0.000000
     37       0.000000   0.000000   0.000000   0.000000   0.000000   0.000000
     38       0.000000   0.000000   0.000000   0.000000   0.000000   0.000000
     39       0.000000   0.000000   0.000000   0.000000   0.000000   0.000000
     40       0.000000   0.000000   0.000000   0.000000   0.000000   0.000000
     41       0.000000   0.000000   0.000000   0.000000   0.000000   0.000000
     42       0.000000   0.000000   0.000000   0.000000   0.000000   0.000000
     43       0.000000   0.000000   0.000000   0.000000   0.000000   0.000000
     44       0.000000   0.000000   0.000000   0.000000   0.000000   0.000000
     45       0.000000   0.000000   0.000000   0.000000   0.000000   0.000000
     46       0.000000   0.000000   0.000000   0.000000   0.000000   0.000000
     47       0.000000   0.000000   0.000000   0.000000   0.000000   0.000000
     48       0.000000   0.000000   0.000000   0.000000   0.000000   0.000000
     49       0.000000   0.000000   0.000000   0.000000   0.000000   0.000000
     50       0.000000   0.000000   0.000000   0.000000   0.000000   0.000000
     51       0.000000   0.000000   0.000000   0.000000   0.000000   0.000000
     52       0.000000   0.000000   0.000000   0.000000   0.000000   0.000000
     53       0.000000   0.000000   0.000000   0.000000   0.000000   0.000000
     54       0.000000   0.000000   0.000000   0.000000   0.000000   0.000000
     55       0.000000   0.000000   0.000000   0.000000   0.000000   0.000000
     56       0.000000   0.000000   0.000000   0.000000   0.000000   0.000000
     57       0.000000   0.000000   0.000000   0.000000   0.000000   0.000000
     58       0.000000   0.000000   0.000000   0.000000   0.000000   0.000000
     59       0.000000   0.000000   0.000000   0.000000   0.000000   0.000000
     60       0.000000   0.000000   0.000000   0.000000   0.000000   0.000000
     61       0.000000   0.000000   0.000000   0.000000   0.000000   0.000000
     62       0.000000   0.000000   0.000000   0.000000   0.000000   0.000000
     63       0.000000   0.000000   0.000000   0.000000   0.000000   0.000000
     64       0.000000   0.000000   0.000000   0.000000   0.000000   0.000000
     65       0.000000   0.000000   0.000000   0.000000   0.000000   0.000000
     66       0.000000   0.000000   0.000000   0.000000   0.000000   0.000000
     67       0.000000   0.000000   0.000000   0.000000   0.000000   0.000000
     68       0.000000   0.000000   0.000000   0.000000   0.000000   0.000000
     69       0.000000   0.000000   0.000000   0.000000   0.000000   0.000000
     70       0.000000   0.000000   0.000000   0.000000   0.000000   0.000000
     71       0.000000   0.000000   0.000000   0.000000   0.000000   0.000000
     72       0.000000   0.000000   0.000000   0.000000   0.000000   0.000000
     73       0.000000   0.000000   0.000000   0.000000   0.000000   0.000000
     74       0.000000   0.000000   0.000000   0.000000   0.000000   0.000000
     75       0.000000   0.000000   0.000000   0.000000   0.000000   0.000000
     76       0.000000   0.000000   0.000000   0.000000   0.000000   0.000000
     77       0.000000   0.000000   0.000000   0.000000   0.000000   0.000000
     78       0.000000   0.000000   0.000000   0.000000   0.000000   0.000000
     79       0.000000   0.000000   0.000000   0.000000   0.000000   0.000000
     80       0.000000   0.000000   0.000000   0.000000   0.000000   0.000000
     81       0.000000   0.000000   0.000000   0.000000   0.000000   0.000000
     82       0.000000   0.000000   0.000000   0.000000   0.000000   0.000000
     83       0.000000   0.000000   0.000000   0.000000   0.000000   0.000000
     84       0.000000   0.000000   0.000000   0.000000   0.000000   0.000000
     85       0.000000   0.000000   0.000000   0.000000   0.000000   0.000000
     86       0.000000   0.000000   0.000000   0.000000   0.000000   0.000000
     87       0.000000   0.000000   0.000000   0.000000   0.000000   0.000000
     88       0.000000   0.000000   0.000000   0.000000   0.000000   0.000000
     89       0.000000   0.000000   0.000000   0.000000   0.000000   0.000000
     90       0.000000   0.000000   0.000000   0.000000   0.000000   0.000000
     91       0.000000   0.000000   0.000000   0.000000   0.000000   0.000000
     92       0.000000   0.000000   0.000000   0.000000   0.000000   0.000000
     93       0.000000   0.000000   0.000000   0.000000   0.000000   0.000000
     94       0.000000   0.000000   0.000000   0.000000   0.000000   0.000000
     95       0.000000   0.000000   0.000000   0.000000   0.000000   0.000000
     96       0.000000   0.000000   0.000000   0.000000   0.000000   0.000000
     97       0.000000   0.000000   0.000000   0.000000   0.000000   0.000000
     98       0.000000   0.000000   0.000000   0.000000   0.000000   0.000000
     99       0.000000   0.000000   0.000000   0.000000   0.000000   0.000000
    100       0.000000   0.000000   0.000000   0.000000   0.000000   0.000000
    101       0.000000   0.000000   0.000000   0.000000   0.000000   0.000000
    102       0.000000   0.000000   0.000000   0.000000   0.000000   0.000000
    103       0.000000   0.000000   0.000000   0.000000   0.000000   0.000000
    104       0.000000   0.000000   0.000000   0.000000   0.000000   0.000000
    105       0.000000   0.000000   0.000000   0.000000   0.000000   0.000000
    106       0.000000   0.000000   0.000000   0.000000   0.000000   0.000000
    107       0.000000   0.000000   0.000000   0.000000   0.000000   0.000000
    108       0.000000   0.000000   0.000000   0.000000   0.000000   0.000000
    109       0.000000   0.000000   0.000000   0.000000   0.000000   0.000000
    110       0.000000   0.000000   0.000000   0.000000   0.000000   0.000000
    111       0.000000   0.000000   0.000000   0.000000   0.000000   0.000000
    112       0.000000   0.000000   0.000000   0.000000   0.000000   0.000000
    113       0.000000   0.000000   0.000000   0.000000   0.000000   0.000000
    114       0.000000   0.000000   0.000000   0.000000   0.000000   0.000000
    115       0.000000   0.000000   0.000000   0.000000   0.000000   0.000000
    116       0.000000   0.000000   0.000000   0.000000   0.000000   0.000000
    117       0.000000   0.000000   0.000000   0.000000   0.000000   0.000000
    118       0.000000   0.000000   0.000000   0.000000   0.000000   0.000000
    119       0.000000   0.000000   0.000000   0.000000   0.000000   0.000000
    120       0.000000   0.000000   0.000000   0.000000   0.000000   0.000000
    121       0.000000   0.000000   0.000000   0.000000   0.000000   0.000000
    122       0.000000   0.000000   0.000000   0.000000   0.000000   0.000000
    123       0.000000   0.000000   0.000000   0.000000   0.000000   0.000000
    124       0.000000   0.000000   0.000000   0.000000   0.000000   0.000000
    125       0.000000   0.000000   0.000000   0.000000   0.000000   0.000000
    126       0.000000   0.000000   0.000000   0.000000   0.000000   0.000000
    127       0.000000   0.000000   0.000000   0.000000   0.000000   0.000000
    128       0.000000   0.000000   0.000000   0.000000   0.000000   0.000000
    129       0.000000   0.000000   0.000000   0.000000   0.000000   0.000000
    130       0.000000   0.000000   0.000000   0.000000   0.000000   0.000000
    131       0.000000   0.000000   0.000000   0.000000   0.000000   0.000000
    132       0.000000   0.000000   0.000000   0.000000   0.000000   0.000000
    133       0.000000   0.000000   0.000000   0.000000   0.000000   0.000000
    134       0.000000   0.000000   0.000000   0.000000   0.000000   0.000000
    135       0.000000   0.000000   0.000000   0.000000   0.000000   0.000000
    136       0.000000   0.000000   0.000000   0.000000   0.000000   0.000000
    137       0.000000   0.000000   0.000000   0.000000   0.000000   0.000000
                  6          7          8          9         10         11    
      0      -0.000802  -0.015811  -0.001003  -0.126904   0.042490  -0.030320
      1      -0.000402  -0.170032  -0.016192   0.014391  -0.084749   0.033662
      2       0.000646  -0.063321   0.005061   0.074289  -0.017393   0.027929
      3      -0.002076  -0.016017  -0.017308  -0.070047   0.025860   0.005457
      4      -0.001910  -0.118854  -0.015932  -0.024669  -0.049824   0.062241
      5       0.001045  -0.049606  -0.003200   0.092499  -0.016111   0.053779
      6       0.003625  -0.016354  -0.032588  -0.013709   0.014093   0.016728
      7       0.000275  -0.072525  -0.023118  -0.033003  -0.012656   0.012126
      8      -0.001630  -0.022628   0.003260   0.048686   0.013088   0.017113
      9       0.001957  -0.016127  -0.030737  -0.016848   0.018866  -0.005811
     10       0.001574  -0.080494  -0.027506   0.001001  -0.011184  -0.066104
     11      -0.000089  -0.012136   0.019960  -0.011522   0.039965  -0.045411
     12       0.000699  -0.015996  -0.014600  -0.074003   0.035144  -0.040956
     13      -0.000341  -0.132783  -0.027187   0.040043  -0.046340  -0.094494
     14      -0.000526  -0.026713   0.028378  -0.030204   0.038879  -0.071582
     15      -0.000859  -0.015707   0.000020  -0.129200   0.046494  -0.053824
     16       0.000156  -0.177515  -0.022060   0.045979  -0.083260  -0.045987
     17       0.000468  -0.051846   0.020769   0.012657   0.010052  -0.035217
     18      -0.000882  -0.015672  -0.017396  -0.068998   0.022968   0.024235
     19      -0.001066  -0.111179  -0.009336  -0.050127  -0.050565   0.121932
     20      -0.001568  -0.059361  -0.015779   0.140991  -0.038804   0.103723
     21      -0.000931  -0.015061  -0.043009   0.026004   0.009443   0.006868
     22      -0.001758  -0.040255  -0.032994  -0.007241   0.017713  -0.101502
     23      -0.001047   0.008867   0.025125  -0.044930   0.061652  -0.072924
     24       0.000114  -0.015116   0.012190  -0.173215   0.058291  -0.081152
     25      -0.000308  -0.216469  -0.022333   0.074805  -0.109868  -0.069058
     26       0.001218  -0.062116   0.026987  -0.002056   0.008923  -0.055438
     27       0.005419  -0.023101  -0.077309   0.043495   0.000981   0.022296
     28      -0.047978  -0.019857   0.014214  -0.085046   0.015344   0.040694
     29      -0.003186   0.030910  -0.011517   0.078186   0.038930   0.028499
     30      -0.507252  -0.013428  -0.113722   0.028230   0.007949   0.007728
     31       0.801963  -0.013762   0.020926  -0.080638   0.029454   0.033350
     32       0.031466   0.044888  -0.056624   0.083102   0.028095   0.003622
     33      -0.009346  -0.010131  -0.068878   0.009948   0.014618   0.003773
     34      -0.015551   0.006007   0.022617  -0.015362   0.016754   0.022501
     35       0.009148   0.047590  -0.000776   0.059435   0.051601   0.007674
     36      -0.017632  -0.009733  -0.127074   0.019004   0.045548  -0.073923
     37      -0.010928  -0.001887   0.065285  -0.032393  -0.009890   0.093399
     38       0.038104   0.080491  -0.032836   0.110159   0.086301  -0.099422
     39      -0.004677   0.001777  -0.059837  -0.023726   0.026502  -0.021563
     40      -0.003472   0.034554  -0.052549   0.052850   0.065973  -0.124461
     41       0.005972   0.045243  -0.019165   0.091148   0.052673  -0.002675
     42       0.035547  -0.033678  -0.081451   0.068824  -0.010770   0.031803
     43      -0.137871  -0.042199   0.042298  -0.113844   0.003203   0.066522
     44      -0.058095   0.029686  -0.000914   0.055332   0.041307   0.031211
     45      -0.004566  -0.010845  -0.089227   0.066151   0.062471  -0.001970
     46      -0.028758  -0.006053   0.006382  -0.069408   0.070490   0.015569
     47      -0.012614   0.068840  -0.088388   0.024789  -0.042461  -0.007472
     48       0.018138  -0.025774  -0.060150   0.138603   0.169814  -0.016691
     49      -0.034950  -0.012042  -0.024765  -0.099779   0.033505   0.016540
     50      -0.033638   0.052814  -0.116675   0.018641  -0.039617  -0.013263
     51       0.058562  -0.032990  -0.111288   0.063498   0.056133   0.011649
     52      -0.212878  -0.002290   0.003582  -0.053367   0.092956   0.000709
     53      -0.056122   0.082977  -0.060012   0.013266  -0.060107  -0.001497
     54      -0.002004   0.031348  -0.049646   0.029708  -0.009617  -0.001412
     55      -0.004210   0.011039   0.073118   0.006928   0.160053   0.008672
     56       0.008709   0.089573  -0.088136  -0.026105  -0.120724  -0.005041
     57      -0.014429   0.137180  -0.185726  -0.089688  -0.252061   0.003054
     58       0.007590   0.020376   0.102240   0.042131   0.198214   0.005731
     59       0.014511   0.167878  -0.118899  -0.036758  -0.198323  -0.007156
     60       0.027052  -0.031728   0.034065   0.101333   0.134288  -0.003970
     61      -0.012428  -0.081985   0.215238   0.091530   0.347510   0.007217
     62      -0.048134   0.113629  -0.085371  -0.090548  -0.220323   0.000482
     63       0.051102  -0.019462  -0.046736   0.047944   0.002656   0.041460
     64       0.031976  -0.011448  -0.019582  -0.083421   0.022288   0.020862
     65       0.024438  -0.006328  -0.003496   0.062381   0.017468   0.032742
     66      -0.058518  -0.013507  -0.020159   0.052243   0.003664   0.058215
     67      -0.026243   0.007642  -0.008271  -0.102093   0.030073   0.024464
     68      -0.022242  -0.046404   0.004001   0.113783  -0.002564   0.046454
     69      -0.012560  -0.025774  -0.062569   0.088589   0.001778   0.049801
     70       0.038333   0.019167  -0.049802  -0.097739   0.036849   0.003759
     71       0.002756   0.016960  -0.007079   0.020324   0.027194   0.014195
     72       0.001518   0.020739   0.071090   0.056891   0.034134   0.002862
     73      -0.000688   0.140640  -0.080143  -0.063827  -0.037759   0.007094
     74      -0.003767  -0.024563  -0.054658   0.015919   0.028391  -0.007248
     75      -0.001845  -0.069890   0.194143   0.187256   0.283907  -0.007720
     76       0.004408   0.119560  -0.100364  -0.106509  -0.079517   0.012389
     77       0.006396  -0.109406  -0.020897   0.015799   0.095133  -0.004148
     78      -0.001734   0.071224  -0.002678  -0.016317  -0.105461   0.008565
     79      -0.000415   0.223328  -0.215750  -0.152797  -0.223000   0.009792
     80       0.005347  -0.031237  -0.076812   0.092119   0.140063  -0.022053
     81       0.007386  -0.010626   0.002551   0.007657  -0.023384   0.094366
     82      -0.000089   0.008970   0.073975   0.002970  -0.010835   0.085255
     83      -0.008091   0.025868   0.072357  -0.074652   0.015001   0.120694
     84      -0.001472  -0.009778   0.060941   0.005012  -0.055462   0.145282
     85      -0.001979   0.015147   0.030600   0.028929   0.011128  -0.020534
     86       0.001842   0.001466   0.103823  -0.162949   0.004280   0.394834
     87      -0.001460  -0.015870  -0.007097   0.024234  -0.014489   0.246560
     88      -0.000427  -0.013756   0.147798  -0.096699  -0.046164   0.339434
     89       0.000497   0.024360   0.091499  -0.102173   0.003473   0.086861
     90       0.000124  -0.015696  -0.013886  -0.075619   0.037933  -0.058020
     91      -0.001883  -0.137345  -0.031255   0.064320  -0.044882  -0.155283
     92      -0.001119  -0.017833   0.040888  -0.077982   0.060610  -0.120187
     93       0.000469  -0.015628   0.010731  -0.168772   0.051602  -0.039123
     94      -0.001672  -0.203204  -0.011460   0.018801  -0.112366   0.072112
     95       0.000256  -0.082500  -0.000662   0.107384  -0.039822   0.056460
     96      -0.001333   0.064709   0.126770   0.006218  -0.074936   0.018094
     97      -0.000686   0.191582  -0.027678   0.043161   0.067731  -0.005659
     98      -0.000781  -0.014774  -0.039218  -0.044945  -0.064654   0.004914
     99       0.001536   0.110193   0.056497  -0.087480  -0.249336   0.025709
    100       0.000992   0.213719  -0.008875   0.085714   0.107649  -0.010835
    101       0.000723   0.044997  -0.042998  -0.020609  -0.084951   0.000040
    102       0.000965   0.041313   0.166947   0.055661   0.016319   0.014545
    103       0.001153   0.154000   0.056086   0.095955   0.177490  -0.004215
    104       0.001345  -0.003512  -0.019481  -0.122350  -0.182979   0.021191
    105       0.002712  -0.005024   0.008152  -0.012727  -0.032773  -0.092389
    106      -0.001541   0.033727   0.086990   0.127822  -0.022767  -0.053358
    107      -0.002062   0.037756   0.081206  -0.062126   0.003220  -0.093750
    108       0.000795  -0.000070   0.014468  -0.029646  -0.042143  -0.252273
    109      -0.000404   0.052257   0.037874   0.200127   0.008380  -0.247406
    110      -0.002304   0.039287   0.066336  -0.036183   0.015507  -0.050666
    111       0.000673  -0.007831  -0.034748  -0.031188  -0.001507  -0.099647
    112       0.000531   0.029105   0.118546   0.117608  -0.043958   0.023783
    113       0.000377   0.059396   0.064616   0.012337   0.009160  -0.341078
    114      -0.000045   0.078747   0.218674   0.014482  -0.075766   0.029157
    115      -0.000429   0.258364  -0.105800   0.026774  -0.018511  -0.013099
    116      -0.001401  -0.094454  -0.047075  -0.036309   0.022362   0.002099
    117      -0.000311   0.097842   0.191200  -0.015489  -0.136723   0.030810
    118       0.000266   0.291186  -0.177385  -0.008648  -0.100256  -0.016489
    119       0.000469  -0.103247  -0.079698   0.007728   0.093766  -0.010288
    120       0.000404   0.107226   0.259042  -0.007948  -0.134835   0.038870
    121      -0.001304   0.293515  -0.082001   0.071881   0.012836  -0.017724
    122      -0.001559  -0.086760  -0.029955  -0.059932  -0.018701   0.008711
    123       0.000016   0.041209   0.272538   0.073195   0.043783   0.025955
    124       0.000317   0.238002  -0.113918   0.005291  -0.030023  -0.010485
    125       0.000903  -0.150487  -0.037937  -0.050479   0.055018   0.005634
    126       0.002096  -0.002321   0.060316   0.014692  -0.071076  -0.064716
    127      -0.000231   0.039299   0.122191   0.171744  -0.048336  -0.039426
    128      -0.001556   0.019317   0.128977  -0.179395  -0.032097  -0.041412
    129       0.003845  -0.001525   0.065129  -0.009546  -0.076789  -0.156415
    130      -0.002790   0.053614   0.132120   0.252471  -0.057122  -0.111271
    131      -0.001650   0.024292   0.136381  -0.178244  -0.040045  -0.148367
    132      -0.000179  -0.000082   0.101795   0.032351  -0.102176  -0.058683
    133      -0.000479   0.043094   0.093852   0.180026  -0.028297  -0.099722
    134       0.000653   0.003605   0.140681  -0.236616  -0.037309   0.132204
    135      -0.000384  -0.003343   0.051934   0.041654  -0.062440   0.040283
    136      -0.000241   0.025116   0.165911   0.114873  -0.078475   0.103163
    137       0.000684   0.016517   0.144489  -0.209149  -0.044480  -0.069904
                 12         13         14         15         16         17    
      0      -0.006829   0.033561   0.026787  -0.000213   0.072994   0.010582
      1      -0.057236   0.129110   0.020462  -0.010006   0.132434   0.000639
      2      -0.039932   0.033089  -0.041200  -0.009339   0.002946  -0.008572
      3      -0.023468   0.028801   0.021222  -0.014808   0.003132  -0.019908
      4      -0.089383   0.127786  -0.025951   0.011385  -0.007223   0.041047
      5      -0.057120   0.030324  -0.055910  -0.010798  -0.069103  -0.013002
      6      -0.013874  -0.004878   0.027180  -0.027258  -0.052854  -0.050327
      7      -0.021315   0.008238  -0.016889   0.023291  -0.115857   0.049007
      8      -0.024061  -0.015244  -0.054189   0.004368  -0.092996   0.012537
      9       0.010971  -0.032697   0.038021  -0.026964  -0.051821  -0.052523
     10       0.082072  -0.118337   0.033153   0.012960  -0.140205   0.018472
     11       0.026075  -0.058075  -0.044641   0.021757  -0.066397   0.045605
     12       0.027608  -0.029508   0.043813  -0.012373   0.012218  -0.021529
     13       0.115832  -0.124181   0.080398  -0.007999  -0.022137  -0.022154
     14       0.043899  -0.058210  -0.028943   0.024341  -0.000533   0.051976
     15       0.019477   0.003852   0.039607   0.000438   0.079715   0.008847
     16       0.046368   0.002323   0.078805  -0.019771   0.139665  -0.033147
     17       0.010910  -0.011414  -0.026874   0.008561   0.041724   0.024079
     18      -0.043835   0.051176   0.011779  -0.015513  -0.002208  -0.019713
     19      -0.162795   0.212663  -0.063260   0.016727  -0.017101   0.059398
     20      -0.097983   0.067394  -0.069292  -0.024395  -0.097792  -0.036801
     21       0.015025  -0.052556   0.041928  -0.039361  -0.090554  -0.082009
     22       0.130179  -0.203379   0.032946   0.022045  -0.219750   0.029100
     23       0.049070  -0.090492  -0.047367   0.034970  -0.082928   0.071538
     24       0.032782   0.007244   0.044627   0.010960   0.134576   0.031495
     25       0.071996   0.001326   0.119696  -0.035865   0.261343  -0.065682
     26       0.024685  -0.009853  -0.013237   0.009487   0.103049   0.026536
[...]
  13:        83.00    0.000000  (  0.000000   0.000000   0.000000)
  14:        93.86    0.000000  (  0.000000   0.000000   0.000000)
  15:       120.59    0.000000  (  0.000000   0.000000   0.000000)
  16:       126.18    0.000000  (  0.000000   0.000000   0.000000)
  17:       136.85    0.000000  (  0.000000   0.000000   0.000000)
  18:       139.12    0.000000  (  0.000000   0.000000   0.000000)
  19:       170.66    0.000000  (  0.000000   0.000000   0.000000)
  20:       190.57    0.000000  (  0.000000   0.000000   0.000000)
  21:       211.05    0.000000  (  0.000000   0.000000   0.000000)
  22:       220.85    0.000000  (  0.000000   0.000000   0.000000)
  23:       231.33    0.000000  (  0.000000   0.000000   0.000000)
  24:       269.29    0.000000  (  0.000000   0.000000   0.000000)
  25:       273.08    0.000000  (  0.000000   0.000000   0.000000)
  26:       282.09    0.000000  (  0.000000   0.000000   0.000000)
  27:       379.93    0.000000  (  0.000000   0.000000   0.000000)
  28:       382.41    0.000000  (  0.000000   0.000000   0.000000)
  29:       389.27    0.000000  (  0.000000   0.000000   0.000000)
  30:       391.17    0.000000  (  0.000000   0.000000   0.000000)
  31:       406.01    0.000000  (  0.000000   0.000000   0.000000)
  32:       422.24    0.000000  (  0.000000   0.000000   0.000000)
  33:       482.24    0.000000  (  0.000000   0.000000   0.000000)
  34:       509.94    0.000000  (  0.000000   0.000000   0.000000)
  35:       580.12    0.000000  (  0.000000   0.000000   0.000000)
  36:       589.19    0.000000  (  0.000000   0.000000   0.000000)
  37:       616.47    0.000000  (  0.000000   0.000000   0.000000)
  38:       641.81    0.000000  (  0.000000   0.000000   0.000000)
  39:       670.90    0.000000  (  0.000000   0.000000   0.000000)
  40:       737.84    0.000000  (  0.000000   0.000000   0.000000)
  41:       765.84    0.000000  (  0.000000   0.000000   0.000000)
  42:       776.58    0.000000  (  0.000000   0.000000   0.000000)
  43:       785.69    0.000000  (  0.000000   0.000000   0.000000)
  44:       815.47    0.000000  (  0.000000   0.000000   0.000000)
  45:       828.47    0.000000  (  0.000000   0.000000   0.000000)
  46:       839.47    0.000000  (  0.000000   0.000000   0.000000)
  47:       876.39    0.000000  (  0.000000   0.000000   0.000000)
  48:       887.10    0.000000  (  0.000000   0.000000   0.000000)
  49:       909.46    0.000000  (  0.000000   0.000000   0.000000)
  50:       931.98    0.000000  (  0.000000   0.000000   0.000000)
  51:       932.51    0.000000  (  0.000000   0.000000   0.000000)
  52:       936.34    0.000000  (  0.000000   0.000000   0.000000)
  53:       937.95    0.000000  (  0.000000   0.000000   0.000000)
  54:       947.77    0.000000  (  0.000000   0.000000   0.000000)
  55:       954.12    0.000000  (  0.000000   0.000000   0.000000)
  56:       970.60    0.000000  (  0.000000   0.000000   0.000000)
  57:       978.83    0.000000  (  0.000000   0.000000   0.000000)
  58:      1003.81    0.000000  (  0.000000   0.000000   0.000000)
  59:      1035.90    0.000000  (  0.000000   0.000000   0.000000)
  60:      1058.80    0.000000  (  0.000000   0.000000   0.000000)
  61:      1066.57    0.000000  (  0.000000   0.000000   0.000000)
  62:      1076.66    0.000000  (  0.000000   0.000000   0.000000)
  63:      1092.47    0.000000  (  0.000000   0.000000   0.000000)
  64:      1097.66    0.000000  (  0.000000   0.000000   0.000000)
  65:      1103.01    0.000000  (  0.000000   0.000000   0.000000)
  66:      1106.94    0.000000  (  0.000000   0.000000   0.000000)
  67:      1115.76    0.000000  (  0.000000   0.000000   0.000000)
  68:      1127.56    0.000000  (  0.000000   0.000000   0.000000)
  69:      1140.11    0.000000  (  0.000000   0.000000   0.000000)
  70:      1151.87    0.000000  (  0.000000   0.000000   0.000000)
  71:      1176.27    0.000000  (  0.000000   0.000000   0.000000)
  72:      1185.20    0.000000  (  0.000000   0.000000   0.000000)
  73:      1194.23    0.000000  (  0.000000   0.000000   0.000000)
  74:      1197.56    0.000000  (  0.000000   0.000000   0.000000)
  75:      1209.80    0.000000  (  0.000000   0.000000   0.000000)
  76:      1232.09    0.000000  (  0.000000   0.000000   0.000000)
  77:      1239.03    0.000000  (  0.000000   0.000000   0.000000)
  78:      1251.09    0.000000  (  0.000000   0.000000   0.000000)
  79:      1270.27    0.000000  (  0.000000   0.000000   0.000000)
  80:      1271.23    0.000000  (  0.000000   0.000000   0.000000)
  81:      1276.93    0.000000  (  0.000000   0.000000   0.000000)
  82:      1277.25    0.000000  (  0.000000   0.000000   0.000000)
  83:      1278.43    0.000000  (  0.000000   0.000000   0.000000)
  84:      1283.08    0.000000  (  0.000000   0.000000   0.000000)
  85:      1285.36    0.000000  (  0.000000   0.000000   0.000000)
  86:      1302.88    0.000000  (  0.000000   0.000000   0.000000)
  87:      1310.55    0.000000  (  0.000000   0.000000   0.000000)
  88:      1342.26    0.000000  (  0.000000   0.000000   0.000000)
  89:      1346.96    0.000000  (  0.000000   0.000000   0.000000)
  90:      1372.17    0.000000  (  0.000000   0.000000   0.000000)
  91:      1373.75    0.000000  (  0.000000   0.000000   0.000000)
  92:      1403.73    0.000000  (  0.000000   0.000000   0.000000)
  93:      1420.10    0.000000  (  0.000000   0.000000   0.000000)
  94:      1428.61    0.000000  (  0.000000   0.000000   0.000000)
  95:      1429.48    0.000000  (  0.000000   0.000000   0.000000)
  96:      1455.91    0.000000  (  0.000000   0.000000   0.000000)
  97:      1473.58    0.000000  (  0.000000   0.000000   0.000000)
  98:      1476.16    0.000000  (  0.000000   0.000000   0.000000)
  99:      1493.68    0.000000  (  0.000000   0.000000   0.000000)
 100:      1498.69    0.000000  (  0.000000   0.000000   0.000000)
 101:      1500.70    0.000000  (  0.000000   0.000000   0.000000)
 102:      1502.02    0.000000  (  0.000000   0.000000   0.000000)
 103:      1503.97    0.000000  (  0.000000   0.000000   0.000000)
 104:      1506.03    0.000000  (  0.000000   0.000000   0.000000)
 105:      1506.77    0.000000  (  0.000000   0.000000   0.000000)
 106:      1507.05    0.000000  (  0.000000   0.000000   0.000000)
 107:      1510.79    0.000000  (  0.000000   0.000000   0.000000)
 108:      1512.36    0.000000  (  0.000000   0.000000   0.000000)
 109:      1565.72    0.000000  (  0.000000   0.000000   0.000000)
 110:      1572.04    0.000000  (  0.000000   0.000000   0.000000)
 111:      2660.75    0.000000  (  0.000000   0.000000   0.000000)
 112:      2891.30    0.000000  (  0.000000   0.000000   0.000000)
 113:      2935.46    0.000000  (  0.000000   0.000000   0.000000)
 114:      2943.18    0.000000  (  0.000000   0.000000   0.000000)
 115:      2945.35    0.000000  (  0.000000   0.000000   0.000000)
 116:      2948.47    0.000000  (  0.000000   0.000000   0.000000)
 117:      2954.02    0.000000  (  0.000000   0.000000   0.000000)
 118:      2966.60    0.000000  (  0.000000   0.000000   0.000000)
 119:      2967.54    0.000000  (  0.000000   0.000000   0.000000)
 120:      2972.05    0.000000  (  0.000000   0.000000   0.000000)
 121:      2979.60    0.000000  (  0.000000   0.000000   0.000000)
 122:      2980.21    0.000000  (  0.000000   0.000000   0.000000)
 123:      2981.21    0.000000  (  0.000000   0.000000   0.000000)
 124:      2983.82    0.000000  (  0.000000   0.000000   0.000000)
 125:      2986.96    0.000000  (  0.000000   0.000000   0.000000)
 126:      2989.84    0.000000  (  0.000000   0.000000   0.000000)
 127:      2997.53    0.000000  (  0.000000   0.000000   0.000000)
 128:      2998.09    0.000000  (  0.000000   0.000000   0.000000)
 129:      3001.48    0.000000  (  0.000000   0.000000   0.000000)
 130:      3019.60    0.000000  (  0.000000   0.000000   0.000000)
 131:      3023.36    0.000000  (  0.000000   0.000000   0.000000)
 132:      3046.25    0.000000  (  0.000000   0.000000   0.000000)
 133:      3049.03    0.000000  (  0.000000   0.000000   0.000000)
 134:      3063.00    0.000000  (  0.000000   0.000000   0.000000)
 135:      3070.29    0.000000  (  0.000000   0.000000   0.000000)
 136:      3358.24    0.000000  (  0.000000   0.000000   0.000000)
 137:      3407.89    0.000000  (  0.000000   0.000000   0.000000)

The first frequency considered to be a vibration is 7
The total number of vibrations considered is 131


--------------------------
THERMOCHEMISTRY AT 298.15K
--------------------------

Temperature         ... 298.15 K
Pressure            ... 1.00 atm
Total Mass          ... 252.40 AMU

Throughout the following assumptions are being made:
  (1) The electronic state is orbitally nondegenerate
  (2) There are no thermally accessible electronically excited states
  (3) Hindered rotations indicated by low frequency modes are not
      treated as such but are treated as vibrations and this may
      cause some error
  (4) All equations used are the standard statistical mechanics
      equations for an ideal gas
  (5) All vibrations are strictly harmonic

freq.      31.56  E(vib)   ...       0.55 
freq.      36.99  E(vib)   ...       0.54 
freq.      50.18  E(vib)   ...       0.52 
freq.      54.53  E(vib)   ...       0.52 
freq.      72.05  E(vib)   ...       0.50 
freq.      77.46  E(vib)   ...       0.49 
freq.      83.00  E(vib)   ...       0.48 
freq.      93.86  E(vib)   ...       0.47 
freq.     120.59  E(vib)   ...       0.44 
freq.     126.18  E(vib)   ...       0.43 
freq.     136.85  E(vib)   ...       0.42 
freq.     139.12  E(vib)   ...       0.42 
freq.     170.66  E(vib)   ...       0.38 
freq.     190.57  E(vib)   ...       0.36 
freq.     211.05  E(vib)   ...       0.34 
freq.     220.85  E(vib)   ...       0.33 
freq.     231.33  E(vib)   ...       0.32 
freq.     269.29  E(vib)   ...       0.29 
freq.     273.08  E(vib)   ...       0.29 
freq.     282.09  E(vib)   ...       0.28 
freq.     379.93  E(vib)   ...       0.21 
freq.     382.41  E(vib)   ...       0.21 
freq.     389.27  E(vib)   ...       0.20 
freq.     391.17  E(vib)   ...       0.20 
freq.     406.01  E(vib)   ...       0.19 
freq.     422.24  E(vib)   ...       0.18 
freq.     482.24  E(vib)   ...       0.15 
freq.     509.94  E(vib)   ...       0.14 
freq.     580.12  E(vib)   ...       0.11 
freq.     589.19  E(vib)   ...       0.10 
freq.     616.47  E(vib)   ...       0.09 
freq.     641.81  E(vib)   ...       0.09 
freq.     670.90  E(vib)   ...       0.08 
freq.     737.84  E(vib)   ...       0.06 
freq.     765.84  E(vib)   ...       0.06 
freq.     776.58  E(vib)   ...       0.05 
freq.     785.69  E(vib)   ...       0.05 
freq.     815.47  E(vib)   ...       0.05 
freq.     828.47  E(vib)   ...       0.04 
freq.     839.47  E(vib)   ...       0.04 
freq.     876.39  E(vib)   ...       0.04 
freq.     887.10  E(vib)   ...       0.04 
freq.     909.46  E(vib)   ...       0.03 
freq.     931.98  E(vib)   ...       0.03 
freq.     932.51  E(vib)   ...       0.03 
freq.     936.34  E(vib)   ...       0.03 
freq.     937.95  E(vib)   ...       0.03 
freq.     947.77  E(vib)   ...       0.03 
freq.     954.12  E(vib)   ...       0.03 
freq.     970.60  E(vib)   ...       0.03 
freq.     978.83  E(vib)   ...       0.03 
freq.    1003.81  E(vib)   ...       0.02 
freq.    1035.90  E(vib)   ...       0.02 
freq.    1058.80  E(vib)   ...       0.02 
freq.    1066.57  E(vib)   ...       0.02 
freq.    1076.66  E(vib)   ...       0.02 
freq.    1092.47  E(vib)   ...       0.02 
freq.    1097.66  E(vib)   ...       0.02 
freq.    1103.01  E(vib)   ...       0.02 
freq.    1106.94  E(vib)   ...       0.02 
freq.    1115.76  E(vib)   ...       0.01 
freq.    1127.56  E(vib)   ...       0.01 
freq.    1140.11  E(vib)   ...       0.01 
freq.    1151.87  E(vib)   ...       0.01 
freq.    1176.27  E(vib)   ...       0.01 
freq.    1185.20  E(vib)   ...       0.01 
freq.    1194.23  E(vib)   ...       0.01 
freq.    1197.56  E(vib)   ...       0.01 
freq.    1209.80  E(vib)   ...       0.01 
freq.    1232.09  E(vib)   ...       0.01 
freq.    1239.03  E(vib)   ...       0.01 
freq.    1251.09  E(vib)   ...       0.01 
freq.    1270.27  E(vib)   ...       0.01 
freq.    1271.23  E(vib)   ...       0.01 
freq.    1276.93  E(vib)   ...       0.01 
freq.    1277.25  E(vib)   ...       0.01 
freq.    1278.43  E(vib)   ...       0.01 
freq.    1283.08  E(vib)   ...       0.01 
freq.    1285.36  E(vib)   ...       0.01 
freq.    1302.88  E(vib)   ...       0.01 
freq.    1310.55  E(vib)   ...       0.01 
freq.    1342.26  E(vib)   ...       0.01 
freq.    1346.96  E(vib)   ...       0.01 
freq.    1372.17  E(vib)   ...       0.01 
freq.    1373.75  E(vib)   ...       0.01 
freq.    1403.73  E(vib)   ...       0.00 
freq.    1420.10  E(vib)   ...       0.00 
freq.    1428.61  E(vib)   ...       0.00 
freq.    1429.48  E(vib)   ...       0.00 
freq.    1455.91  E(vib)   ...       0.00 
freq.    1473.58  E(vib)   ...       0.00 
freq.    1476.16  E(vib)   ...       0.00 
freq.    1493.68  E(vib)   ...       0.00 
freq.    1498.69  E(vib)   ...       0.00 
freq.    1500.70  E(vib)   ...       0.00 
freq.    1502.02  E(vib)   ...       0.00 
freq.    1503.97  E(vib)   ...       0.00 
freq.    1506.03  E(vib)   ...       0.00 
freq.    1506.77  E(vib)   ...       0.00 
freq.    1507.05  E(vib)   ...       0.00 
freq.    1510.79  E(vib)   ...       0.00 
freq.    1512.36  E(vib)   ...       0.00 
freq.    1565.72  E(vib)   ...       0.00 
freq.    1572.04  E(vib)   ...       0.00 
freq.    2660.75  E(vib)   ...       0.00 
freq.    2891.30  E(vib)   ...       0.00 
freq.    2935.46  E(vib)   ...       0.00 
freq.    2943.18  E(vib)   ...       0.00 
freq.    2945.35  E(vib)   ...       0.00 
freq.    2948.47  E(vib)   ...       0.00 
freq.    2954.02  E(vib)   ...       0.00 
freq.    2966.60  E(vib)   ...       0.00 
freq.    2967.54  E(vib)   ...       0.00 
freq.    2972.05  E(vib)   ...       0.00 
freq.    2979.60  E(vib)   ...       0.00 
freq.    2980.21  E(vib)   ...       0.00 
freq.    2981.21  E(vib)   ...       0.00 
freq.    2983.82  E(vib)   ...       0.00 
freq.    2986.96  E(vib)   ...       0.00 
freq.    2989.84  E(vib)   ...       0.00 
freq.    2997.53  E(vib)   ...       0.00 
freq.    2998.09  E(vib)   ...       0.00 
freq.    3001.48  E(vib)   ...       0.00 
freq.    3019.60  E(vib)   ...       0.00 
freq.    3023.36  E(vib)   ...       0.00 
freq.    3046.25  E(vib)   ...       0.00 
freq.    3049.03  E(vib)   ...       0.00 
freq.    3063.00  E(vib)   ...       0.00 
freq.    3070.29  E(vib)   ...       0.00 
freq.    3358.24  E(vib)   ...       0.00 
freq.    3407.89  E(vib)   ...       0.00 

------------
INNER ENERGY
------------

The inner energy is: U= E(el) + E(ZPE) + E(vib) + E(rot) + E(trans)
    E(el)   - is the total energy from the electronic structure calculation
              = E(kin-el) + E(nuc-el) + E(el-el) + E(nuc-nuc)
    E(ZPE)  - the the zero temperature vibrational energy from the frequency calculation
    E(vib)  - the the finite temperature correction to E(ZPE) due to population
              of excited vibrational states
    E(rot)  - is the rotational thermal energy
    E(trans)- is the translational thermal energy

Summary of contributions to the inner energy U:
Electronic energy                ...    -56.27706636 Eh
Zero point energy                ...      0.39956190 Eh     250.73 kcal/mol
Thermal vibrational correction   ...      0.01821749 Eh      11.43 kcal/mol
Thermal rotational correction    ...      0.00141627 Eh       0.89 kcal/mol
Thermal translational correction ...      0.00141627 Eh       0.89 kcal/mol
-----------------------------------------------------------------------
Total thermal energy                    -55.85645442 Eh


Summary of corrections to the electronic energy:
(perhaps to be used in another calculation)
Total thermal correction                  0.02105004 Eh      13.21 kcal/mol
Non-thermal (ZPE) correction              0.39956190 Eh     250.73 kcal/mol
-----------------------------------------------------------------------
Total correction                          0.42061194 Eh     263.94 kcal/mol


--------
ENTHALPY
--------

The enthalpy is H = U + kB*T
                kB is Boltzmann's constant
Total free energy                 ...    -55.85645442 Eh 
Thermal Enthalpy correction       ...      0.00094421 Eh       0.59 kcal/mol
-----------------------------------------------------------------------
Total Enthalpy                    ...    -55.85551021 Eh


Note: Only C1 symmetry has been detected, increase convergence thresholds 
      if your molecule has a higher symmetry. Symmetry factor of 1.0 is   
      used for the rotational entropy correction. 
 

Note: Rotational entropy computed according to Herzberg 
Infrared and Raman Spectra, Chapter V,1, Van Nostrand Reinhold, 1945 
Point Group:  C1, Symmetry Number:   1  
Rotational constants in cm-1:     0.013240     0.007221     0.005599 

Vibrational entropy computed according to the QRRHO of S. Grimme
Chem.Eur.J. 2012 18 9955


-------
ENTROPY
-------

The entropy contributions are T*S = T*(S(el)+S(vib)+S(rot)+S(trans))
     S(el)   - electronic entropy
     S(vib)  - vibrational entropy
     S(rot)  - rotational entropy
     S(trans)- translational entropy
The entropies will be listed as mutliplied by the temperature to get
units of energy

Electronic entropy                ...      0.00000000 Eh      0.00 kcal/mol
Vibrational entropy               ...      0.03271239 Eh     20.53 kcal/mol
Rotational entropy                ...      0.01632801 Eh     10.25 kcal/mol
Translational entropy             ...      0.02018250 Eh     12.66 kcal/mol
-----------------------------------------------------------------------
Final entropy term                ...      0.06922290 Eh     43.44 kcal/mol

In case the symmetry of your molecule has not been determined correctly
or in case you have a reason to use a different symmetry number we print 
out the resulting rotational entropy values for sn=1,12 :
 --------------------------------------------------------
|  sn= 1 | S(rot)=       0.01632801 Eh     10.25 kcal/mol|
|  sn= 2 | S(rot)=       0.01567355 Eh      9.84 kcal/mol|
|  sn= 3 | S(rot)=       0.01529072 Eh      9.60 kcal/mol|
|  sn= 4 | S(rot)=       0.01501909 Eh      9.42 kcal/mol|
|  sn= 5 | S(rot)=       0.01480841 Eh      9.29 kcal/mol|
|  sn= 6 | S(rot)=       0.01463626 Eh      9.18 kcal/mol|
|  sn= 7 | S(rot)=       0.01449071 Eh      9.09 kcal/mol|
|  sn= 8 | S(rot)=       0.01436464 Eh      9.01 kcal/mol|
|  sn= 9 | S(rot)=       0.01425343 Eh      8.94 kcal/mol|
|  sn=10 | S(rot)=       0.01415395 Eh      8.88 kcal/mol|
|  sn=11 | S(rot)=       0.01406396 Eh      8.83 kcal/mol|
|  sn=12 | S(rot)=       0.01398180 Eh      8.77 kcal/mol|
 --------------------------------------------------------


-------------------
GIBBS FREE ENERGY
-------------------

The Gibbs free energy is G = H - T*S

Total enthalpy                    ...    -55.85551021 Eh 
Total entropy correction          ...     -0.06922290 Eh    -43.44 kcal/mol
-----------------------------------------------------------------------
Final Gibbs free energy         ...    -55.92473311 Eh

For completeness - the Gibbs free energy minus the electronic energy
G-E(el)                           ...      0.35233325 Eh    221.09 kcal/mol


Total Time for Numerical Frequencies  :        87.326 sec
Time for Reference State(s)           :         0.108 sec
Time for Displacements                :        75.406 sec

Timings for individual modules:

Sum of individual times         ...        0.203 sec (=   0.003 min)
XTB module                      ...        0.203 sec (=   0.003 min) 100.0 %
                             ****ORCA TERMINATED NORMALLY****
TOTAL RUN TIME: 0 days 0 hours 1 minutes 27 seconds 866 msec
(SLURM) EXECUTION TIME: 87.887050625 seconds.
