
                                 *****************
                                 * O   R   C   A *
                                 *****************

           --- An Ab Initio, DFT and Semiempirical electronic structure package ---

                  #######################################################
                  #                        -***-                        #
                  #          Department of theory and spectroscopy      #
                  #               Directorship: Frank Neese             #
                  #        Max Planck Institute fuer Kohlenforschung    #
                  #                Kaiser Wilhelm Platz 1               #
                  #                 D-45470 Muelheim/Ruhr               #
                  #                      Germany                        #
                  #                                                     #
                  #                  All rights reserved                #
                  #                        -***-                        #
                  #######################################################


                         Program Version 4.2.1 -  RELEASE  -


 With contributions from (in alphabetic order):
   Daniel Aravena         : Magnetic Suceptibility
   Michael Atanasov       : Ab Initio Ligand Field Theory (pilot matlab implementation)
   Alexander A. Auer      : GIAO ZORA, VPT2
   Ute Becker             : Parallelization
   Giovanni Bistoni       : ED, misc. LED, open-shell LED, HFLD
   Martin Brehm           : Molecular dynamics
   Dmytro Bykov           : SCF Hessian
   Vijay G. Chilkuri      : MRCI spin determinant printing, contributions to CSF-ICE
   Dipayan Datta          : RHF DLPNO-CCSD density
   Achintya Kumar Dutta   : EOM-CC, STEOM-CC
   Dmitry Ganyushin       : Spin-Orbit,Spin-Spin,Magnetic field MRCI
   Miquel Garcia          : C-PCM Hessian, Gaussian charge scheme
   Yang Guo               : DLPNO-NEVPT2, CIM, IAO-localization
   Andreas Hansen         : Spin unrestricted coupled pair/coupled cluster methods
   Benjamin Helmich-Paris : CASSCF linear response (MC-RPA)
   Lee Huntington         : MR-EOM, pCC
   Robert Izsak           : Overlap fitted RIJCOSX, COSX-SCS-MP3, EOM
   Christian Kollmar      : KDIIS, OOCD, Brueckner-CCSD(T), CCSD density
   Simone Kossmann        : Meta GGA functionals, TD-DFT gradient, OOMP2, MP2 Hessian
   Martin Krupicka        : AUTO-CI
   Lucas Lang             : DCDCAS
   Dagmar Lenk            : GEPOL surface, SMD
   Dimitrios Liakos       : Extrapolation schemes; Compound Job, initial MDCI parallelization
   Dimitrios Manganas     : Further ROCIS development; embedding schemes
   Dimitrios Pantazis     : SARC Basis sets
   Taras Petrenko         : DFT Hessian,TD-DFT gradient, ASA, ECA, R-Raman, ABS, FL, XAS/XES, NRVS
   Peter Pinski           : DLPNO-MP2, DLPNO-MP2 Gradient
   Christoph Reimann      : Effective Core Potentials
   Marius Retegan         : Local ZFS, SOC
   Christoph Riplinger    : Optimizer, TS searches, QM/MM, DLPNO-CCSD(T), (RO)-DLPNO pert. Triples
   Tobias Risthaus        : Range-separated hybrids, TD-DFT gradient, RPA, STAB
   Michael Roemelt        : Original ROCIS implementation
   Masaaki Saitow         : Open-shell DLPNO-CCSD energy and density
   Barbara Sandhoefer     : DKH picture change effects
   Avijit Sen             : IP-ROCIS
   Kantharuban Sivalingam : CASSCF convergence, NEVPT2, FIC-MRCI
   Bernardo de Souza      : ESD, SOC TD-DFT
   Georgi Stoychev        : AutoAux, RI-MP2 NMR
   Willem Van den Heuvel  : Paramagnetic NMR
   Boris Wezisla          : Elementary symmetry handling
   Frank Wennmohs         : Technical directorship


 We gratefully acknowledge several colleagues who have allowed us to
 interface, adapt or use parts of their codes:
   Stefan Grimme, W. Hujo, H. Kruse,             : VdW corrections, initial TS optimization,
                  C. Bannwarth                     DFT functionals, gCP, sTDA/sTD-DF
   Ed Valeev, F. Pavosevic, A. Kumar             : LibInt (2-el integral package), F12 methods
   Garnet Chan, S. Sharma, J. Yang, R. Olivares  : DMRG
   Ulf Ekstrom                                   : XCFun DFT Library
   Mihaly Kallay                                 : mrcc  (arbitrary order and MRCC methods)
   Andreas Klamt, Michael Diedenhofen            : otool_cosmo (COSMO solvation model)
   Jiri Pittner, Ondrej Demel                    : Mk-CCSD
   Frank Weinhold                                : gennbo (NPA and NBO analysis)
   Christopher J. Cramer and Donald G. Truhlar   : smd solvation model
   Lars Goerigk                                  : TD-DFT with DH, B97 family of functionals
   V. Asgeirsson, H. Jonsson                     : NEB implementation
   FAccTs GmbH                                   : IRC, NEB, NEB-TS, Multilevel, MM, QM/MM, CI optimization
   S Lehtola, MJT Oliveira, MAL Marques          : LibXC Library


 Your calculation uses the libint2 library for the computation of 2-el integrals
 For citations please refer to: http://libint.valeyev.net

 Your ORCA version has been built with support for libXC version: 4.2.3
 For citations please refer to: https://tddft.org/programs/libxc/

 This ORCA versions uses:
   CBLAS   interface :  Fast vector & matrix operations
   LAPACKE interface :  Fast linear algebra routines
   SCALAPACK package :  Parallel linear algebra routines




***************************************
The coordinates will be read from file: init.xyz
***************************************


Your calculation utilizes the SMD solvation module
Please cite in your paper:
A.V. Marenich, C.J. Cramer, D.G. Truhlar J. Phys. Chem. B, 113, (2009), 6378 

Your calculation utilizes the semiempirical GFN2-xTB method
Please cite in your paper:
C. Bannwarth, Ehlert S., S. Grimme,  J. Chem. Theory Comput., 15, (2019), 1652.
   

----- Orbital basis set information -----
Your calculation utilizes the basis: def2-SVP
   F. Weigend and R. Ahlrichs, Phys. Chem. Chem. Phys. 7, 3297 (2005).

================================================================================
                                        WARNINGS
                       Please study these warnings very carefully!
================================================================================


WARNING: The environment variable RSH_COMMAND is not set!
  ===> : All Displacements for the Numerical Hessian calculation
         will be started on localhost

WARNING: Geometry Optimization
  ===> : Switching off AutoStart
         For restart on a previous wavefunction, please use MOREAD

WARNING: Found dipole moment calculation with XTB calculation
  ===> : Switching off dipole moment calculation


INFO   : the flag for use of LIBINT has been found!

================================================================================
                                       INPUT FILE
================================================================================
NAME = opt+numfreq.inp
|  1> ! xTB2 Opt NumFreq
|  2> 
|  3> *xyzfile 0 1 init.xyz
|  4> 
|  5> %cpcm
|  6>  smd true
|  7>  SMDsolvent "METHANOL"
|  8> end
|  9> 
| 10> %pal
| 11>  nprocs 6
| 12> end
| 13> 
| 14>                          ****END OF INPUT****
================================================================================

                       *****************************
                       * Geometry Optimization Run *
                       *****************************

Geometry optimization settings:
Update method            Update   .... BFGS
Choice of coordinates    CoordSys .... Z-matrix Internals
Initial Hessian          InHess   .... Almoef's Model

Convergence Tolerances:
Energy Change            TolE     ....  5.0000e-06 Eh
Max. Gradient            TolMAXG  ....  3.0000e-04 Eh/bohr
RMS Gradient             TolRMSG  ....  1.0000e-04 Eh/bohr
Max. Displacement        TolMAXD  ....  4.0000e-03 bohr
RMS Displacement         TolRMSD  ....  2.0000e-03 bohr
Strict Convergence                ....  False
------------------------------------------------------------------------------
                        ORCA OPTIMIZATION COORDINATE SETUP
------------------------------------------------------------------------------

The optimization will be done in new redundant internal coordinates
Making redundant internal coordinates   ...  (new redundants) done
Evaluating the initial hessian          ...  (Almloef) done
Evaluating the coordinates              ...  done
Calculating the B-matrix                .... done
Calculating the G-matrix                .... done
Diagonalizing the G-matrix              .... done
Small eigenvalue found = 2.585e-02
The first mode is                       ....   65
The number of degrees of freedom        ....   60

    -----------------------------------------------------------------
                    Redundant Internal Coordinates


    -----------------------------------------------------------------
         Definition                    Initial Value    Approx d2E/dq
    -----------------------------------------------------------------
      1. B(C   1,C   0)                  1.5254         0.379878   
      2. B(C   4,C   2)                  1.5250         0.380430   
      3. B(C   4,C   1)                  1.5255         0.379810   
      4. B(H   5,C   2)                  1.0913         0.358342   
      5. B(H   6,C   2)                  1.0913         0.358439   
      6. B(C   7,C   0)                  1.5260         0.379039   
      7. B(H   8,C   1)                  1.0914         0.358220   
      8. B(H   9,C   1)                  1.0918         0.357704   
      9. B(C  10,C   7)                  1.5326         0.369983   
     10. B(C  10,H   3)                  1.1041         0.341880   
     11. B(C  10,C   2)                  1.5291         0.374770   
     12. B(H  11,C   7)                  1.0922         0.357221   
     13. B(H  12,C   7)                  1.0924         0.356978   
     14. B(H  13,C   4)                  1.0914         0.358287   
     15. B(H  14,C   4)                  1.0932         0.355897   
     16. B(H  15,C   0)                  1.0918         0.357696   
     17. B(H  16,C   0)                  1.0937         0.355227   
     18. B(O  18,C  17)                  1.4065         0.526688   
     19. B(O  18,C  10)                  1.4239         0.493996   
     20. B(H  19,C  17)                  1.0955         0.352890   
     21. B(H  20,C  17)                  1.0971         0.350814   
     22. B(H  21,C  17)                  1.0886         0.362011   
     23. A(C   7,C   0,H  15)          109.5254         0.324736   
     24. A(H  15,C   0,H  16)          107.8489         0.289913   
     25. A(C   1,C   0,C   7)          110.7976         0.365299   
     26. A(C   7,C   0,H  16)          108.8356         0.324366   
     27. A(C   1,C   0,H  16)          109.5141         0.324484   
     28. A(C   1,C   0,H  15)          110.2562         0.324854   
     29. A(C   0,C   1,H   8)          109.7641         0.324932   
     30. A(H   8,C   1,H   9)          108.3081         0.290296   
     31. A(C   4,C   1,H   9)          109.4066         0.324846   
     32. A(C   0,C   1,H   9)          109.3165         0.324855   
     33. A(C   4,C   1,H   8)          109.8885         0.324922   
     34. A(C   0,C   1,C   4)          110.1267         0.365426   
     35. A(C   4,C   2,H   5)          110.4228         0.325028   
     36. A(C   4,C   2,C  10)          110.8324         0.364682   
     37. A(H   6,C   2,C  10)          108.7050         0.324243   
     38. A(H   5,C   2,H   6)          108.0487         0.290405   
     39. A(C   4,C   2,H   6)          110.7009         0.325042   
     40. A(H   5,C   2,C  10)          108.0380         0.324228   
     41. A(H  13,C   4,H  14)          108.0457         0.290074   
     42. A(C   1,C   4,H  14)          109.3675         0.324575   
     43. A(C   2,C   4,H  13)          109.5629         0.325020   
     44. A(C   1,C   4,H  13)          110.2257         0.324932   
     45. A(C   2,C   4,H  14)          109.0751         0.324662   
     46. A(C   1,C   4,C   2)          110.5162         0.365517   
     47. A(H  11,C   7,H  12)          108.3985         0.290076   
     48. A(C  10,C   7,H  12)          108.4312         0.323342   
     49. A(C  10,C   7,H  11)          109.7214         0.323379   
     50. A(C   0,C   7,H  11)          109.5650         0.324665   
     51. A(C   0,C   7,H  12)          110.3359         0.324629   
     52. A(C   0,C   7,C  10)          110.3535         0.363653   
     53. A(C   2,C  10,H   3)          109.5391         0.321738   
     54. A(H   3,C  10,C   7)          108.9075         0.321061   
     55. A(C   7,C  10,O  18)          112.6419         0.378224   
     56. A(H   3,C  10,O  18)          108.8637         0.334714   
     57. A(C   2,C  10,O  18)          106.8151         0.379067   
     58. A(C   2,C  10,C   7)          110.0228         0.362950   
     59. A(H  19,C  17,H  21)          109.3687         0.290158   
     60. A(O  18,C  17,H  21)          106.2090         0.341553   
     61. A(H  19,C  17,H  20)          108.5369         0.288733   
     62. A(O  18,C  17,H  20)          111.3305         0.339763   
     63. A(O  18,C  17,H  19)          111.9397         0.340098   
     64. A(H  20,C  17,H  21)          109.4074         0.289890   
     65. A(C  10,O  18,C  17)          115.2767         0.399713   
     66. D(H   9,C   1,C   0,H  15)     58.9803         0.011502   
     67. D(H   8,C   1,C   0,H  15)    -59.6820         0.011502   
     68. D(C   4,C   1,C   0,H  16)    -62.2750         0.011502   
     69. D(C   4,C   1,C   0,H  15)    179.2086         0.011502   
     70. D(H   9,C   1,C   0,H  16)    177.4968         0.011502   
     71. D(C   4,C   1,C   0,C   7)     57.7919         0.011502   
     72. D(H   9,C   1,C   0,C   7)    -62.4364         0.011502   
     73. D(H   8,C   1,C   0,H  16)     58.8344         0.011502   
     74. D(H   8,C   1,C   0,C   7)    178.9013         0.011502   
     75. D(H  13,C   4,C   1,H   8)     60.2202         0.011498   
     76. D(C   1,C   4,C   2,C  10)     57.6944         0.011533   
     77. D(H  13,C   4,C   2,H   5)     59.6601         0.011533   
     78. D(H  13,C   4,C   2,C  10)    179.3438         0.011533   
     79. D(H  13,C   4,C   1,H   9)    -58.5709         0.011498   
     80. D(C   2,C   4,C   1,H   9)     62.6865         0.011498   
     81. D(C   2,C   4,C   1,C   0)    -57.4873         0.011498   
     82. D(C   1,C   4,C   2,H   6)    178.3982         0.011533   
     83. D(C   1,C   4,C   2,H   5)    -61.9894         0.011533   
     84. D(H  14,C   4,C   2,C  10)    -62.5743         0.011533   
     85. D(H  14,C   4,C   2,H   6)     58.1295         0.011533   
     86. D(H  14,C   4,C   2,H   5)    177.7419         0.011533   
     87. D(H  13,C   4,C   2,H   6)    -59.9524         0.011533   
     88. D(C   2,C   4,C   1,H   8)   -178.5224         0.011498   
     89. D(H  14,C   4,C   1,H   9)   -177.2201         0.011498   
     90. D(H  14,C   4,C   1,C   0)     62.6060         0.011498   
     91. D(H  13,C   4,C   1,C   0)   -178.7447         0.011498   
     92. D(H  14,C   4,C   1,H   8)    -58.4290         0.011498   
     93. D(H  11,C   7,C   0,C   1)   -178.7361         0.011454   
     94. D(C  10,C   7,C   0,H  16)     62.6533         0.011454   
     95. D(C  10,C   7,C   0,H  15)   -179.6637         0.011454   
     96. D(C  10,C   7,C   0,C   1)    -57.8178         0.011454   
     97. D(H  12,C   7,C   0,H  16)   -177.5365         0.011454   
     98. D(H  12,C   7,C   0,H  15)    -59.8536         0.011454   
     99. D(H  12,C   7,C   0,C   1)     61.9924         0.011454   
    100. D(H  11,C   7,C   0,H  16)    -58.2649         0.011454   
    101. D(H  11,C   7,C   0,H  15)     59.4180         0.011454   
    102. D(O  18,C  10,C   7,H  12)     55.2570         0.010943   
    103. D(O  18,C  10,C   7,H  11)    -62.9648         0.010943   
    104. D(O  18,C  10,C   7,C   0)    176.2103         0.010943   
    105. D(H   3,C  10,C   7,H  12)    176.1321         0.010943   
    106. D(H   3,C  10,C   7,H  11)     57.9104         0.010943   
    107. D(H   3,C  10,C   7,C   0)    -62.9145         0.010943   
    108. D(C   2,C  10,C   7,H  12)    -63.7956         0.010943   
    109. D(C   2,C  10,C   7,H  11)    177.9826         0.010943   
    110. D(C   2,C  10,C   7,C   0)     57.1577         0.010943   
    111. D(O  18,C  10,C   2,H   6)     58.2599         0.011211   
    112. D(O  18,C  10,C   2,H   5)    -58.7581         0.011211   
    113. D(O  18,C  10,C   2,C   4)   -179.8603         0.011211   
    114. D(C   7,C  10,C   2,H   6)   -179.1811         0.011211   
    115. D(C   7,C  10,C   2,H   5)     63.8009         0.011211   
    116. D(C   7,C  10,C   2,C   4)    -57.3014         0.011211   
    117. D(H   3,C  10,C   2,H   6)    -59.4922         0.011211   
    118. D(H   3,C  10,C   2,H   5)   -176.5102         0.011211   
    119. D(H   3,C  10,C   2,C   4)     62.3876         0.011211   
    120. D(C  10,O  18,C  17,H  21)    169.4638         0.022017   
    121. D(C  10,O  18,C  17,H  20)     50.4513         0.022017   
    122. D(C  10,O  18,C  17,H  19)    -71.2329         0.022017   
    123. D(C  17,O  18,C  10,C   7)     74.7925         0.019279   
    124. D(C  17,O  18,C  10,H   3)    -46.1077         0.019279   
    125. D(C  17,O  18,C  10,C   2)   -164.3027         0.019279   
    -----------------------------------------------------------------

Number of atoms                         .... 22
Number of degrees of freedom            .... 125

         *************************************************************
         *                GEOMETRY OPTIMIZATION CYCLE   1            *
         *************************************************************
      -----------------------------------------------------------      
     |                   =====================                   |     
     |                           x T B                           |     
     |                   =====================                   |     
     |                         S. Grimme                         |     
     |          Mulliken Center for Theoretical Chemistry        |     
     |                    University of Bonn                     |     
      -----------------------------------------------------------      

   * xtb version 6.3.2 (30e43eb) compiled by 'schneider@apollo14' on 2020-08-08

   xtb is free software: you can redistribute it and/or modify it under
   the terms of the GNU Lesser General Public License as published by
   the Free Software Foundation, either version 3 of the License, or
   (at your option) any later version.
   
   xtb is distributed in the hope that it will be useful,
   but WITHOUT ANY WARRANTY; without even the implied warranty of
   MERCHANTABILITY or FITNESS FOR A PARTICULAR PURPOSE.  See the
   GNU Lesser General Public License for more details.
   
   Cite this work as:
   * S. Grimme, C. Bannwarth, P. Shushkov, J. Chem. Theory Comput., 2017,
     13, 1989-2009. DOI: 10.1021/acs.jctc.7b00118
   * C. Bannwarth, S. Ehlert and S. Grimme., J. Chem. Theory Comput., 2019,
     15, 1652-1671. DOI: 10.1021/acs.jctc.8b01176
   * P. Pracht, E. Caldeweyher, S. Ehlert, S. Grimme, ChemRxiv, 2019, preprint.
     DOI: 10.26434/chemrxiv.8326202.v1
   
   for GFN-FF:
   * S. Spicher and S. Grimme, Angew. Chem. Int. Ed., 2020,
     DOI: 10.1002/anie.202004239
   
   for DFT-D4:
   * E. Caldeweyher, C. Bannwarth and S. Grimme, J. Chem. Phys., 2017,
     147, 034112. DOI: 10.1063/1.4993215
   * E. Caldeweyher, S. Ehlert, A. Hansen, H. Neugebauer, S. Spicher,
     C. Bannwarth and S. Grimme, J. Chem. Phys., 2019, 150, 154122.
     DOI: 10.1063/1.5090222
   
   for sTDA-xTB:
   * S. Grimme and C. Bannwarth, J. Chem. Phys., 2016, 145, 054103.
     DOI: 10.1063/1.4959605
   
   in the mass-spec context:
   * V. Asgeirsson, C. Bauer and S. Grimme, Chem. Sci., 2017, 8, 4879.
     DOI: 10.1039/c7sc00601b
   * J. Koopman and S. Grimme, ACS Omega 2019, 4, 12, 15120-15133.
     DOI: 10.1021/acsomega.9b02011
   
   for metadynamics refer to:
   * S. Grimme, J. Chem. Theory Comput., 2019, 155, 2847-2862
     DOI: 10.1021/acs.jctc.9b00143
   
   with help from (in alphabetical order)
   C. Bannwarth, F. Bohle, G. Brandenburg, E. Caldeweyher, M. Checinski,
   S. Dohm, S. Ehlert, S. Ehrlich, F. März, H. Neugebauer, J. Pisarek,
   P. Pracht, P. Shushkov, and S. Spicher.
   
 * started run on 2021/11/10 at 03:48:56.937     

           -------------------------------------------------
          |                Calculation Setup                |
           -------------------------------------------------

          program call               : /opt/orca/otool_xtb opt+numfreq_XTB.xyz --grad -c 0 -u 0 -P 6 --namespace opt+numfreq --gbsa methanol
          calculation namespace      : opt+numfreq
          coordinate file            : opt+numfreq_XTB.xyz
          omp threads                :                     6
          number of atoms            :                    22
          number of electrons        :                    48
          charge                     :                     0
          spin                       :                   0.0
          first test random number   :      0.28553830254104

   ID    Z sym.   atoms
    1    6 C      1-3, 5, 8, 11, 18
    2    1 H      4, 6, 7, 9, 10, 12-17, 20-22
    3    8 O      19
########################################################################
[WARNING] Please study the warnings concerning your input carefully
-1- prog_main_parseArguments: Process number higher than OMP_NUM_THREADS, I hope you know what you are doing.
########################################################################

           -------------------------------------------------
          |                 G F N 2 - x T B                 |
           -------------------------------------------------

        Reference                      10.1021/acs.jctc.8b01176
      * Hamiltonian:
        H0-scaling (s, p, d)           1.850000    2.230000    2.230000
        zeta-weighting                 0.500000
      * Dispersion:
        s8                             2.700000
        a1                             0.520000
        a2                             5.000000
        s9                             5.000000
      * Repulsion:
        kExp                           1.500000    1.000000
        rExp                           1.000000
      * Coulomb:
        alpha                          2.000000
        third order                    shell-resolved
        anisotropic                    true
        a3                             3.000000
        a5                             4.000000
        cn-shift                       1.200000
        cn-exp                         4.000000
        max-rad                        5.000000

      * Solvation model:               GBSA
        Solvent                        methanol
        Parameter file                 internal GFN2-xTB/GBSA
        Dielectric constant                3.2700E+01
        Reference state                gsolv [1 M gas/solution]
        Free energy shift                  3.3569E-03 Eh       2.1065E+00 kcal/mol
        Temperature                        2.9815E+02 K
        Density                            7.9200E-01 kg/L
        Solvent mass                       3.2040E+01 g/mol
        Interaction kernel             Still
        Born radius scaling (c1)           1.6087E+00
        Born radii integrator          GBOBC
        Born offset                        5.6550E-04 a0       1.0686E-03 AA
        H-bond correction              true
        Ion screening                  false
        Surface tension                    1.0000E-05 Eh       1.5569E+01 dyn/cm
        Grid points                               230 per atom

          ...................................................
          :                      SETUP                      :
          :.................................................:
          :  # basis functions                  46          :
          :  # atomic orbitals                  46          :
          :  # shells                           30          :
          :  # electrons                        48          :
          :  max. iterations                   250          :
          :  Hamiltonian                  GFN2-xTB          :
          :  restarted?                      false          :
          :  GBSA solvation                   true          :
          :  PC potential                    false          :
          :  electronic temp.          300.0000000     K    :
          :  accuracy                    1.0000000          :
          :  -> integral cutoff          0.2500000E+02      :
          :  -> integral neglect         0.1000000E-07      :
          :  -> SCF convergence          0.1000000E-05 Eh   :
          :  -> wf. convergence          0.1000000E-03 e    :
          :  Broyden damping             0.4000000          :
          ...................................................

 iter      E             dE          RMSdq      gap      omega  full diag
   1    -26.4833796 -0.264834E+02  0.337E+00   11.17       0.0  T
   2    -26.5413769 -0.579973E-01  0.177E+00   10.84       1.0  T
   3    -26.5421377 -0.760822E-03  0.772E-01   10.92       1.0  T
   4    -26.5423582 -0.220487E-03  0.121E-01   10.95       1.0  T
   5    -26.5424429 -0.846782E-04  0.649E-02   10.97       1.0  T
   6    -26.5424448 -0.193369E-05  0.599E-03   10.97       3.6  T
   7    -26.5424449 -0.956996E-07  0.365E-03   10.97       5.8  T
   8    -26.5424449 -0.179780E-07  0.118E-03   10.97      18.1  T
   9    -26.5424449 -0.336808E-08  0.404E-04   10.97      52.8  T
  10    -26.5424449 -0.477918E-09  0.170E-04   10.97     125.6  T

   *** convergence criteria satisfied after 10 iterations ***

         #    Occupation            Energy/Eh            Energy/eV
      -------------------------------------------------------------
         1        2.0000           -0.6961015             -18.9419
       ...           ...                  ...                  ...
        18        2.0000           -0.4585930             -12.4789
        19        2.0000           -0.4425084             -12.0413
        20        2.0000           -0.4390628             -11.9475
        21        2.0000           -0.4254214             -11.5763
        22        2.0000           -0.4234770             -11.5234
        23        2.0000           -0.4178487             -11.3702
        24        2.0000           -0.3925642             -10.6822 (HOMO)
        25                          0.0106804               0.2906 (LUMO)
        26                          0.0805713               2.1925
        27                          0.0900034               2.4491
        28                          0.0967330               2.6322
        29                          0.1040987               2.8327
       ...                                ...                  ...
        46                          0.3116482               8.4804
      -------------------------------------------------------------
                  HL-Gap            0.4032446 Eh           10.9728 eV
             Fermi-level           -0.1909419 Eh           -5.1958 eV

 SCC (total)                   0 d,  0 h,  0 min,  0.020 sec
 SCC setup                      ...        0 min,  0.001 sec (  5.204%)
 Dispersion                     ...        0 min,  0.001 sec (  3.114%)
 classical contributions        ...        0 min,  0.000 sec (  0.767%)
 integral evaluation            ...        0 min,  0.003 sec ( 15.175%)
 iterations                     ...        0 min,  0.011 sec ( 54.108%)
 molecular gradient             ...        0 min,  0.004 sec ( 19.201%)
 printout                       ...        0 min,  0.000 sec (  2.345%)

         :::::::::::::::::::::::::::::::::::::::::::::::::::::
         ::                     SUMMARY                     ::
         :::::::::::::::::::::::::::::::::::::::::::::::::::::
         :: total energy             -26.216511979561 Eh    ::
         :: total w/o Gsasa/hb       -26.209982026364 Eh    ::
         :: gradient norm              0.003238222766 Eh/a0 ::
         :: HOMO-LUMO gap             10.972845425895 eV    ::
         ::.................................................::
         :: SCC energy               -26.542444913218 Eh    ::
         :: -> isotropic ES            0.024093530090 Eh    ::
         :: -> anisotropic ES          0.004888221541 Eh    ::
         :: -> anisotropic XC          0.009659990549 Eh    ::
         :: -> dispersion             -0.014921534893 Eh    ::
         :: -> Gsolv                  -0.008591914973 Eh    ::
         ::    -> Gborn               -0.002061961776 Eh    ::
         ::    -> Gsasa               -0.009327922653 Eh    ::
         ::    -> Ghb                 -0.000558960066 Eh    ::
         ::    -> Gshift               0.003356929523 Eh    ::
         :: repulsion energy           0.325872780490 Eh    ::
         :: add. restraining           0.000000000000 Eh    ::
         :: total charge               0.000000000000 e     ::
         :::::::::::::::::::::::::::::::::::::::::::::::::::::

           -------------------------------------------------
          |                Property Printout                |
           -------------------------------------------------

    * Orbital Energies and Occupations

         #    Occupation            Energy/Eh            Energy/eV
      -------------------------------------------------------------
         1        2.0000           -0.6961015             -18.9419
       ...           ...                  ...                  ...
        12        2.0000           -0.5104113             -13.8890
        13        2.0000           -0.4991943             -13.5838
        14        2.0000           -0.4939320             -13.4406
        15        2.0000           -0.4844998             -13.1839
        16        2.0000           -0.4683293             -12.7439
        17        2.0000           -0.4653749             -12.6635
        18        2.0000           -0.4585930             -12.4789
        19        2.0000           -0.4425084             -12.0413
        20        2.0000           -0.4390628             -11.9475
        21        2.0000           -0.4254214             -11.5763
        22        2.0000           -0.4234770             -11.5234
        23        2.0000           -0.4178487             -11.3702
        24        2.0000           -0.3925642             -10.6822 (HOMO)
        25                          0.0106804               0.2906 (LUMO)
        26                          0.0805713               2.1925
        27                          0.0900034               2.4491
        28                          0.0967330               2.6322
        29                          0.1040987               2.8327
        30                          0.1104165               3.0046
        31                          0.1298476               3.5333
        32                          0.1330826               3.6214
        33                          0.1426964               3.8830
        34                          0.1729530               4.7063
        35                          0.1811716               4.9299
       ...                                ...                  ...
        46                          0.3116482               8.4804
      -------------------------------------------------------------
                  HL-Gap            0.4032446 Eh           10.9728 eV
             Fermi-level           -0.1909419 Eh           -5.1958 eV

     #   Z          covCN         q      C6AA      α(0)
     1   6 C        3.806    -0.061    21.663     6.626
     2   6 C        3.806    -0.063    21.711     6.633
     3   6 C        3.806    -0.067    21.772     6.642
     4   1 H        0.923     0.009     2.907     2.666
     5   6 C        3.806    -0.061    21.676     6.628
     6   1 H        0.924     0.047     2.363     2.404
     7   1 H        0.924     0.040     2.454     2.450
     8   6 C        3.805    -0.069    21.809     6.648
     9   1 H        0.924     0.038     2.475     2.460
    10   1 H        0.924     0.040     2.454     2.450
    11   6 C        3.745     0.116    18.744     6.176
    12   1 H        0.924     0.030     2.588     2.516
    13   1 H        0.924     0.041     2.439     2.443
    14   1 H        0.924     0.040     2.447     2.446
    15   1 H        0.924     0.036     2.507     2.476
    16   1 H        0.924     0.038     2.475     2.460
    17   1 H        0.924     0.034     2.532     2.489
    18   6 C        3.641     0.039    20.266     6.473
    19   8 O        1.700    -0.350    19.890     6.021
    20   1 H        0.924     0.032     2.553     2.499
    21   1 H        0.924     0.031     2.578     2.511
    22   1 H        0.925     0.061     2.187     2.313

 Mol. C6AA /au·bohr⁶  :       3433.531129
 Mol. C8AA /au·bohr⁸  :      72520.145920
 Mol. α(0) /au        :         86.429755


Wiberg/Mayer (AO) data.
largest (>0.10) Wiberg bond orders for each atom

 ---------------------------------------------------------------------------
     #   Z sym  total        # sym  WBO       # sym  WBO       # sym  WBO
 ---------------------------------------------------------------------------
     1   6 C    3.997 --     2 C    1.009     8 C    1.007    17 H    0.977
                            16 H    0.977
     2   6 C    3.998 --     1 C    1.009     5 C    1.009    10 H    0.977
                             9 H    0.977
     3   6 C    3.995 --     5 C    1.008    11 C    0.992     7 H    0.976
                             6 H    0.975
     4   1 H    1.000 --    11 C    0.959
     5   6 C    3.997 --     2 C    1.009     3 C    1.008    15 H    0.977
                            14 H    0.977
     6   1 H    0.998 --     3 C    0.975
     7   1 H    0.998 --     3 C    0.976
     8   6 C    3.997 --     1 C    1.007    11 C    0.988    13 H    0.976
                            12 H    0.975
     9   1 H    0.998 --     2 C    0.977
    10   1 H    0.998 --     2 C    0.977
    11   6 C    3.946 --     3 C    0.992     8 C    0.988    19 O    0.960
                             4 H    0.959
    12   1 H    0.999 --     8 C    0.975
    13   1 H    0.998 --     8 C    0.976
    14   1 H    0.998 --     5 C    0.977
    15   1 H    0.999 --     5 C    0.977
    16   1 H    0.999 --     1 C    0.977
    17   1 H    0.999 --     1 C    0.977
    18   6 C    3.951 --    19 O    0.995    22 H    0.979    20 H    0.977
                            21 H    0.976
    19   8 O    2.055 --    18 C    0.995    11 C    0.960
    20   1 H    0.999 --    18 C    0.977
    21   1 H    0.999 --    18 C    0.976
    22   1 H    0.996 --    18 C    0.979
 ---------------------------------------------------------------------------

Topologies differ in total number of bonds
Writing topology from bond orders to xtbtopo.mol

molecular dipole:
                 x           y           z       tot (Debye)
 q only:       -0.190      -0.210       0.440
   full:       -0.324      -0.349       0.421       1.616
molecular quadrupole (traceless):
                xx          xy          yy          xz          yz          zz
 q only:       -1.054       0.468       0.913       2.419       3.039       0.141
  q+dip:        1.553       0.010       0.622       2.557       2.690      -2.175
   full:        0.427       0.256       0.892       2.731       3.166      -1.319


           -------------------------------------------------
          | TOTAL ENERGY              -26.216511979561 Eh   |
          | GRADIENT NORM               0.003238222766 Eh/α |
          | HOMO-LUMO GAP              10.972845425895 eV   |
           -------------------------------------------------

------------------------------------------------------------------------
 * finished run on 2021/11/10 at 03:48:56.975     
------------------------------------------------------------------------
 total:
 * wall-time:     0 d,  0 h,  0 min,  0.037 sec
 *  cpu-time:     0 d,  0 h,  0 min,  0.296 sec
 * ratio c/w:     7.943 speedup
 SCF:
 * wall-time:     0 d,  0 h,  0 min,  0.024 sec
 *  cpu-time:     0 d,  0 h,  0 min,  0.194 sec
 * ratio c/w:     8.024 speedup


-------------------------   --------------------
FINAL SINGLE POINT ENERGY       -26.216511979560
-------------------------   --------------------

------------------------------------------------------------------------------
                         ORCA GEOMETRY RELAXATION STEP
------------------------------------------------------------------------------

Reading the OPT-File                    .... done
Getting information on internals        .... done
Copying old internal coords+grads       .... done
Making the new internal coordinates     .... (new redundants).... done
Validating the new internal coordinates .... (new redundants).... done
Calculating the B-matrix                .... done
Calculating the G,G- and P matrices     .... done
Transforming gradient to internals      .... done
Projecting the internal gradient        .... done
Number of atoms                         ....  22
Number of internal coordinates          .... 125
Current Energy                          ....   -26.216511980 Eh
Current gradient norm                   ....     0.003238223 Eh/bohr
Maximum allowed component of the step   ....  0.300
Current trust radius                    ....  0.300
Evaluating the initial hessian          ....  (Almloef) done
Projecting the Hessian                  .... done
Forming the augmented Hessian           .... done
Diagonalizing the augmented Hessian     .... done
Last element of RFO vector              ....  0.999731864
Lowest eigenvalues of augmented Hessian:
 -0.000036782  0.014396301  0.014537252  0.016426036  0.019279051
Length of the computed step             ....  0.023162223
The final length of the internal step   ....  0.023162223
Converting the step to cartesian space:
 Initial RMS(Int)=    0.0020716922
Transforming coordinates:
 Iter   0:  RMS(Cart)=    0.0035315331 RMS(Int)=    0.0020718047
 Iter   1:  RMS(Cart)=    0.0000103859 RMS(Int)=    0.0000064194
 Iter   2:  RMS(Cart)=    0.0000000593 RMS(Int)=    0.0000000292
done
Storing new coordinates                 .... done

                                .--------------------.
          ----------------------|Geometry convergence|-------------------------
          Item                value                   Tolerance       Converged
          ---------------------------------------------------------------------
          RMS gradient        0.0002096246            0.0001000000      NO
          MAX gradient        0.0007473327            0.0003000000      NO
          RMS step            0.0020716922            0.0020000000      NO
          MAX step            0.0091218702            0.0040000000      NO
          ........................................................
          Max(Bonds)      0.0008      Max(Angles)    0.19
          Max(Dihed)        0.52      Max(Improp)    0.00
          ---------------------------------------------------------------------

The optimization has not yet converged - more geometry cycles are needed


    ---------------------------------------------------------------------------
                         Redundant Internal Coordinates
                            (Angstroem and degrees)

        Definition                    Value    dE/dq     Step     New-Value
    ----------------------------------------------------------------------------
     1. B(C   1,C   0)                1.5254 -0.000021  0.0000    1.5255   
     2. B(C   4,C   2)                1.5250 -0.000415  0.0005    1.5256   
     3. B(C   4,C   1)                1.5255 -0.000222  0.0003    1.5258   
     4. B(H   5,C   2)                1.0913  0.000121 -0.0002    1.0912   
     5. B(H   6,C   2)                1.0913 -0.000011  0.0000    1.0913   
     6. B(C   7,C   0)                1.5260 -0.000492  0.0007    1.5268   
     7. B(H   8,C   1)                1.0914 -0.000065  0.0001    1.0915   
     8. B(H   9,C   1)                1.0918  0.000019 -0.0000    1.0918   
     9. B(C  10,C   7)                1.5326 -0.000531  0.0008    1.5334   
    10. B(C  10,H   3)                1.1041  0.000097 -0.0002    1.1040   
    11. B(C  10,C   2)                1.5291 -0.000193  0.0003    1.5294   
    12. B(H  11,C   7)                1.0922  0.000110 -0.0002    1.0920   
    13. B(H  12,C   7)                1.0924  0.000237 -0.0004    1.0920   
    14. B(H  13,C   4)                1.0914  0.000104 -0.0002    1.0912   
    15. B(H  14,C   4)                1.0932  0.000333 -0.0005    1.0927   
    16. B(H  15,C   0)                1.0918  0.000105 -0.0002    1.0917   
    17. B(H  16,C   0)                1.0937  0.000455 -0.0007    1.0930   
    18. B(O  18,C  17)                1.4065 -0.000396  0.0004    1.4069   
    19. B(O  18,C  10)                1.4239  0.000382 -0.0004    1.4235   
    20. B(H  19,C  17)                1.0955 -0.000065  0.0001    1.0956   
    21. B(H  20,C  17)                1.0971  0.000053 -0.0001    1.0970   
    22. B(H  21,C  17)                1.0886  0.000077 -0.0001    1.0884   
    23. A(C   7,C   0,H  15)          109.53 -0.000013   -0.02    109.51   
    24. A(H  15,C   0,H  16)          107.85 -0.000003    0.00    107.85   
    25. A(C   1,C   0,C   7)          110.80  0.000036    0.01    110.80   
    26. A(C   7,C   0,H  16)          108.84 -0.000427    0.16    108.99   
    27. A(C   1,C   0,H  16)          109.51  0.000282   -0.07    109.45   
    28. A(C   1,C   0,H  15)          110.26  0.000117   -0.08    110.18   
    29. A(C   0,C   1,H   8)          109.76 -0.000096    0.06    109.82   
    30. A(H   8,C   1,H   9)          108.31  0.000203   -0.13    108.18   
    31. A(C   4,C   1,H   9)          109.41  0.000070   -0.02    109.39   
    32. A(C   0,C   1,H   9)          109.32 -0.000025    0.01    109.32   
    33. A(C   4,C   1,H   8)          109.89 -0.000044    0.03    109.92   
    34. A(C   0,C   1,C   4)          110.13 -0.000103    0.05    110.17   
    35. A(C   4,C   2,H   5)          110.42  0.000143   -0.06    110.36   
    36. A(C   4,C   2,C  10)          110.83 -0.000162    0.07    110.90   
    37. A(H   6,C   2,C  10)          108.71 -0.000175    0.11    108.81   
    38. A(H   5,C   2,H   6)          108.05  0.000199   -0.14    107.91   
    39. A(C   4,C   2,H   6)          110.70  0.000033    0.02    110.72   
    40. A(H   5,C   2,C  10)          108.04 -0.000034   -0.00    108.04   
    41. A(H  13,C   4,H  14)          108.05  0.000116   -0.06    107.99   
    42. A(C   1,C   4,H  14)          109.37  0.000022    0.02    109.38   
    43. A(C   2,C   4,H  13)          109.56  0.000026   -0.03    109.53   
    44. A(C   1,C   4,H  13)          110.23  0.000049   -0.05    110.17   
    45. A(C   2,C   4,H  14)          109.08 -0.000282    0.11    109.19   
    46. A(C   1,C   4,C   2)          110.52  0.000066    0.01    110.53   
    47. A(H  11,C   7,H  12)          108.40  0.000221   -0.15    108.25   
    48. A(C  10,C   7,H  12)          108.43  0.000050   -0.05    108.38   
    49. A(C  10,C   7,H  11)          109.72 -0.000221    0.13    109.85   
    50. A(C   0,C   7,H  11)          109.57 -0.000037    0.06    109.63   
    51. A(C   0,C   7,H  12)          110.34  0.000119   -0.08    110.26   
    52. A(C   0,C   7,C  10)          110.35 -0.000126    0.09    110.44   
    53. A(C   2,C  10,H   3)          109.54  0.000158   -0.09    109.45   
    54. A(H   3,C  10,C   7)          108.91 -0.000132    0.03    108.94   
    55. A(C   7,C  10,O  18)          112.64 -0.000208    0.09    112.73   
    56. A(H   3,C  10,O  18)          108.86  0.000195   -0.08    108.78   
    57. A(C   2,C  10,O  18)          106.82 -0.000108    0.04    106.86   
    58. A(C   2,C  10,C   7)          110.02  0.000109    0.00    110.03   
    59. A(H  19,C  17,H  21)          109.37  0.000333   -0.10    109.27   
    60. A(O  18,C  17,H  21)          106.21  0.000102   -0.04    106.17   
    61. A(H  19,C  17,H  20)          108.54 -0.000747    0.19    108.72   
    62. A(O  18,C  17,H  20)          111.33  0.000739   -0.12    111.21   
    63. A(O  18,C  17,H  19)          111.94 -0.000218    0.04    111.98   
    64. A(H  20,C  17,H  21)          109.41 -0.000185    0.01    109.42   
    65. A(C  10,O  18,C  17)          115.28  0.000157   -0.02    115.25   
    66. D(H   9,C   1,C   0,H  15)     58.98  0.000050   -0.15     58.83   
    67. D(H   8,C   1,C   0,H  15)    -59.68 -0.000126   -0.04    -59.72   
    68. D(C   4,C   1,C   0,H  16)    -62.27  0.000297   -0.23    -62.50   
    69. D(C   4,C   1,C   0,H  15)    179.21  0.000057   -0.14    179.07   
    70. D(H   9,C   1,C   0,H  16)    177.50  0.000290   -0.24    177.25   
    71. D(C   4,C   1,C   0,C   7)     57.79 -0.000029   -0.07     57.72   
    72. D(H   9,C   1,C   0,C   7)    -62.44 -0.000036   -0.09    -62.52   
    73. D(H   8,C   1,C   0,H  16)     58.83  0.000115   -0.13     58.71   
    74. D(H   8,C   1,C   0,C   7)    178.90 -0.000211    0.03    178.93   
    75. D(H  13,C   4,C   1,H   8)     60.22  0.000167   -0.02     60.20   
    76. D(C   1,C   4,C   2,C  10)     57.69  0.000003   -0.07     57.62   
    77. D(H  13,C   4,C   2,H   5)     59.66  0.000179   -0.15     59.51   
    78. D(H  13,C   4,C   2,C  10)    179.34  0.000125   -0.15    179.20   
    79. D(H  13,C   4,C   1,H   9)    -58.57 -0.000097    0.13    -58.44   
    80. D(C   2,C   4,C   1,H   9)     62.69  0.000012    0.07     62.76   
    81. D(C   2,C   4,C   1,C   0)    -57.49  0.000062    0.04    -57.45   
    82. D(C   1,C   4,C   2,H   6)    178.40 -0.000304    0.13    178.52   
    83. D(C   1,C   4,C   2,H   5)    -61.99  0.000058   -0.07    -62.06   
    84. D(H  14,C   4,C   2,C  10)    -62.57  0.000114   -0.17    -62.74   
    85. D(H  14,C   4,C   2,H   6)     58.13 -0.000193    0.03     58.16   
    86. D(H  14,C   4,C   2,H   5)    177.74  0.000168   -0.17    177.57   
    87. D(H  13,C   4,C   2,H   6)    -59.95 -0.000182    0.05    -59.90   
    88. D(C   2,C   4,C   1,H   8)   -178.52  0.000276   -0.08   -178.60   
    89. D(H  14,C   4,C   1,H   9)   -177.22 -0.000282    0.23   -176.99   
    90. D(H  14,C   4,C   1,C   0)     62.61 -0.000232    0.20     62.80   
    91. D(H  13,C   4,C   1,C   0)   -178.74 -0.000047    0.11   -178.64   
    92. D(H  14,C   4,C   1,H   8)    -58.43 -0.000018    0.08    -58.35   
    93. D(H  11,C   7,C   0,C   1)   -178.74  0.000262   -0.14   -178.87   
    94. D(C  10,C   7,C   0,H  16)     62.65 -0.000019    0.14     62.79   
    95. D(C  10,C   7,C   0,H  15)   -179.66 -0.000278    0.22   -179.44   
    96. D(C  10,C   7,C   0,C   1)    -57.82 -0.000116    0.12    -57.70   
    97. D(H  12,C   7,C   0,H  16)   -177.54  0.000038    0.08   -177.46   
    98. D(H  12,C   7,C   0,H  15)    -59.85 -0.000221    0.16    -59.69   
    99. D(H  12,C   7,C   0,C   1)     61.99 -0.000059    0.06     62.05   
   100. D(H  11,C   7,C   0,H  16)    -58.26  0.000359   -0.12    -58.38   
   101. D(H  11,C   7,C   0,H  15)     59.42  0.000101   -0.03     59.39   
   102. D(O  18,C  10,C   7,H  12)     55.26 -0.000041    0.03     55.28   
   103. D(O  18,C  10,C   7,H  11)    -62.96 -0.000210    0.16    -62.80   
   104. D(O  18,C  10,C   7,C   0)    176.21  0.000059   -0.05    176.16   
   105. D(H   3,C  10,C   7,H  12)    176.13 -0.000021    0.00    176.13   
   106. D(H   3,C  10,C   7,H  11)     57.91 -0.000190    0.14     58.05   
   107. D(H   3,C  10,C   7,C   0)    -62.91  0.000079   -0.08    -62.99   
   108. D(C   2,C  10,C   7,H  12)    -63.80  0.000156   -0.08    -63.88   
   109. D(C   2,C  10,C   7,H  11)    177.98 -0.000013    0.05    178.04   
   110. D(C   2,C  10,C   7,C   0)     57.16  0.000257   -0.16     57.00   
   111. D(O  18,C  10,C   2,H   6)     58.26  0.000250   -0.13     58.13   
   112. D(O  18,C  10,C   2,H   5)    -58.76  0.000127   -0.02    -58.78   
   113. D(O  18,C  10,C   2,C   4)   -179.86  0.000072    0.01   -179.85   
   114. D(C   7,C  10,C   2,H   6)   -179.18 -0.000007    0.00   -179.18   
   115. D(C   7,C  10,C   2,H   5)     63.80 -0.000130    0.11     63.91   
   116. D(C   7,C  10,C   2,C   4)    -57.30 -0.000185    0.14    -57.16   
   117. D(H   3,C  10,C   2,H   6)    -59.49 -0.000004   -0.01    -59.50   
   118. D(H   3,C  10,C   2,H   5)   -176.51 -0.000127    0.10   -176.41   
   119. D(H   3,C  10,C   2,C   4)     62.39 -0.000183    0.13     62.52   
   120. D(C  10,O  18,C  17,H  21)    169.46 -0.000202    0.45    169.92   
   121. D(C  10,O  18,C  17,H  20)     50.45 -0.000446    0.52     50.97   
   122. D(C  10,O  18,C  17,H  19)    -71.23  0.000144    0.33    -70.90   
   123. D(C  17,O  18,C  10,C   7)     74.79  0.000022   -0.18     74.61   
   124. D(C  17,O  18,C  10,H   3)    -46.11  0.000189   -0.22    -46.33   
   125. D(C  17,O  18,C  10,C   2)   -164.30 -0.000040   -0.10   -164.40   
    ----------------------------------------------------------------------------

         *************************************************************
         *                GEOMETRY OPTIMIZATION CYCLE   2            *
         *************************************************************
      -----------------------------------------------------------      
     |                   =====================                   |     
     |                           x T B                           |     
     |                   =====================                   |     
     |                         S. Grimme                         |     
     |          Mulliken Center for Theoretical Chemistry        |     
     |                    University of Bonn                     |     
      -----------------------------------------------------------      

   * xtb version 6.3.2 (30e43eb) compiled by 'schneider@apollo14' on 2020-08-08

   xtb is free software: you can redistribute it and/or modify it under
   the terms of the GNU Lesser General Public License as published by
   the Free Software Foundation, either version 3 of the License, or
   (at your option) any later version.
   
   xtb is distributed in the hope that it will be useful,
   but WITHOUT ANY WARRANTY; without even the implied warranty of
   MERCHANTABILITY or FITNESS FOR A PARTICULAR PURPOSE.  See the
   GNU Lesser General Public License for more details.
   
   Cite this work as:
   * S. Grimme, C. Bannwarth, P. Shushkov, J. Chem. Theory Comput., 2017,
     13, 1989-2009. DOI: 10.1021/acs.jctc.7b00118
   * C. Bannwarth, S. Ehlert and S. Grimme., J. Chem. Theory Comput., 2019,
     15, 1652-1671. DOI: 10.1021/acs.jctc.8b01176
   * P. Pracht, E. Caldeweyher, S. Ehlert, S. Grimme, ChemRxiv, 2019, preprint.
     DOI: 10.26434/chemrxiv.8326202.v1
   
   for GFN-FF:
   * S. Spicher and S. Grimme, Angew. Chem. Int. Ed., 2020,
     DOI: 10.1002/anie.202004239
   
   for DFT-D4:
   * E. Caldeweyher, C. Bannwarth and S. Grimme, J. Chem. Phys., 2017,
     147, 034112. DOI: 10.1063/1.4993215
   * E. Caldeweyher, S. Ehlert, A. Hansen, H. Neugebauer, S. Spicher,
     C. Bannwarth and S. Grimme, J. Chem. Phys., 2019, 150, 154122.
     DOI: 10.1063/1.5090222
   
   for sTDA-xTB:
   * S. Grimme and C. Bannwarth, J. Chem. Phys., 2016, 145, 054103.
     DOI: 10.1063/1.4959605
   
   in the mass-spec context:
   * V. Asgeirsson, C. Bauer and S. Grimme, Chem. Sci., 2017, 8, 4879.
     DOI: 10.1039/c7sc00601b
   * J. Koopman and S. Grimme, ACS Omega 2019, 4, 12, 15120-15133.
     DOI: 10.1021/acsomega.9b02011
   
   for metadynamics refer to:
   * S. Grimme, J. Chem. Theory Comput., 2019, 155, 2847-2862
     DOI: 10.1021/acs.jctc.9b00143
   
   with help from (in alphabetical order)
   C. Bannwarth, F. Bohle, G. Brandenburg, E. Caldeweyher, M. Checinski,
   S. Dohm, S. Ehlert, S. Ehrlich, F. März, H. Neugebauer, J. Pisarek,
   P. Pracht, P. Shushkov, and S. Spicher.
   
 * started run on 2021/11/10 at 03:48:57.270     

           -------------------------------------------------
          |                Calculation Setup                |
           -------------------------------------------------

          program call               : /opt/orca/otool_xtb opt+numfreq_XTB.xyz --grad -c 0 -u 0 -P 6 --namespace opt+numfreq --gbsa methanol
          calculation namespace      : opt+numfreq
          coordinate file            : opt+numfreq_XTB.xyz
          omp threads                :                     6
          number of atoms            :                    22
          number of electrons        :                    48
          charge                     :                     0
          spin                       :                   0.0
          first test random number   :      0.62826985769052

   ID    Z sym.   atoms
    1    6 C      1-3, 5, 8, 11, 18
    2    1 H      4, 6, 7, 9, 10, 12-17, 20-22
    3    8 O      19
########################################################################
[WARNING] Please study the warnings concerning your input carefully
-1- prog_main_parseArguments: Process number higher than OMP_NUM_THREADS, I hope you know what you are doing.
########################################################################

           -------------------------------------------------
          |                 G F N 2 - x T B                 |
           -------------------------------------------------

        Reference                      10.1021/acs.jctc.8b01176
      * Hamiltonian:
        H0-scaling (s, p, d)           1.850000    2.230000    2.230000
        zeta-weighting                 0.500000
      * Dispersion:
        s8                             2.700000
        a1                             0.520000
        a2                             5.000000
        s9                             5.000000
      * Repulsion:
        kExp                           1.500000    1.000000
        rExp                           1.000000
      * Coulomb:
        alpha                          2.000000
        third order                    shell-resolved
        anisotropic                    true
        a3                             3.000000
        a5                             4.000000
        cn-shift                       1.200000
        cn-exp                         4.000000
        max-rad                        5.000000

      * Solvation model:               GBSA
        Solvent                        methanol
        Parameter file                 internal GFN2-xTB/GBSA
        Dielectric constant                3.2700E+01
        Reference state                gsolv [1 M gas/solution]
        Free energy shift                  3.3569E-03 Eh       2.1065E+00 kcal/mol
        Temperature                        2.9815E+02 K
        Density                            7.9200E-01 kg/L
        Solvent mass                       3.2040E+01 g/mol
        Interaction kernel             Still
        Born radius scaling (c1)           1.6087E+00
        Born radii integrator          GBOBC
        Born offset                        5.6550E-04 a0       1.0686E-03 AA
        H-bond correction              true
        Ion screening                  false
        Surface tension                    1.0000E-05 Eh       1.5569E+01 dyn/cm
        Grid points                               230 per atom

          ...................................................
          :                      SETUP                      :
          :.................................................:
          :  # basis functions                  46          :
          :  # atomic orbitals                  46          :
          :  # shells                           30          :
          :  # electrons                        48          :
          :  max. iterations                   250          :
          :  Hamiltonian                  GFN2-xTB          :
          :  restarted?                      false          :
          :  GBSA solvation                   true          :
          :  PC potential                    false          :
          :  electronic temp.          300.0000000     K    :
          :  accuracy                    1.0000000          :
          :  -> integral cutoff          0.2500000E+02      :
          :  -> integral neglect         0.1000000E-07      :
          :  -> SCF convergence          0.1000000E-05 Eh   :
          :  -> wf. convergence          0.1000000E-03 e    :
          :  Broyden damping             0.4000000          :
          ...................................................

 iter      E             dE          RMSdq      gap      omega  full diag
   1    -26.4835875 -0.264836E+02  0.337E+00   11.17       0.0  T
   2    -26.5414627 -0.578752E-01  0.177E+00   10.84       1.0  T
   3    -26.5422228 -0.760042E-03  0.771E-01   10.92       1.0  T
   4    -26.5424425 -0.219764E-03  0.121E-01   10.95       1.0  T
   5    -26.5425270 -0.844760E-04  0.648E-02   10.97       1.0  T
   6    -26.5425290 -0.192645E-05  0.599E-03   10.97       3.6  T
   7    -26.5425290 -0.953600E-07  0.365E-03   10.97       5.8  T
   8    -26.5425291 -0.177949E-07  0.117E-03   10.97      18.2  T
   9    -26.5425291 -0.334153E-08  0.403E-04   10.97      52.8  T
  10    -26.5425291 -0.479385E-09  0.169E-04   10.97     126.3  T

   *** convergence criteria satisfied after 10 iterations ***

         #    Occupation            Energy/Eh            Energy/eV
      -------------------------------------------------------------
         1        2.0000           -0.6960945             -18.9417
       ...           ...                  ...                  ...
        18        2.0000           -0.4585903             -12.4789
        19        2.0000           -0.4424617             -12.0400
        20        2.0000           -0.4390559             -11.9473
        21        2.0000           -0.4253778             -11.5751
        22        2.0000           -0.4234928             -11.5238
        23        2.0000           -0.4177775             -11.3683
        24        2.0000           -0.3926488             -10.6845 (HOMO)
        25                          0.0105865               0.2881 (LUMO)
        26                          0.0803757               2.1871
        27                          0.0897550               2.4424
        28                          0.0964879               2.6256
        29                          0.1036044               2.8192
       ...                                ...                  ...
        46                          0.3111515               8.4669
      -------------------------------------------------------------
                  HL-Gap            0.4032353 Eh           10.9726 eV
             Fermi-level           -0.1910312 Eh           -5.1982 eV

 SCC (total)                   0 d,  0 h,  0 min,  0.019 sec
 SCC setup                      ...        0 min,  0.001 sec (  6.439%)
 Dispersion                     ...        0 min,  0.000 sec (  0.945%)
 classical contributions        ...        0 min,  0.000 sec (  0.269%)
 integral evaluation            ...        0 min,  0.004 sec ( 19.581%)
 iterations                     ...        0 min,  0.009 sec ( 50.946%)
 molecular gradient             ...        0 min,  0.003 sec ( 17.899%)
 printout                       ...        0 min,  0.001 sec (  3.834%)

         :::::::::::::::::::::::::::::::::::::::::::::::::::::
         ::                     SUMMARY                     ::
         :::::::::::::::::::::::::::::::::::::::::::::::::::::
         :: total energy             -26.216539502979 Eh    ::
         :: total w/o Gsasa/hb       -26.210008117682 Eh    ::
         :: gradient norm              0.002062463614 Eh/a0 ::
         :: HOMO-LUMO gap             10.972591367824 eV    ::
         ::.................................................::
         :: SCC energy               -26.542529066990 Eh    ::
         :: -> isotropic ES            0.024101145689 Eh    ::
         :: -> anisotropic ES          0.004883308255 Eh    ::
         :: -> anisotropic XC          0.009638867524 Eh    ::
         :: -> dispersion             -0.014915790304 Eh    ::
         :: -> Gsolv                  -0.008595246290 Eh    ::
         ::    -> Gborn               -0.002063860992 Eh    ::
         ::    -> Gsasa               -0.009328864574 Eh    ::
         ::    -> Ghb                 -0.000559450246 Eh    ::
         ::    -> Gshift               0.003356929523 Eh    ::
         :: repulsion energy           0.325929361219 Eh    ::
         :: add. restraining           0.000000000000 Eh    ::
         :: total charge               0.000000000000 e     ::
         :::::::::::::::::::::::::::::::::::::::::::::::::::::

           -------------------------------------------------
          |                Property Printout                |
           -------------------------------------------------

    * Orbital Energies and Occupations

         #    Occupation            Energy/Eh            Energy/eV
      -------------------------------------------------------------
         1        2.0000           -0.6960945             -18.9417
       ...           ...                  ...                  ...
        12        2.0000           -0.5103883             -13.8884
        13        2.0000           -0.4990843             -13.5808
        14        2.0000           -0.4939497             -13.4411
        15        2.0000           -0.4845199             -13.1845
        16        2.0000           -0.4682853             -12.7427
        17        2.0000           -0.4653461             -12.6627
        18        2.0000           -0.4585903             -12.4789
        19        2.0000           -0.4424617             -12.0400
        20        2.0000           -0.4390559             -11.9473
        21        2.0000           -0.4253778             -11.5751
        22        2.0000           -0.4234928             -11.5238
        23        2.0000           -0.4177775             -11.3683
        24        2.0000           -0.3926488             -10.6845 (HOMO)
        25                          0.0105865               0.2881 (LUMO)
        26                          0.0803757               2.1871
        27                          0.0897550               2.4424
        28                          0.0964879               2.6256
        29                          0.1036044               2.8192
        30                          0.1104471               3.0054
        31                          0.1301476               3.5415
        32                          0.1326633               3.6100
        33                          0.1423953               3.8748
        34                          0.1731363               4.7113
        35                          0.1810932               4.9278
       ...                                ...                  ...
        46                          0.3111515               8.4669
      -------------------------------------------------------------
                  HL-Gap            0.4032353 Eh           10.9726 eV
             Fermi-level           -0.1910312 Eh           -5.1982 eV

     #   Z          covCN         q      C6AA      α(0)
     1   6 C        3.805    -0.061    21.664     6.626
     2   6 C        3.805    -0.063    21.710     6.633
     3   6 C        3.806    -0.067    21.772     6.642
     4   1 H        0.923     0.009     2.907     2.666
     5   6 C        3.805    -0.061    21.677     6.628
     6   1 H        0.924     0.046     2.364     2.405
     7   1 H        0.924     0.040     2.455     2.450
     8   6 C        3.805    -0.069    21.810     6.649
     9   1 H        0.924     0.038     2.477     2.461
    10   1 H        0.924     0.039     2.457     2.451
    11   6 C        3.745     0.116    18.743     6.176
    12   1 H        0.924     0.030     2.587     2.515
    13   1 H        0.924     0.041     2.440     2.443
    14   1 H        0.924     0.040     2.447     2.446
    15   1 H        0.924     0.036     2.505     2.475
    16   1 H        0.924     0.038     2.474     2.460
    17   1 H        0.924     0.034     2.529     2.487
    18   6 C        3.641     0.039    20.269     6.473
    19   8 O        1.700    -0.350    19.890     6.021
    20   1 H        0.924     0.033     2.551     2.498
    21   1 H        0.924     0.031     2.574     2.509
    22   1 H        0.925     0.061     2.187     2.313

 Mol. C6AA /au·bohr⁶  :       3433.450486
 Mol. C8AA /au·bohr⁸  :      72519.491901
 Mol. α(0) /au        :         86.428690


Wiberg/Mayer (AO) data.
largest (>0.10) Wiberg bond orders for each atom

 ---------------------------------------------------------------------------
     #   Z sym  total        # sym  WBO       # sym  WBO       # sym  WBO
 ---------------------------------------------------------------------------
     1   6 C    3.997 --     2 C    1.009     8 C    1.007    17 H    0.977
                            16 H    0.977
     2   6 C    3.998 --     1 C    1.009     5 C    1.009    10 H    0.977
                             9 H    0.977
     3   6 C    3.995 --     5 C    1.008    11 C    0.991     7 H    0.976
                             6 H    0.975
     4   1 H    1.000 --    11 C    0.959
     5   6 C    3.997 --     2 C    1.009     3 C    1.008    15 H    0.977
                            14 H    0.977
     6   1 H    0.998 --     3 C    0.975
     7   1 H    0.998 --     3 C    0.976
     8   6 C    3.997 --     1 C    1.007    11 C    0.988    13 H    0.976
                            12 H    0.975
     9   1 H    0.999 --     2 C    0.977
    10   1 H    0.998 --     2 C    0.977
    11   6 C    3.946 --     3 C    0.991     8 C    0.988    19 O    0.960
                             4 H    0.959
    12   1 H    0.999 --     8 C    0.975
    13   1 H    0.998 --     8 C    0.976
    14   1 H    0.998 --     5 C    0.977
    15   1 H    0.999 --     5 C    0.977
    16   1 H    0.999 --     1 C    0.977
    17   1 H    0.999 --     1 C    0.977
    18   6 C    3.951 --    19 O    0.994    22 H    0.979    20 H    0.977
                            21 H    0.976
    19   8 O    2.055 --    18 C    0.994    11 C    0.960
    20   1 H    0.999 --    18 C    0.977
    21   1 H    0.999 --    18 C    0.976
    22   1 H    0.996 --    18 C    0.979
 ---------------------------------------------------------------------------

Topologies differ in total number of bonds
Writing topology from bond orders to xtbtopo.mol

molecular dipole:
                 x           y           z       tot (Debye)
 q only:       -0.190      -0.213       0.438
   full:       -0.322      -0.351       0.421       1.615
molecular quadrupole (traceless):
                xx          xy          yy          xz          yz          zz
 q only:       -1.058       0.465       0.917       2.409       3.052       0.141
  q+dip:        1.533      -0.006       0.628       2.543       2.708      -2.161
   full:        0.414       0.246       0.897       2.718       3.183      -1.311


           -------------------------------------------------
          | TOTAL ENERGY              -26.216539502979 Eh   |
          | GRADIENT NORM               0.002062463614 Eh/α |
          | HOMO-LUMO GAP              10.972591367824 eV   |
           -------------------------------------------------

------------------------------------------------------------------------
 * finished run on 2021/11/10 at 03:48:57.302     
------------------------------------------------------------------------
 total:
 * wall-time:     0 d,  0 h,  0 min,  0.032 sec
 *  cpu-time:     0 d,  0 h,  0 min,  0.263 sec
 * ratio c/w:     8.224 speedup
 SCF:
 * wall-time:     0 d,  0 h,  0 min,  0.019 sec
 *  cpu-time:     0 d,  0 h,  0 min,  0.158 sec
 * ratio c/w:     8.217 speedup


-------------------------   --------------------
FINAL SINGLE POINT ENERGY       -26.216539502980
-------------------------   --------------------

------------------------------------------------------------------------------
                         ORCA GEOMETRY RELAXATION STEP
------------------------------------------------------------------------------

Reading the OPT-File                    .... done
Getting information on internals        .... done
Copying old internal coords+grads       .... done
Making the new internal coordinates     .... (new redundants).... done
Validating the new internal coordinates .... (new redundants).... done
Calculating the B-matrix                .... done
Calculating the G,G- and P matrices     .... done
Transforming gradient to internals      .... done
Projecting the internal gradient        .... done
Number of atoms                         ....  22
Number of internal coordinates          .... 125
Current Energy                          ....   -26.216539503 Eh
Current gradient norm                   ....     0.002062464 Eh/bohr
Maximum allowed component of the step   ....  0.300
Current trust radius                    ....  0.300
Updating the Hessian (BFGS)             .... done
Forming the augmented Hessian           .... done
Diagonalizing the augmented Hessian     .... done
Last element of RFO vector              ....  0.999410664
Lowest eigenvalues of augmented Hessian:
 -0.000025636  0.013228773  0.014534480  0.015311577  0.017928769
Length of the computed step             ....  0.034346987
The final length of the internal step   ....  0.034346987
Converting the step to cartesian space:
 Initial RMS(Int)=    0.0030720879
Transforming coordinates:
 Iter   0:  RMS(Cart)=    0.0055692684 RMS(Int)=    0.0030717190
 Iter   1:  RMS(Cart)=    0.0000312787 RMS(Int)=    0.0000202677
 Iter   2:  RMS(Cart)=    0.0000003461 RMS(Int)=    0.0000001553
 Iter   3:  RMS(Cart)=    0.0000000042 RMS(Int)=    0.0000000029
done
Storing new coordinates                 .... done

                                .--------------------.
          ----------------------|Geometry convergence|-------------------------
          Item                value                   Tolerance       Converged
          ---------------------------------------------------------------------
          Energy change      -0.0000275234            0.0000050000      NO
          RMS gradient        0.0001049115            0.0001000000      NO
          MAX gradient        0.0004332781            0.0003000000      NO
          RMS step            0.0030720879            0.0020000000      NO
          MAX step            0.0156440273            0.0040000000      NO
          ........................................................
          Max(Bonds)      0.0006      Max(Angles)    0.25
          Max(Dihed)        0.90      Max(Improp)    0.00
          ---------------------------------------------------------------------

The optimization has not yet converged - more geometry cycles are needed


    ---------------------------------------------------------------------------
                         Redundant Internal Coordinates
                            (Angstroem and degrees)

        Definition                    Value    dE/dq     Step     New-Value
    ----------------------------------------------------------------------------
     1. B(C   1,C   0)                1.5255  0.000010  0.0000    1.5255   
     2. B(C   4,C   2)                1.5256  0.000032 -0.0000    1.5256   
     3. B(C   4,C   1)                1.5258  0.000019  0.0000    1.5258   
     4. B(H   5,C   2)                1.0912 -0.000071  0.0002    1.0913   
     5. B(H   6,C   2)                1.0913  0.000003 -0.0000    1.0913   
     6. B(C   7,C   0)                1.5268  0.000082 -0.0000    1.5267   
     7. B(H   8,C   1)                1.0915 -0.000022  0.0001    1.0916   
     8. B(H   9,C   1)                1.0918 -0.000066  0.0002    1.0920   
     9. B(C  10,C   7)                1.5334  0.000027  0.0001    1.5335   
    10. B(C  10,H   3)                1.1040 -0.000075  0.0002    1.1042   
    11. B(C  10,C   2)                1.5294  0.000049 -0.0001    1.5293   
    12. B(H  11,C   7)                1.0920  0.000044 -0.0002    1.0919   
    13. B(H  12,C   7)                1.0920 -0.000067  0.0001    1.0921   
    14. B(H  13,C   4)                1.0912 -0.000021  0.0000    1.0913   
    15. B(H  14,C   4)                1.0927  0.000058 -0.0003    1.0924   
    16. B(H  15,C   0)                1.0917  0.000003 -0.0000    1.0916   
    17. B(H  16,C   0)                1.0930  0.000088 -0.0004    1.0926   
    18. B(O  18,C  17)                1.4069 -0.000246  0.0006    1.4075   
    19. B(O  18,C  10)                1.4235  0.000263 -0.0006    1.4229   
    20. B(H  19,C  17)                1.0956  0.000093 -0.0003    1.0953   
    21. B(H  20,C  17)                1.0970  0.000061 -0.0002    1.0968   
    22. B(H  21,C  17)                1.0884 -0.000031  0.0001    1.0885   
    23. A(C   7,C   0,H  15)          109.51  0.000028   -0.05    109.46   
    24. A(H  15,C   0,H  16)          107.85 -0.000018    0.03    107.88   
    25. A(C   1,C   0,C   7)          110.80  0.000036   -0.00    110.80   
    26. A(C   7,C   0,H  16)          108.99 -0.000240    0.21    109.21   
    27. A(C   1,C   0,H  16)          109.45  0.000141   -0.07    109.37   
    28. A(C   1,C   0,H  15)          110.18  0.000049   -0.10    110.07   
    29. A(C   0,C   1,H   8)          109.82 -0.000059    0.07    109.89   
    30. A(H   8,C   1,H   9)          108.18  0.000118   -0.17    108.01   
    31. A(C   4,C   1,H   9)          109.39  0.000035   -0.02    109.37   
    32. A(C   0,C   1,H   9)          109.32 -0.000045    0.03    109.36   
    33. A(C   4,C   1,H   8)          109.92 -0.000022    0.03    109.94   
    34. A(C   0,C   1,C   4)          110.17 -0.000025    0.05    110.23   
    35. A(C   4,C   2,H   5)          110.36  0.000100   -0.08    110.28   
    36. A(C   4,C   2,C  10)          110.90 -0.000095    0.09    110.99   
    37. A(H   6,C   2,C  10)          108.81 -0.000076    0.12    108.93   
    38. A(H   5,C   2,H   6)          107.91  0.000100   -0.17    107.74   
    39. A(C   4,C   2,H   6)          110.72  0.000029    0.01    110.73   
    40. A(H   5,C   2,C  10)          108.04 -0.000057    0.03    108.06   
    41. A(H  13,C   4,H  14)          107.99  0.000057   -0.06    107.93   
    42. A(C   1,C   4,H  14)          109.38 -0.000004    0.03    109.41   
    43. A(C   2,C   4,H  13)          109.53  0.000015   -0.05    109.48   
    44. A(C   1,C   4,H  13)          110.17  0.000009   -0.06    110.11   
    45. A(C   2,C   4,H  14)          109.19 -0.000166    0.15    109.34   
    46. A(C   1,C   4,C   2)          110.53  0.000086   -0.00    110.53   
    47. A(H  11,C   7,H  12)          108.25  0.000098   -0.17    108.08   
    48. A(C  10,C   7,H  12)          108.38  0.000008   -0.05    108.33   
    49. A(C  10,C   7,H  11)          109.85 -0.000104    0.16    110.01   
    50. A(C   0,C   7,H  11)          109.63  0.000004    0.06    109.68   
    51. A(C   0,C   7,H  12)          110.26  0.000085   -0.10    110.15   
    52. A(C   0,C   7,C  10)          110.44 -0.000088    0.10    110.54   
    53. A(C   2,C  10,H   3)          109.45  0.000084   -0.10    109.36   
    54. A(H   3,C  10,C   7)          108.94 -0.000078    0.06    108.99   
    55. A(C   7,C  10,O  18)          112.73 -0.000078    0.09    112.82   
    56. A(H   3,C  10,O  18)          108.78  0.000065   -0.06    108.72   
    57. A(C   2,C  10,O  18)          106.86 -0.000033    0.03    106.88   
    58. A(C   2,C  10,C   7)          110.03  0.000048   -0.02    110.00   
    59. A(H  19,C  17,H  21)          109.27  0.000169   -0.12    109.15   
    60. A(O  18,C  17,H  21)          106.17  0.000067   -0.06    106.11   
    61. A(H  19,C  17,H  20)          108.72 -0.000433    0.25    108.97   
    62. A(O  18,C  17,H  20)          111.21  0.000428   -0.16    111.06   
    63. A(O  18,C  17,H  19)          111.98 -0.000078    0.04    112.02   
    64. A(H  20,C  17,H  21)          109.42 -0.000142    0.04    109.46   
    65. A(C  10,O  18,C  17)          115.25  0.000128   -0.04    115.21   
    66. D(H   9,C   1,C   0,H  15)     58.83  0.000054   -0.26     58.57   
    67. D(H   8,C   1,C   0,H  15)    -59.72 -0.000028   -0.12    -59.83   
    68. D(C   4,C   1,C   0,H  16)    -62.50  0.000146   -0.30    -62.81   
    69. D(C   4,C   1,C   0,H  15)    179.07  0.000053   -0.23    178.84   
    70. D(H   9,C   1,C   0,H  16)    177.25  0.000147   -0.33    176.92   
    71. D(C   4,C   1,C   0,C   7)     57.72 -0.000038   -0.09     57.63   
    72. D(H   9,C   1,C   0,C   7)    -62.52 -0.000037   -0.12    -62.65   
    73. D(H   8,C   1,C   0,H  16)     58.71  0.000065   -0.19     58.52   
    74. D(H   8,C   1,C   0,C   7)    178.93 -0.000119    0.02    178.95   
    75. D(H  13,C   4,C   1,H   8)     60.20  0.000067    0.04     60.25   
    76. D(C   1,C   4,C   2,C  10)     57.62 -0.000023   -0.07     57.56   
    77. D(H  13,C   4,C   2,H   5)     59.51  0.000121   -0.22     59.29   
    78. D(H  13,C   4,C   2,C  10)    179.20  0.000053   -0.18    179.02   
    79. D(H  13,C   4,C   1,H   9)    -58.44 -0.000085    0.24    -58.19   
    80. D(C   2,C   4,C   1,H   9)     62.76 -0.000004    0.13     62.89   
    81. D(C   2,C   4,C   1,C   0)    -57.45  0.000045    0.07    -57.38   
    82. D(C   1,C   4,C   2,H   6)    178.52 -0.000163    0.16    178.68   
    83. D(C   1,C   4,C   2,H   5)    -62.06  0.000044   -0.10    -62.17   
    84. D(H  14,C   4,C   2,C  10)    -62.74  0.000034   -0.19    -62.94   
    85. D(H  14,C   4,C   2,H   6)     58.16 -0.000106    0.03     58.18   
    86. D(H  14,C   4,C   2,H   5)    177.57  0.000101   -0.23    177.34   
    87. D(H  13,C   4,C   2,H   6)    -59.90 -0.000086    0.04    -59.86   
    88. D(C   2,C   4,C   1,H   8)   -178.60  0.000149   -0.07   -178.67   
    89. D(H  14,C   4,C   1,H   9)   -176.99 -0.000158    0.34   -176.66   
    90. D(H  14,C   4,C   1,C   0)     62.80 -0.000110    0.27     63.08   
    91. D(H  13,C   4,C   1,C   0)   -178.64 -0.000037    0.18   -178.46   
    92. D(H  14,C   4,C   1,H   8)    -58.35 -0.000006    0.13    -58.22   
    93. D(H  11,C   7,C   0,C   1)   -178.87  0.000147   -0.20   -179.07   
    94. D(C  10,C   7,C   0,H  16)     62.79  0.000006    0.14     62.93   
    95. D(C  10,C   7,C   0,H  15)   -179.44 -0.000139    0.27   -179.17   
    96. D(C  10,C   7,C   0,C   1)    -57.70 -0.000036    0.10    -57.60   
    97. D(H  12,C   7,C   0,H  16)   -177.46  0.000015    0.08   -177.38   
    98. D(H  12,C   7,C   0,H  15)    -59.69 -0.000131    0.20    -59.49   
    99. D(H  12,C   7,C   0,C   1)     62.05 -0.000028    0.04     62.09   
   100. D(H  11,C   7,C   0,H  16)    -58.38  0.000190   -0.16    -58.54   
   101. D(H  11,C   7,C   0,H  15)     59.39  0.000044   -0.03     59.36   
   102. D(O  18,C  10,C   7,H  12)     55.28 -0.000010    0.05     55.34   
   103. D(O  18,C  10,C   7,H  11)    -62.80 -0.000074    0.20    -62.60   
   104. D(O  18,C  10,C   7,C   0)    176.16  0.000046   -0.04    176.12   
   105. D(H   3,C  10,C   7,H  12)    176.13 -0.000033    0.07    176.20   
   106. D(H   3,C  10,C   7,H  11)     58.05 -0.000097    0.21     58.26   
   107. D(H   3,C  10,C   7,C   0)    -62.99  0.000023   -0.03    -63.02   
[...]
     40       0.003412  -0.016773   0.337391   0.153999   0.158843   0.406323
     41       0.001083  -0.005994   0.115270   0.052077   0.052503   0.132278
     42      -0.005376  -0.002454   0.760245   0.227356   0.206192  -0.074733
     43      -0.000448  -0.001738   0.020231   0.005504   0.003365  -0.019271
     44       0.000636   0.001929  -0.113832  -0.035243  -0.033031   0.005721
     45       0.000896   0.155206  -0.019513  -0.127178   0.204168   0.140888
     46      -0.001089  -0.286476   0.031731   0.199305  -0.314381  -0.199573
     47       0.000640   0.212070  -0.023883  -0.146293   0.229444   0.144423
     48      -0.004654   0.777017  -0.038298  -0.116105   0.085074  -0.222167
     49      -0.000523   0.069503  -0.001277  -0.016868   0.018767  -0.006788
     50       0.000463  -0.122056   0.007387   0.022207  -0.022887   0.025010
     51      -0.007728  -0.000031   0.000045  -0.000276   0.000260   0.000168
     52      -0.053896   0.000635  -0.000689   0.002694  -0.000833   0.000005
     53       0.028783  -0.000464   0.000231  -0.001207   0.000284  -0.000197
     54      -0.002909   0.000043  -0.000034   0.000186  -0.000045   0.000001
     55      -0.004783   0.000123  -0.000084   0.000282  -0.000041  -0.000063
     56      -0.002124   0.000026  -0.000020   0.000085  -0.000109   0.000039
     57      -0.329555   0.003955  -0.004217   0.016827  -0.004888   0.000105
     58       0.784571  -0.009849   0.009973  -0.041232   0.012398   0.000646
     59      -0.240503   0.003111  -0.003137   0.013013  -0.004019  -0.000349
     60       0.452086  -0.003384   0.003910  -0.014528   0.002029  -0.001455
     61      -0.052698   0.000523  -0.000588   0.002257  -0.000649   0.000284
     62      -0.044792   0.000032  -0.000130   0.000277   0.000111   0.000252
     63       0.011513  -0.000834   0.000138  -0.001358   0.000304  -0.000428
     64      -0.019216  -0.000091  -0.000309   0.000797  -0.000412  -0.000491
     65      -0.029094   0.002606   0.000179   0.001865   0.000155   0.002204
                 60         61         62         63         64         65    
      0       0.021145   0.008808  -0.010202  -0.002645  -0.002082  -0.000173
      1       0.026369   0.013804   0.016897   0.022133   0.005458   0.000197
      2      -0.023413  -0.009781  -0.011641  -0.017777  -0.004205  -0.000165
      3       0.017195   0.036110  -0.013979  -0.016871  -0.008804  -0.000211
      4       0.001059   0.005272   0.000767  -0.007013  -0.002507  -0.000074
      5      -0.015067   0.016300   0.006804  -0.039808  -0.012421  -0.000397
      6       0.004800   0.029995  -0.032184   0.019574  -0.027253  -0.000223
      7      -0.009264  -0.014952   0.010917   0.011021  -0.036184  -0.000252
      8       0.008528   0.008452  -0.004846  -0.011984   0.032604   0.000197
      9      -0.014043  -0.013758   0.014386  -0.006990   0.003984   0.006956
     10      -0.001581  -0.000034   0.001756   0.000639  -0.001003  -0.000132
     11       0.001372   0.000256  -0.001827   0.001127  -0.000641  -0.002281
     12       0.002627   0.022551  -0.019060   0.005386  -0.004535  -0.000063
     13       0.028890  -0.007503   0.027415  -0.020930  -0.022936  -0.000503
     14       0.011059  -0.005251   0.013548  -0.010213  -0.007326  -0.000213
     15       0.027660  -0.241012   0.304042  -0.344394   0.650600   0.004321
     16      -0.004644  -0.023591   0.026030  -0.016811   0.024604   0.000211
     17       0.001061   0.045388  -0.052811   0.050177  -0.090432  -0.000536
     18      -0.088414  -0.127166   0.091782   0.098662  -0.307764  -0.001692
     19       0.130752   0.206409  -0.155628  -0.126975   0.422962   0.002222
     20      -0.099366  -0.157679   0.121523   0.094323  -0.320602  -0.001619
     21       0.036690  -0.012727  -0.029819  -0.004815  -0.004022   0.000061
     22      -0.003100   0.026812   0.022763   0.012669   0.002973   0.000042
     23      -0.008729   0.011998   0.013586   0.005333   0.001420  -0.000023
     24      -0.035358   0.088620   0.011492  -0.148851  -0.048265  -0.001470
     25       0.022057  -0.031510  -0.007026   0.065869   0.019643   0.000668
     26       0.171742  -0.278748  -0.071534   0.556071   0.177073   0.005556
     27      -0.173049  -0.532763   0.155147   0.363405   0.157050   0.003923
     28      -0.011239  -0.032381   0.011393   0.021246   0.008859   0.000232
     29       0.014089   0.074831  -0.015782  -0.063605  -0.024443  -0.000686
     30       0.002514   0.001435  -0.003248   0.001174  -0.001394  -0.000128
     31      -0.001056   0.000505   0.000551   0.000918  -0.001256  -0.000121
     32       0.000235   0.000625   0.000165   0.000054   0.001034  -0.000349
     33       0.048429  -0.150610  -0.141569  -0.068790  -0.016954  -0.000219
     34       0.075733  -0.363637  -0.319149  -0.167631  -0.039512   0.000381
     35       0.020792  -0.117643  -0.102641  -0.056077  -0.012239  -0.000945
     36      -0.503143   0.311963   0.516613   0.128306   0.065373  -0.001666
     37      -0.030823   0.031656   0.039374   0.013489   0.004578   0.000131
     38       0.074625  -0.042046  -0.074377  -0.017895  -0.009317   0.000307
     39      -0.154200   0.052348  -0.156914   0.115291   0.114454   0.002669
     40      -0.384673   0.104317  -0.367672   0.283248   0.290299   0.006758
     41      -0.125204   0.032769  -0.118075   0.089493   0.094779   0.002268
     42       0.132043  -0.311539   0.383774  -0.183044  -0.070315  -0.001727
     43       0.021260  -0.019737   0.031667  -0.018241  -0.013085  -0.000412
     44      -0.013009   0.043077  -0.049068   0.020314   0.007366   0.000082
     45       0.223576   0.106947   0.142252   0.187895   0.046302   0.001694
     46      -0.307973  -0.148221  -0.212273  -0.275975  -0.069767  -0.002616
     47       0.223345   0.109002   0.156356   0.199620   0.050071   0.001915
     48      -0.475118  -0.210495  -0.030718  -0.163236  -0.023354   0.000744
     49      -0.021623  -0.008307   0.006472  -0.002434   0.000842   0.000138
     50       0.057360   0.026866  -0.001042   0.014842   0.000910  -0.000361
     51       0.000441  -0.000448  -0.000708   0.000214   0.000330  -0.017508
     52      -0.000322   0.001236   0.001112   0.001212   0.000225  -0.010405
     53       0.000099  -0.000256  -0.000126  -0.000941  -0.000560   0.070951
     54      -0.000057   0.000102   0.000180   0.000089  -0.000090   0.000360
     55       0.000102   0.000139   0.000054   0.000090  -0.000231   0.001436
     56      -0.000025  -0.000196  -0.000110  -0.000155  -0.000417   0.002478
     57      -0.000540   0.006829   0.005209   0.006369  -0.000885   0.003355
     58       0.003600  -0.018435  -0.015218  -0.016090   0.002708  -0.050555
     59      -0.001179   0.005774   0.005013   0.004573  -0.000608   0.048242
     60      -0.005080  -0.002269   0.003002  -0.008316   0.002238  -0.014139
     61       0.000273   0.000632   0.000365   0.000760   0.000311  -0.009751
     62       0.000545  -0.000241  -0.000519   0.000397   0.000200   0.032749
     63       0.000402  -0.000173  -0.000170  -0.001758  -0.001938   0.208922
     64      -0.000073   0.000667   0.000766  -0.000956  -0.001633   0.162390
     65      -0.000622  -0.001674  -0.001883   0.006795   0.008848  -0.958149


-----------
IR SPECTRUM  
-----------

 Mode    freq (cm**-1)   T**2         TX         TY         TZ
-------------------------------------------------------------------
   6:        73.04    0.000000  (  0.000000   0.000000   0.000000)
   7:       119.64    0.000000  (  0.000000   0.000000   0.000000)
   8:       190.86    0.000000  (  0.000000   0.000000   0.000000)
   9:       222.42    0.000000  (  0.000000   0.000000   0.000000)
  10:       248.95    0.000000  (  0.000000   0.000000   0.000000)
  11:       327.26    0.000000  (  0.000000   0.000000   0.000000)
  12:       358.52    0.000000  (  0.000000   0.000000   0.000000)
  13:       422.41    0.000000  (  0.000000   0.000000   0.000000)
  14:       453.01    0.000000  (  0.000000   0.000000   0.000000)
  15:       482.38    0.000000  (  0.000000   0.000000   0.000000)
  16:       548.97    0.000000  (  0.000000   0.000000   0.000000)
  17:       818.69    0.000000  (  0.000000   0.000000   0.000000)
  18:       833.43    0.000000  (  0.000000   0.000000   0.000000)
  19:       896.94    0.000000  (  0.000000   0.000000   0.000000)
  20:       919.13    0.000000  (  0.000000   0.000000   0.000000)
  21:       931.72    0.000000  (  0.000000   0.000000   0.000000)
  22:       956.92    0.000000  (  0.000000   0.000000   0.000000)
  23:       972.69    0.000000  (  0.000000   0.000000   0.000000)
  24:      1014.70    0.000000  (  0.000000   0.000000   0.000000)
  25:      1060.27    0.000000  (  0.000000   0.000000   0.000000)
  26:      1079.94    0.000000  (  0.000000   0.000000   0.000000)
  27:      1093.04    0.000000  (  0.000000   0.000000   0.000000)
  28:      1098.60    0.000000  (  0.000000   0.000000   0.000000)
  29:      1126.79    0.000000  (  0.000000   0.000000   0.000000)
  30:      1139.00    0.000000  (  0.000000   0.000000   0.000000)
  31:      1143.35    0.000000  (  0.000000   0.000000   0.000000)
  32:      1171.88    0.000000  (  0.000000   0.000000   0.000000)
  33:      1199.74    0.000000  (  0.000000   0.000000   0.000000)
  34:      1237.02    0.000000  (  0.000000   0.000000   0.000000)
  35:      1239.98    0.000000  (  0.000000   0.000000   0.000000)
  36:      1241.38    0.000000  (  0.000000   0.000000   0.000000)
  37:      1299.40    0.000000  (  0.000000   0.000000   0.000000)
  38:      1305.53    0.000000  (  0.000000   0.000000   0.000000)
  39:      1333.81    0.000000  (  0.000000   0.000000   0.000000)
  40:      1338.80    0.000000  (  0.000000   0.000000   0.000000)
  41:      1349.47    0.000000  (  0.000000   0.000000   0.000000)
  42:      1353.72    0.000000  (  0.000000   0.000000   0.000000)
  43:      1355.19    0.000000  (  0.000000   0.000000   0.000000)
  44:      1398.36    0.000000  (  0.000000   0.000000   0.000000)
  45:      1464.85    0.000000  (  0.000000   0.000000   0.000000)
  46:      1477.00    0.000000  (  0.000000   0.000000   0.000000)
  47:      1480.30    0.000000  (  0.000000   0.000000   0.000000)
  48:      1483.24    0.000000  (  0.000000   0.000000   0.000000)
  49:      1486.99    0.000000  (  0.000000   0.000000   0.000000)
  50:      1488.14    0.000000  (  0.000000   0.000000   0.000000)
  51:      1500.71    0.000000  (  0.000000   0.000000   0.000000)
  52:      2804.27    0.000000  (  0.000000   0.000000   0.000000)
  53:      2897.41    0.000000  (  0.000000   0.000000   0.000000)
  54:      2924.52    0.000000  (  0.000000   0.000000   0.000000)
  55:      2958.14    0.000000  (  0.000000   0.000000   0.000000)
  56:      2961.06    0.000000  (  0.000000   0.000000   0.000000)
  57:      2965.98    0.000000  (  0.000000   0.000000   0.000000)
  58:      2970.42    0.000000  (  0.000000   0.000000   0.000000)
  59:      2975.00    0.000000  (  0.000000   0.000000   0.000000)
  60:      2977.75    0.000000  (  0.000000   0.000000   0.000000)
  61:      2979.91    0.000000  (  0.000000   0.000000   0.000000)
  62:      2982.14    0.000000  (  0.000000   0.000000   0.000000)
  63:      2986.54    0.000000  (  0.000000   0.000000   0.000000)
  64:      2991.60    0.000000  (  0.000000   0.000000   0.000000)
  65:      3017.00    0.000000  (  0.000000   0.000000   0.000000)

The first frequency considered to be a vibration is 6
The total number of vibrations considered is 60


--------------------------
THERMOCHEMISTRY AT 298.15K
--------------------------

Temperature         ... 298.15 K
Pressure            ... 1.00 atm
Total Mass          ... 114.19 AMU

Throughout the following assumptions are being made:
  (1) The electronic state is orbitally nondegenerate
  (2) There are no thermally accessible electronically excited states
  (3) Hindered rotations indicated by low frequency modes are not
      treated as such but are treated as vibrations and this may
      cause some error
  (4) All equations used are the standard statistical mechanics
      equations for an ideal gas
  (5) All vibrations are strictly harmonic

freq.      73.04  E(vib)   ...       0.49 
freq.     119.64  E(vib)   ...       0.44 
freq.     190.86  E(vib)   ...       0.36 
freq.     222.42  E(vib)   ...       0.33 
freq.     248.95  E(vib)   ...       0.31 
freq.     327.26  E(vib)   ...       0.24 
freq.     358.52  E(vib)   ...       0.22 
freq.     422.41  E(vib)   ...       0.18 
freq.     453.01  E(vib)   ...       0.16 
freq.     482.38  E(vib)   ...       0.15 
freq.     548.97  E(vib)   ...       0.12 
freq.     818.69  E(vib)   ...       0.05 
freq.     833.43  E(vib)   ...       0.04 
freq.     896.94  E(vib)   ...       0.03 
freq.     919.13  E(vib)   ...       0.03 
freq.     931.72  E(vib)   ...       0.03 
freq.     956.92  E(vib)   ...       0.03 
freq.     972.69  E(vib)   ...       0.03 
freq.    1014.70  E(vib)   ...       0.02 
freq.    1060.27  E(vib)   ...       0.02 
freq.    1079.94  E(vib)   ...       0.02 
freq.    1093.04  E(vib)   ...       0.02 
freq.    1098.60  E(vib)   ...       0.02 
freq.    1126.79  E(vib)   ...       0.01 
freq.    1139.00  E(vib)   ...       0.01 
freq.    1143.35  E(vib)   ...       0.01 
freq.    1171.88  E(vib)   ...       0.01 
freq.    1199.74  E(vib)   ...       0.01 
freq.    1237.02  E(vib)   ...       0.01 
freq.    1239.98  E(vib)   ...       0.01 
freq.    1241.38  E(vib)   ...       0.01 
freq.    1299.40  E(vib)   ...       0.01 
freq.    1305.53  E(vib)   ...       0.01 
freq.    1333.81  E(vib)   ...       0.01 
freq.    1338.80  E(vib)   ...       0.01 
freq.    1349.47  E(vib)   ...       0.01 
freq.    1353.72  E(vib)   ...       0.01 
freq.    1355.19  E(vib)   ...       0.01 
freq.    1398.36  E(vib)   ...       0.00 
freq.    1464.85  E(vib)   ...       0.00 
freq.    1477.00  E(vib)   ...       0.00 
freq.    1480.30  E(vib)   ...       0.00 
freq.    1483.24  E(vib)   ...       0.00 
freq.    1486.99  E(vib)   ...       0.00 
freq.    1488.14  E(vib)   ...       0.00 
freq.    1500.71  E(vib)   ...       0.00 
freq.    2804.27  E(vib)   ...       0.00 
freq.    2897.41  E(vib)   ...       0.00 
freq.    2924.52  E(vib)   ...       0.00 
freq.    2958.14  E(vib)   ...       0.00 
freq.    2961.06  E(vib)   ...       0.00 
freq.    2965.98  E(vib)   ...       0.00 
freq.    2970.42  E(vib)   ...       0.00 
freq.    2975.00  E(vib)   ...       0.00 
freq.    2977.75  E(vib)   ...       0.00 
freq.    2979.91  E(vib)   ...       0.00 
freq.    2982.14  E(vib)   ...       0.00 
freq.    2986.54  E(vib)   ...       0.00 
freq.    2991.60  E(vib)   ...       0.00 
freq.    3017.00  E(vib)   ...       0.00 

------------
INNER ENERGY
------------

The inner energy is: U= E(el) + E(ZPE) + E(vib) + E(rot) + E(trans)
    E(el)   - is the total energy from the electronic structure calculation
              = E(kin-el) + E(nuc-el) + E(el-el) + E(nuc-nuc)
    E(ZPE)  - the the zero temperature vibrational energy from the frequency calculation
    E(vib)  - the the finite temperature correction to E(ZPE) due to population
              of excited vibrational states
    E(rot)  - is the rotational thermal energy
    E(trans)- is the translational thermal energy

Summary of contributions to the inner energy U:
Electronic energy                ...    -26.21655640 Eh
Zero point energy                ...      0.19849656 Eh     124.56 kcal/mol
Thermal vibrational correction   ...      0.00556906 Eh       3.49 kcal/mol
Thermal rotational correction    ...      0.00141627 Eh       0.89 kcal/mol
Thermal translational correction ...      0.00141627 Eh       0.89 kcal/mol
-----------------------------------------------------------------------
Total thermal energy                    -26.00965824 Eh


Summary of corrections to the electronic energy:
(perhaps to be used in another calculation)
Total thermal correction                  0.00840160 Eh       5.27 kcal/mol
Non-thermal (ZPE) correction              0.19849656 Eh     124.56 kcal/mol
-----------------------------------------------------------------------
Total correction                          0.20689816 Eh     129.83 kcal/mol


--------
ENTHALPY
--------

The enthalpy is H = U + kB*T
                kB is Boltzmann's constant
Total free energy                 ...    -26.00965824 Eh 
Thermal Enthalpy correction       ...      0.00094421 Eh       0.59 kcal/mol
-----------------------------------------------------------------------
Total Enthalpy                    ...    -26.00871403 Eh


Note: Only C1 symmetry has been detected, increase convergence thresholds 
      if your molecule has a higher symmetry. Symmetry factor of 1.0 is   
      used for the rotational entropy correction. 
 

Note: Rotational entropy computed according to Herzberg 
Infrared and Raman Spectra, Chapter V,1, Van Nostrand Reinhold, 1945 
Point Group:  C1, Symmetry Number:   1  
Rotational constants in cm-1:     0.133889     0.045315     0.036694 

Vibrational entropy computed according to the QRRHO of S. Grimme
Chem.Eur.J. 2012 18 9955


-------
ENTROPY
-------

The entropy contributions are T*S = T*(S(el)+S(vib)+S(rot)+S(trans))
     S(el)   - electronic entropy
     S(vib)  - vibrational entropy
     S(rot)  - rotational entropy
     S(trans)- translational entropy
The entropies will be listed as mutliplied by the temperature to get
units of energy

Electronic entropy                ...      0.00000000 Eh      0.00 kcal/mol
Vibrational entropy               ...      0.00928509 Eh      5.83 kcal/mol
Rotational entropy                ...      0.01348109 Eh      8.46 kcal/mol
Translational entropy             ...      0.01905915 Eh     11.96 kcal/mol
-----------------------------------------------------------------------
Final entropy term                ...      0.04182532 Eh     26.25 kcal/mol

In case the symmetry of your molecule has not been determined correctly
or in case you have a reason to use a different symmetry number we print 
out the resulting rotational entropy values for sn=1,12 :
 --------------------------------------------------------
|  sn= 1 | S(rot)=       0.01348109 Eh      8.46 kcal/mol|
|  sn= 2 | S(rot)=       0.01282663 Eh      8.05 kcal/mol|
|  sn= 3 | S(rot)=       0.01244380 Eh      7.81 kcal/mol|
|  sn= 4 | S(rot)=       0.01217218 Eh      7.64 kcal/mol|
|  sn= 5 | S(rot)=       0.01196149 Eh      7.51 kcal/mol|
|  sn= 6 | S(rot)=       0.01178934 Eh      7.40 kcal/mol|
|  sn= 7 | S(rot)=       0.01164380 Eh      7.31 kcal/mol|
|  sn= 8 | S(rot)=       0.01151772 Eh      7.23 kcal/mol|
|  sn= 9 | S(rot)=       0.01140651 Eh      7.16 kcal/mol|
|  sn=10 | S(rot)=       0.01130703 Eh      7.10 kcal/mol|
|  sn=11 | S(rot)=       0.01121704 Eh      7.04 kcal/mol|
|  sn=12 | S(rot)=       0.01113489 Eh      6.99 kcal/mol|
 --------------------------------------------------------


-------------------
GIBBS FREE ENERGY
-------------------

The Gibbs free energy is G = H - T*S

Total enthalpy                    ...    -26.00871403 Eh 
Total entropy correction          ...     -0.04182532 Eh    -26.25 kcal/mol
-----------------------------------------------------------------------
Final Gibbs free energy         ...    -26.05053935 Eh

For completeness - the Gibbs free energy minus the electronic energy
G-E(el)                           ...      0.16601705 Eh    104.18 kcal/mol


Total Time for Numerical Frequencies  :        45.762 sec

Timings for individual modules:

Sum of individual times         ...        0.698 sec (=   0.012 min)
Geometry relaxation             ...        0.429 sec (=   0.007 min)  61.5 %
XTB module                      ...        0.269 sec (=   0.004 min)  38.5 %
                             ****ORCA TERMINATED NORMALLY****
TOTAL RUN TIME: 0 days 0 hours 0 minutes 47 seconds 769 msec
