
                                 *****************
                                 * O   R   C   A *
                                 *****************

           --- An Ab Initio, DFT and Semiempirical electronic structure package ---

                  #######################################################
                  #                        -***-                        #
                  #          Department of theory and spectroscopy      #
                  #               Directorship: Frank Neese             #
                  #        Max Planck Institute fuer Kohlenforschung    #
                  #                Kaiser Wilhelm Platz 1               #
                  #                 D-45470 Muelheim/Ruhr               #
                  #                      Germany                        #
                  #                                                     #
                  #                  All rights reserved                #
                  #                        -***-                        #
                  #######################################################


                         Program Version 4.2.1 -  RELEASE  -


 With contributions from (in alphabetic order):
   Daniel Aravena         : Magnetic Suceptibility
   Michael Atanasov       : Ab Initio Ligand Field Theory (pilot matlab implementation)
   Alexander A. Auer      : GIAO ZORA, VPT2
   Ute Becker             : Parallelization
   Giovanni Bistoni       : ED, misc. LED, open-shell LED, HFLD
   Martin Brehm           : Molecular dynamics
   Dmytro Bykov           : SCF Hessian
   Vijay G. Chilkuri      : MRCI spin determinant printing, contributions to CSF-ICE
   Dipayan Datta          : RHF DLPNO-CCSD density
   Achintya Kumar Dutta   : EOM-CC, STEOM-CC
   Dmitry Ganyushin       : Spin-Orbit,Spin-Spin,Magnetic field MRCI
   Miquel Garcia          : C-PCM Hessian, Gaussian charge scheme
   Yang Guo               : DLPNO-NEVPT2, CIM, IAO-localization
   Andreas Hansen         : Spin unrestricted coupled pair/coupled cluster methods
   Benjamin Helmich-Paris : CASSCF linear response (MC-RPA)
   Lee Huntington         : MR-EOM, pCC
   Robert Izsak           : Overlap fitted RIJCOSX, COSX-SCS-MP3, EOM
   Christian Kollmar      : KDIIS, OOCD, Brueckner-CCSD(T), CCSD density
   Simone Kossmann        : Meta GGA functionals, TD-DFT gradient, OOMP2, MP2 Hessian
   Martin Krupicka        : AUTO-CI
   Lucas Lang             : DCDCAS
   Dagmar Lenk            : GEPOL surface, SMD
   Dimitrios Liakos       : Extrapolation schemes; Compound Job, initial MDCI parallelization
   Dimitrios Manganas     : Further ROCIS development; embedding schemes
   Dimitrios Pantazis     : SARC Basis sets
   Taras Petrenko         : DFT Hessian,TD-DFT gradient, ASA, ECA, R-Raman, ABS, FL, XAS/XES, NRVS
   Peter Pinski           : DLPNO-MP2, DLPNO-MP2 Gradient
   Christoph Reimann      : Effective Core Potentials
   Marius Retegan         : Local ZFS, SOC
   Christoph Riplinger    : Optimizer, TS searches, QM/MM, DLPNO-CCSD(T), (RO)-DLPNO pert. Triples
   Tobias Risthaus        : Range-separated hybrids, TD-DFT gradient, RPA, STAB
   Michael Roemelt        : Original ROCIS implementation
   Masaaki Saitow         : Open-shell DLPNO-CCSD energy and density
   Barbara Sandhoefer     : DKH picture change effects
   Avijit Sen             : IP-ROCIS
   Kantharuban Sivalingam : CASSCF convergence, NEVPT2, FIC-MRCI
   Bernardo de Souza      : ESD, SOC TD-DFT
   Georgi Stoychev        : AutoAux, RI-MP2 NMR
   Willem Van den Heuvel  : Paramagnetic NMR
   Boris Wezisla          : Elementary symmetry handling
   Frank Wennmohs         : Technical directorship


 We gratefully acknowledge several colleagues who have allowed us to
 interface, adapt or use parts of their codes:
   Stefan Grimme, W. Hujo, H. Kruse,             : VdW corrections, initial TS optimization,
                  C. Bannwarth                     DFT functionals, gCP, sTDA/sTD-DF
   Ed Valeev, F. Pavosevic, A. Kumar             : LibInt (2-el integral package), F12 methods
   Garnet Chan, S. Sharma, J. Yang, R. Olivares  : DMRG
   Ulf Ekstrom                                   : XCFun DFT Library
   Mihaly Kallay                                 : mrcc  (arbitrary order and MRCC methods)
   Andreas Klamt, Michael Diedenhofen            : otool_cosmo (COSMO solvation model)
   Jiri Pittner, Ondrej Demel                    : Mk-CCSD
   Frank Weinhold                                : gennbo (NPA and NBO analysis)
   Christopher J. Cramer and Donald G. Truhlar   : smd solvation model
   Lars Goerigk                                  : TD-DFT with DH, B97 family of functionals
   V. Asgeirsson, H. Jonsson                     : NEB implementation
   FAccTs GmbH                                   : IRC, NEB, NEB-TS, Multilevel, MM, QM/MM, CI optimization
   S Lehtola, MJT Oliveira, MAL Marques          : LibXC Library


 Your calculation uses the libint2 library for the computation of 2-el integrals
 For citations please refer to: http://libint.valeyev.net

 Your ORCA version has been built with support for libXC version: 4.2.3
 For citations please refer to: https://tddft.org/programs/libxc/

 This ORCA versions uses:
   CBLAS   interface :  Fast vector & matrix operations
   LAPACKE interface :  Fast linear algebra routines
   SCALAPACK package :  Parallel linear algebra routines




***************************************
The coordinates will be read from file: init.xyz
***************************************


Your calculation utilizes the SMD solvation module
Please cite in your paper:
A.V. Marenich, C.J. Cramer, D.G. Truhlar J. Phys. Chem. B, 113, (2009), 6378 

Your calculation utilizes the semiempirical GFN2-xTB method
Please cite in your paper:
C. Bannwarth, Ehlert S., S. Grimme,  J. Chem. Theory Comput., 15, (2019), 1652.
   

----- Orbital basis set information -----
Your calculation utilizes the basis: def2-SVP
   F. Weigend and R. Ahlrichs, Phys. Chem. Chem. Phys. 7, 3297 (2005).

================================================================================
                                        WARNINGS
                       Please study these warnings very carefully!
================================================================================


WARNING: The environment variable RSH_COMMAND is not set!
  ===> : All Displacements for the Numerical Hessian calculation
         will be started on localhost

WARNING: Geometry Optimization
  ===> : Switching off AutoStart
         For restart on a previous wavefunction, please use MOREAD

WARNING: Found dipole moment calculation with XTB calculation
  ===> : Switching off dipole moment calculation


INFO   : the flag for use of LIBINT has been found!

================================================================================
                                       INPUT FILE
================================================================================
NAME = opt+numfreq.inp
|  1> ! xTB2 Opt NumFreq
|  2> 
|  3> *xyzfile 0 1 init.xyz
|  4> 
|  5> %cpcm
|  6>  smd true
|  7>  SMDsolvent "METHANOL"
|  8> end
|  9> 
| 10> %pal
| 11>  nprocs 6
| 12> end
| 13> 
| 14>                          ****END OF INPUT****
================================================================================

                       *****************************
                       * Geometry Optimization Run *
                       *****************************

Geometry optimization settings:
Update method            Update   .... BFGS
Choice of coordinates    CoordSys .... Z-matrix Internals
Initial Hessian          InHess   .... Almoef's Model

Convergence Tolerances:
Energy Change            TolE     ....  5.0000e-06 Eh
Max. Gradient            TolMAXG  ....  3.0000e-04 Eh/bohr
RMS Gradient             TolRMSG  ....  1.0000e-04 Eh/bohr
Max. Displacement        TolMAXD  ....  4.0000e-03 bohr
RMS Displacement         TolRMSD  ....  2.0000e-03 bohr
Strict Convergence                ....  False
------------------------------------------------------------------------------
                        ORCA OPTIMIZATION COORDINATE SETUP
------------------------------------------------------------------------------

The optimization will be done in new redundant internal coordinates
Making redundant internal coordinates   ...  (new redundants) done
Evaluating the initial hessian          ...  (Almloef) done
Evaluating the coordinates              ...  done
Calculating the B-matrix                .... done
Calculating the G-matrix                .... done
Diagonalizing the G-matrix              .... done
Small eigenvalue found = 2.925e-02
The first mode is                       ....   65
The number of degrees of freedom        ....   60

    -----------------------------------------------------------------
                    Redundant Internal Coordinates


    -----------------------------------------------------------------
         Definition                    Initial Value    Approx d2E/dq
    -----------------------------------------------------------------
      1. B(C   1,C   0)                  1.5254         0.380001   
      2. B(C   4,C   2)                  1.5263         0.378697   
      3. B(C   4,C   1)                  1.5253         0.380138   
      4. B(H   5,C   2)                  1.0912         0.358525   
      5. B(H   6,C   2)                  1.0915         0.358182   
      6. B(C   7,C   0)                  1.5258         0.379406   
      7. B(H   8,C   1)                  1.0926         0.356636   
      8. B(H   9,C   1)                  1.0916         0.358043   
      9. B(C  10,C   7)                  1.5344         0.367573   
     10. B(C  10,H   3)                  1.1054         0.340342   
     11. B(C  10,C   2)                  1.5314         0.371692   
     12. B(H  11,C   7)                  1.0921         0.357310   
     13. B(H  12,C   7)                  1.0926         0.356675   
     14. B(H  13,C   4)                  1.0909         0.358969   
     15. B(H  14,C   4)                  1.0915         0.358087   
     16. B(H  15,C   0)                  1.0920         0.357524   
     17. B(H  16,C   0)                  1.0920         0.357489   
     18. B(O  17,C  10)                  1.4226         0.496455   
     19. B(C  18,O  17)                  1.4040         0.531539   
     20. B(H  19,C  18)                  1.0974         0.350408   
     21. B(H  20,C  18)                  1.0887         0.361811   
     22. B(H  21,C  18)                  1.0959         0.352438   
     23. A(C   1,C   0,H  16)          110.4957         0.324840   
     24. A(C   7,C   0,H  16)          109.5560         0.324757   
     25. A(C   7,C   0,H  15)          108.7232         0.324762   
     26. A(H  15,C   0,H  16)          108.3652         0.290180   
     27. A(C   1,C   0,C   7)          110.3111         0.365380   
     28. A(C   1,C   0,H  15)          109.3439         0.324845   
     29. A(C   0,C   1,H   8)          109.3107         0.324713   
     30. A(H   8,C   1,H   9)          108.2153         0.290137   
     31. A(C   4,C   1,H   9)          109.9343         0.324942   
     32. A(C   0,C   1,H   9)          109.8489         0.324923   
     33. A(C   4,C   1,H   8)          109.5530         0.324732   
     34. A(C   0,C   1,C   4)          109.9504         0.365501   
     35. A(C   4,C   2,H   5)          110.1143         0.324811   
     36. A(C   4,C   2,C  10)          110.9339         0.363884   
     37. A(H   6,C   2,C  10)          108.2213         0.323766   
     38. A(H   5,C   2,H   6)          108.5158         0.290396   
     39. A(C   4,C   2,H   6)          110.3579         0.324760   
     40. A(H   5,C   2,C  10)          108.6293         0.323817   
     41. A(H  13,C   4,H  14)          108.5699         0.290440   
     42. A(C   1,C   4,H  14)          110.2697         0.324949   
     43. A(C   2,C   4,H  13)          108.3833         0.324877   
     44. A(C   1,C   4,H  13)          109.4415         0.325080   
     45. A(C   2,C   4,H  14)          109.4454         0.324746   
     46. A(C   1,C   4,C   2)          110.6808         0.365285   
     47. A(H  11,C   7,H  12)          107.1485         0.290049   
     48. A(C  10,C   7,H  12)          109.7303         0.322951   
     49. A(C   0,C   7,H  12)          110.8035         0.324635   
     50. A(C  10,C   7,H  11)          107.8107         0.323045   
     51. A(C   0,C   7,H  11)          110.3984         0.324730   
     52. A(C   0,C   7,C  10)          110.8348         0.363308   
     53. A(C   2,C  10,H   3)          109.5499         0.321067   
     54. A(H   3,C  10,C   7)          108.6089         0.320482   
     55. A(C   7,C  10,O  17)          112.9812         0.378121   
     56. A(H   3,C  10,O  17)          108.4774         0.334739   
     57. A(C   2,C  10,O  17)          107.2168         0.378851   
     58. A(C   2,C  10,C   7)          109.9565         0.362035   
     59. A(C  10,O  17,C  18)          115.2347         0.400709   
     60. A(H  19,C  18,H  21)          108.1352         0.288623   
     61. A(O  17,C  18,H  21)          112.2413         0.340547   
     62. A(H  19,C  18,H  20)          109.5467         0.289812   
     63. A(O  17,C  18,H  20)          106.2253         0.342046   
     64. A(H  20,C  18,H  21)          109.3281         0.290075   
     65. A(O  17,C  18,H  19)          111.3279         0.340218   
     66. D(H   9,C   1,C   0,H  16)     59.1479         0.011509   
     67. D(H   9,C   1,C   0,C   7)   -179.5604         0.011509   
     68. D(H   8,C   1,C   0,C   7)     61.8433         0.011509   
     69. D(H   9,C   1,C   0,H  15)    -60.0426         0.011509   
     70. D(C   4,C   1,C   0,H  15)     61.0653         0.011509   
     71. D(C   4,C   1,C   0,H  16)   -179.7442         0.011509   
     72. D(C   4,C   1,C   0,C   7)    -58.4525         0.011509   
     73. D(H   8,C   1,C   0,H  16)    -59.4484         0.011509   
     74. D(H   8,C   1,C   0,H  15)   -178.6389         0.011509   
     75. D(H  13,C   4,C   1,H   9)     59.7788         0.011517   
     76. D(C   1,C   4,C   2,C  10)    -57.4119         0.011434   
     77. D(H  13,C   4,C   2,H   5)    -57.6758         0.011434   
     78. D(H  13,C   4,C   1,H   8)    178.5730         0.011517   
     79. D(C   2,C   4,C   1,H   9)    179.1665         0.011517   
     80. D(C   1,C   4,C   2,H   6)     62.5244         0.011434   
     81. D(H  13,C   4,C   2,H   6)   -177.4524         0.011434   
     82. D(C   1,C   4,C   2,H   5)   -177.6990         0.011434   
     83. D(H  14,C   4,C   2,C  10)   -179.1455         0.011434   
     84. D(C   2,C   4,C   1,C   0)     58.1099         0.011517   
     85. D(H  14,C   4,C   2,H   6)    -59.2092         0.011434   
     86. D(H  14,C   4,C   2,H   5)     60.5674         0.011434   
     87. D(H  13,C   4,C   2,C  10)     62.6113         0.011434   
     88. D(C   2,C   4,C   1,H   8)    -62.0392         0.011517   
     89. D(H  14,C   4,C   1,H   9)    -59.5859         0.011517   
     90. D(H  14,C   4,C   1,C   0)    179.3574         0.011517   
     91. D(H  13,C   4,C   1,C   0)    -61.2779         0.011517   
     92. D(H  14,C   4,C   1,H   8)     59.2083         0.011517   
     93. D(H  11,C   7,C   0,C   1)    -61.1792         0.011475   
     94. D(C  10,C   7,C   0,H  16)   -179.9444         0.011475   
     95. D(C  10,C   7,C   0,H  15)    -61.6867         0.011475   
     96. D(C  10,C   7,C   0,C   1)     58.2064         0.011475   
     97. D(H  12,C   7,C   0,H  16)    -57.8719         0.011475   
     98. D(H  12,C   7,C   0,H  15)     60.3859         0.011475   
     99. D(H  12,C   7,C   0,C   1)   -179.7210         0.011475   
    100. D(H  11,C   7,C   0,H  16)     60.6699         0.011475   
    101. D(H  11,C   7,C   0,H  15)    178.9277         0.011475   
    102. D(O  17,C  10,C   7,H  12)    -59.6961         0.010810   
    103. D(O  17,C  10,C   7,H  11)   -176.0703         0.010810   
    104. D(O  17,C  10,C   7,C   0)     63.0013         0.010810   
    105. D(H   3,C  10,C   7,H  12)     60.7043         0.010810   
    106. D(H   3,C  10,C   7,H  11)    -55.6699         0.010810   
    107. D(H   3,C  10,C   7,C   0)   -176.5984         0.010810   
    108. D(C   2,C  10,C   7,H  12)   -179.4341         0.010810   
    109. D(C   2,C  10,C   7,H  11)     64.1917         0.010810   
    110. D(C   2,C  10,C   7,C   0)    -56.7368         0.010810   
    111. D(O  17,C  10,C   2,H   6)    171.8461         0.011038   
    112. D(O  17,C  10,C   2,H   5)     54.2141         0.011038   
    113. D(O  17,C  10,C   2,C   4)    -66.9515         0.011038   
    114. D(C   7,C  10,C   2,H   6)    -64.9668         0.011038   
    115. D(C   7,C  10,C   2,H   5)    177.4012         0.011038   
    116. D(C   7,C  10,C   2,C   4)     56.2357         0.011038   
    117. D(H   3,C  10,C   2,H   6)     54.3213         0.011038   
    118. D(H   3,C  10,C   2,H   5)    -63.3107         0.011038   
    119. D(H   3,C  10,C   2,C   4)    175.5237         0.011038   
    120. D(C  18,O  17,C  10,C   7)     74.8027         0.019477   
    121. D(C  18,O  17,C  10,H   3)    -45.6727         0.019477   
    122. D(C  18,O  17,C  10,C   2)   -163.8963         0.019477   
    123. D(H  21,C  18,O  17,C  10)    -69.5571         0.022443   
    124. D(H  20,C  18,O  17,C  10)    171.0092         0.022443   
    125. D(H  19,C  18,O  17,C  10)     51.8201         0.022443   
    -----------------------------------------------------------------

Number of atoms                         .... 22
Number of degrees of freedom            .... 125

         *************************************************************
         *                GEOMETRY OPTIMIZATION CYCLE   1            *
         *************************************************************
      -----------------------------------------------------------      
     |                   =====================                   |     
     |                           x T B                           |     
     |                   =====================                   |     
     |                         S. Grimme                         |     
     |          Mulliken Center for Theoretical Chemistry        |     
     |                    University of Bonn                     |     
      -----------------------------------------------------------      

   * xtb version 6.3.2 (30e43eb) compiled by 'schneider@apollo14' on 2020-08-08

   xtb is free software: you can redistribute it and/or modify it under
   the terms of the GNU Lesser General Public License as published by
   the Free Software Foundation, either version 3 of the License, or
   (at your option) any later version.
   
   xtb is distributed in the hope that it will be useful,
   but WITHOUT ANY WARRANTY; without even the implied warranty of
   MERCHANTABILITY or FITNESS FOR A PARTICULAR PURPOSE.  See the
   GNU Lesser General Public License for more details.
   
   Cite this work as:
   * S. Grimme, C. Bannwarth, P. Shushkov, J. Chem. Theory Comput., 2017,
     13, 1989-2009. DOI: 10.1021/acs.jctc.7b00118
   * C. Bannwarth, S. Ehlert and S. Grimme., J. Chem. Theory Comput., 2019,
     15, 1652-1671. DOI: 10.1021/acs.jctc.8b01176
   * P. Pracht, E. Caldeweyher, S. Ehlert, S. Grimme, ChemRxiv, 2019, preprint.
     DOI: 10.26434/chemrxiv.8326202.v1
   
   for GFN-FF:
   * S. Spicher and S. Grimme, Angew. Chem. Int. Ed., 2020,
     DOI: 10.1002/anie.202004239
   
   for DFT-D4:
   * E. Caldeweyher, C. Bannwarth and S. Grimme, J. Chem. Phys., 2017,
     147, 034112. DOI: 10.1063/1.4993215
   * E. Caldeweyher, S. Ehlert, A. Hansen, H. Neugebauer, S. Spicher,
     C. Bannwarth and S. Grimme, J. Chem. Phys., 2019, 150, 154122.
     DOI: 10.1063/1.5090222
   
   for sTDA-xTB:
   * S. Grimme and C. Bannwarth, J. Chem. Phys., 2016, 145, 054103.
     DOI: 10.1063/1.4959605
   
   in the mass-spec context:
   * V. Asgeirsson, C. Bauer and S. Grimme, Chem. Sci., 2017, 8, 4879.
     DOI: 10.1039/c7sc00601b
   * J. Koopman and S. Grimme, ACS Omega 2019, 4, 12, 15120-15133.
     DOI: 10.1021/acsomega.9b02011
   
   for metadynamics refer to:
   * S. Grimme, J. Chem. Theory Comput., 2019, 155, 2847-2862
     DOI: 10.1021/acs.jctc.9b00143
   
   with help from (in alphabetical order)
   C. Bannwarth, F. Bohle, G. Brandenburg, E. Caldeweyher, M. Checinski,
   S. Dohm, S. Ehlert, S. Ehrlich, F. März, H. Neugebauer, J. Pisarek,
   P. Pracht, P. Shushkov, and S. Spicher.
   
 * started run on 2021/11/10 at 03:44:22.505     

           -------------------------------------------------
          |                Calculation Setup                |
           -------------------------------------------------

          program call               : /opt/orca/otool_xtb opt+numfreq_XTB.xyz --grad -c 0 -u 0 -P 6 --namespace opt+numfreq --gbsa methanol
          calculation namespace      : opt+numfreq
          coordinate file            : opt+numfreq_XTB.xyz
          omp threads                :                     6
          number of atoms            :                    22
          number of electrons        :                    48
          charge                     :                     0
          spin                       :                   0.0
          first test random number   :      0.10420110570893

   ID    Z sym.   atoms
    1    6 C      1-3, 5, 8, 11, 19
    2    1 H      4, 6, 7, 9, 10, 12-17, 20-22
    3    8 O      18
########################################################################
[WARNING] Please study the warnings concerning your input carefully
-1- prog_main_parseArguments: Process number higher than OMP_NUM_THREADS, I hope you know what you are doing.
########################################################################

           -------------------------------------------------
          |                 G F N 2 - x T B                 |
           -------------------------------------------------

        Reference                      10.1021/acs.jctc.8b01176
      * Hamiltonian:
        H0-scaling (s, p, d)           1.850000    2.230000    2.230000
        zeta-weighting                 0.500000
      * Dispersion:
        s8                             2.700000
        a1                             0.520000
        a2                             5.000000
        s9                             5.000000
      * Repulsion:
        kExp                           1.500000    1.000000
        rExp                           1.000000
      * Coulomb:
        alpha                          2.000000
        third order                    shell-resolved
        anisotropic                    true
        a3                             3.000000
        a5                             4.000000
        cn-shift                       1.200000
        cn-exp                         4.000000
        max-rad                        5.000000

      * Solvation model:               GBSA
        Solvent                        methanol
        Parameter file                 internal GFN2-xTB/GBSA
        Dielectric constant                3.2700E+01
        Reference state                gsolv [1 M gas/solution]
        Free energy shift                  3.3569E-03 Eh       2.1065E+00 kcal/mol
        Temperature                        2.9815E+02 K
        Density                            7.9200E-01 kg/L
        Solvent mass                       3.2040E+01 g/mol
        Interaction kernel             Still
        Born radius scaling (c1)           1.6087E+00
        Born radii integrator          GBOBC
        Born offset                        5.6550E-04 a0       1.0686E-03 AA
        H-bond correction              true
        Ion screening                  false
        Surface tension                    1.0000E-05 Eh       1.5569E+01 dyn/cm
        Grid points                               230 per atom

          ...................................................
          :                      SETUP                      :
          :.................................................:
          :  # basis functions                  46          :
          :  # atomic orbitals                  46          :
          :  # shells                           30          :
          :  # electrons                        48          :
          :  max. iterations                   250          :
          :  Hamiltonian                  GFN2-xTB          :
          :  restarted?                      false          :
          :  GBSA solvation                   true          :
          :  PC potential                    false          :
          :  electronic temp.          300.0000000     K    :
          :  accuracy                    1.0000000          :
          :  -> integral cutoff          0.2500000E+02      :
          :  -> integral neglect         0.1000000E-07      :
          :  -> SCF convergence          0.1000000E-05 Eh   :
          :  -> wf. convergence          0.1000000E-03 e    :
          :  Broyden damping             0.4000000          :
          ...................................................

 iter      E             dE          RMSdq      gap      omega  full diag
   1    -26.4846645 -0.264847E+02  0.324E+00   11.40       0.0  T
   2    -26.5400187 -0.553541E-01  0.167E+00   11.08       1.0  T
   3    -26.5407958 -0.777099E-03  0.734E-01   11.15       1.0  T
   4    -26.5410083 -0.212587E-03  0.122E-01   11.17       1.0  T
   5    -26.5410925 -0.841453E-04  0.643E-02   11.19       1.0  T
   6    -26.5410950 -0.249290E-05  0.802E-03   11.19       2.7  T
   7    -26.5410952 -0.239607E-06  0.432E-03   11.19       4.9  T
   8    -26.5410953 -0.362931E-07  0.191E-03   11.19      11.1  T
   9    -26.5410953 -0.581969E-08  0.473E-04   11.19      45.1  T
  10    -26.5410953 -0.793367E-09  0.203E-04   11.19     105.0  T

   *** convergence criteria satisfied after 10 iterations ***

         #    Occupation            Energy/Eh            Energy/eV
      -------------------------------------------------------------
         1        2.0000           -0.6949379             -18.9102
       ...           ...                  ...                  ...
        18        2.0000           -0.4612604             -12.5515
        19        2.0000           -0.4484637             -12.2033
        20        2.0000           -0.4365513             -11.8792
        21        2.0000           -0.4234037             -11.5214
        22        2.0000           -0.4184588             -11.3868
        23        2.0000           -0.4125171             -11.2252
        24        2.0000           -0.3917791             -10.6609 (HOMO)
        25                          0.0196183               0.5338 (LUMO)
        26                          0.0811430               2.2080
        27                          0.0923635               2.5133
        28                          0.0973876               2.6501
        29                          0.1064799               2.8975
       ...                                ...                  ...
        46                          0.3083602               8.3909
      -------------------------------------------------------------
                  HL-Gap            0.4113974 Eh           11.1947 eV
             Fermi-level           -0.1860804 Eh           -5.0635 eV

 SCC (total)                   0 d,  0 h,  0 min,  0.026 sec
 SCC setup                      ...        0 min,  0.002 sec (  8.290%)
 Dispersion                     ...        0 min,  0.000 sec (  0.536%)
 classical contributions        ...        0 min,  0.001 sec (  4.733%)
 integral evaluation            ...        0 min,  0.004 sec ( 14.780%)
 iterations                     ...        0 min,  0.011 sec ( 40.708%)
 molecular gradient             ...        0 min,  0.008 sec ( 29.402%)
 printout                       ...        0 min,  0.000 sec (  1.479%)

         :::::::::::::::::::::::::::::::::::::::::::::::::::::
         ::                     SUMMARY                     ::
         :::::::::::::::::::::::::::::::::::::::::::::::::::::
         :: total energy             -26.215222824852 Eh    ::
         :: total w/o Gsasa/hb       -26.208778544445 Eh    ::
         :: gradient norm              0.004384304002 Eh/a0 ::
         :: HOMO-LUMO gap             11.194692260602 eV    ::
         ::.................................................::
         :: SCC energy               -26.541095267633 Eh    ::
         :: -> isotropic ES            0.023036442472 Eh    ::
         :: -> anisotropic ES          0.005384858329 Eh    ::
         :: -> anisotropic XC          0.009330919960 Eh    ::
         :: -> dispersion             -0.015429202337 Eh    ::
         :: -> Gsolv                  -0.008249625239 Eh    ::
         ::    -> Gborn               -0.001805344832 Eh    ::
         ::    -> Gsasa               -0.009316040302 Eh    ::
         ::    -> Ghb                 -0.000485169628 Eh    ::
         ::    -> Gshift               0.003356929523 Eh    ::
         :: repulsion energy           0.325784676807 Eh    ::
         :: add. restraining           0.000000000000 Eh    ::
         :: total charge               0.000000000000 e     ::
         :::::::::::::::::::::::::::::::::::::::::::::::::::::

           -------------------------------------------------
          |                Property Printout                |
           -------------------------------------------------

    * Orbital Energies and Occupations

         #    Occupation            Energy/Eh            Energy/eV
      -------------------------------------------------------------
         1        2.0000           -0.6949379             -18.9102
       ...           ...                  ...                  ...
        12        2.0000           -0.5137918             -13.9810
        13        2.0000           -0.4921639             -13.3925
        14        2.0000           -0.4904192             -13.3450
        15        2.0000           -0.4761357             -12.9563
        16        2.0000           -0.4716031             -12.8330
        17        2.0000           -0.4657008             -12.6724
        18        2.0000           -0.4612604             -12.5515
        19        2.0000           -0.4484637             -12.2033
        20        2.0000           -0.4365513             -11.8792
        21        2.0000           -0.4234037             -11.5214
        22        2.0000           -0.4184588             -11.3868
        23        2.0000           -0.4125171             -11.2252
        24        2.0000           -0.3917791             -10.6609 (HOMO)
        25                          0.0196183               0.5338 (LUMO)
        26                          0.0811430               2.2080
        27                          0.0923635               2.5133
        28                          0.0973876               2.6501
        29                          0.1064799               2.8975
        30                          0.1105405               3.0080
        31                          0.1160619               3.1582
        32                          0.1304146               3.5488
        33                          0.1466235               3.9898
        34                          0.1579029               4.2968
        35                          0.1826137               4.9692
       ...                                ...                  ...
        46                          0.3083602               8.3909
      -------------------------------------------------------------
                  HL-Gap            0.4113974 Eh           11.1947 eV
             Fermi-level           -0.1860804 Eh           -5.0635 eV

     #   Z          covCN         q      C6AA      α(0)
     1   6 C        3.806    -0.056    21.573     6.612
     2   6 C        3.806    -0.060    21.657     6.625
     3   6 C        3.806    -0.066    21.752     6.639
     4   1 H        0.922     0.003     3.006     2.711
     5   6 C        3.806    -0.059    21.633     6.621
     6   1 H        0.924     0.041     2.430     2.438
     7   1 H        0.924     0.041     2.436     2.441
     8   6 C        3.805    -0.067    21.787     6.645
     9   1 H        0.924     0.036     2.505     2.475
    10   1 H        0.924     0.034     2.536     2.490
    11   6 C        3.745     0.117    18.733     6.174
    12   1 H        0.924     0.037     2.489     2.467
    13   1 H        0.924     0.030     2.591     2.517
    14   1 H        0.924     0.044     2.392     2.419
    15   1 H        0.924     0.035     2.521     2.483
    16   1 H        0.924     0.040     2.455     2.450
    17   1 H        0.924     0.032     2.565     2.504
    18   8 O        1.700    -0.339    19.684     5.990
    19   6 C        3.642     0.040    20.246     6.469
    20   1 H        0.924     0.027     2.628     2.535
    21   1 H        0.925     0.060     2.199     2.319
    22   1 H        0.924     0.031     2.572     2.508

 Mol. C6AA /au·bohr⁶  :       3440.679944
 Mol. C8AA /au·bohr⁸  :      72592.840263
 Mol. α(0) /au        :         86.533471


Wiberg/Mayer (AO) data.
largest (>0.10) Wiberg bond orders for each atom

 ---------------------------------------------------------------------------
     #   Z sym  total        # sym  WBO       # sym  WBO       # sym  WBO
 ---------------------------------------------------------------------------
     1   6 C    3.998 --     8 C    1.009     2 C    1.009    17 H    0.977
                            16 H    0.977
     2   6 C    3.998 --     5 C    1.010     1 C    1.009    10 H    0.977
                             9 H    0.977
     3   6 C    3.996 --     5 C    1.009    11 C    0.991     6 H    0.976
                             7 H    0.976
     4   1 H    1.000 --    11 C    0.959
     5   6 C    3.997 --     2 C    1.010     3 C    1.009    15 H    0.977
                            14 H    0.977
     6   1 H    0.998 --     3 C    0.976
     7   1 H    0.998 --     3 C    0.976
     8   6 C    3.998 --     1 C    1.009    11 C    0.987    12 H    0.975
                            13 H    0.974
     9   1 H    0.999 --     2 C    0.977
    10   1 H    0.999 --     2 C    0.977
    11   6 C    3.949 --     3 C    0.991     8 C    0.987    18 O    0.964
                             4 H    0.959
    12   1 H    0.999 --     8 C    0.975
    13   1 H    0.999 --     8 C    0.974
    14   1 H    0.998 --     5 C    0.977
    15   1 H    0.999 --     5 C    0.977
    16   1 H    0.998 --     1 C    0.977
    17   1 H    0.999 --     1 C    0.977
    18   8 O    2.064 --    19 C    0.998    11 C    0.964
    19   6 C    3.953 --    18 O    0.998    21 H    0.979    22 H    0.976
                            20 H    0.976
    20   1 H    0.999 --    19 C    0.976
    21   1 H    0.996 --    19 C    0.979
    22   1 H    0.999 --    19 C    0.976
 ---------------------------------------------------------------------------

Topologies differ in total number of bonds
Writing topology from bond orders to xtbtopo.mol

molecular dipole:
                 x           y           z       tot (Debye)
 q only:       -0.248      -0.227       0.135
   full:       -0.428      -0.330       0.012       1.375
molecular quadrupole (traceless):
                xx          xy          yy          xz          yz          zz
 q only:       -1.327      -0.599      -0.913       0.586       1.991       2.239
  q+dip:       -0.549      -0.971      -1.186       0.443       1.581       1.735
   full:       -0.959      -0.895      -1.195       0.683       1.997       2.154


           -------------------------------------------------
          | TOTAL ENERGY              -26.215222824852 Eh   |
          | GRADIENT NORM               0.004384304002 Eh/α |
          | HOMO-LUMO GAP              11.194692260602 eV   |
           -------------------------------------------------

------------------------------------------------------------------------
 * finished run on 2021/11/10 at 03:44:22.546     
------------------------------------------------------------------------
 total:
 * wall-time:     0 d,  0 h,  0 min,  0.041 sec
 *  cpu-time:     0 d,  0 h,  0 min,  0.322 sec
 * ratio c/w:     7.901 speedup
 SCF:
 * wall-time:     0 d,  0 h,  0 min,  0.026 sec
 *  cpu-time:     0 d,  0 h,  0 min,  0.201 sec
 * ratio c/w:     7.630 speedup


-------------------------   --------------------
FINAL SINGLE POINT ENERGY       -26.215222824850
-------------------------   --------------------

------------------------------------------------------------------------------
                         ORCA GEOMETRY RELAXATION STEP
------------------------------------------------------------------------------

Reading the OPT-File                    .... done
Getting information on internals        .... done
Copying old internal coords+grads       .... done
Making the new internal coordinates     .... (new redundants).... done
Validating the new internal coordinates .... (new redundants).... done
Calculating the B-matrix                .... done
Calculating the G,G- and P matrices     .... done
Transforming gradient to internals      .... done
Projecting the internal gradient        .... done
Number of atoms                         ....  22
Number of internal coordinates          .... 125
Current Energy                          ....   -26.215222825 Eh
Current gradient norm                   ....     0.004384304 Eh/bohr
Maximum allowed component of the step   ....  0.300
Current trust radius                    ....  0.300
Evaluating the initial hessian          ....  (Almloef) done
Projecting the Hessian                  .... done
Forming the augmented Hessian           .... done
Diagonalizing the augmented Hessian     .... done
Last element of RFO vector              ....  0.999798489
Lowest eigenvalues of augmented Hessian:
 -0.000050765  0.014234943  0.014477890  0.016376921  0.019476578
Length of the computed step             ....  0.020078466
The final length of the internal step   ....  0.020078466
Converting the step to cartesian space:
 Initial RMS(Int)=    0.0017958726
Transforming coordinates:
 Iter   0:  RMS(Cart)=    0.0038368292 RMS(Int)=    0.0017961705
 Iter   1:  RMS(Cart)=    0.0000089182 RMS(Int)=    0.0000062157
 Iter   2:  RMS(Cart)=    0.0000000557 RMS(Int)=    0.0000000308
done
Storing new coordinates                 .... done

                                .--------------------.
          ----------------------|Geometry convergence|-------------------------
          Item                value                   Tolerance       Converged
          ---------------------------------------------------------------------
          RMS gradient        0.0002677235            0.0001000000      NO
          MAX gradient        0.0012066041            0.0003000000      NO
          RMS step            0.0017958726            0.0020000000      YES
          MAX step            0.0067737201            0.0040000000      NO
          ........................................................
          Max(Bonds)      0.0011      Max(Angles)    0.30
          Max(Dihed)        0.39      Max(Improp)    0.00
          ---------------------------------------------------------------------

The optimization has not yet converged - more geometry cycles are needed


    ---------------------------------------------------------------------------
                         Redundant Internal Coordinates
                            (Angstroem and degrees)

        Definition                    Value    dE/dq     Step     New-Value
    ----------------------------------------------------------------------------
     1. B(C   1,C   0)                1.5254 -0.000026 -0.0000    1.5253   
     2. B(C   4,C   2)                1.5263  0.000083 -0.0002    1.5261   
     3. B(C   4,C   1)                1.5253 -0.000179  0.0002    1.5254   
     4. B(H   5,C   2)                1.0912 -0.000005  0.0000    1.0912   
     5. B(H   6,C   2)                1.0915 -0.000039  0.0001    1.0915   
     6. B(C   7,C   0)                1.5258  0.000317 -0.0003    1.5255   
     7. B(H   8,C   1)                1.0926 -0.000104  0.0002    1.0928   
     8. B(H   9,C   1)                1.0916 -0.000069  0.0001    1.0917   
     9. B(C  10,C   7)                1.5344 -0.000735  0.0011    1.5356   
    10. B(C  10,H   3)                1.1054  0.000152 -0.0002    1.1051   
    11. B(C  10,C   2)                1.5314 -0.000087  0.0002    1.5316   
    12. B(H  11,C   7)                1.0921  0.000012 -0.0000    1.0921   
    13. B(H  12,C   7)                1.0926  0.000247 -0.0004    1.0922   
    14. B(H  13,C   4)                1.0909 -0.000148  0.0002    1.0911   
    15. B(H  14,C   4)                1.0915 -0.000089  0.0001    1.0917   
    16. B(H  15,C   0)                1.0920 -0.000058  0.0001    1.0920   
    17. B(H  16,C   0)                1.0920 -0.000037  0.0001    1.0920   
    18. B(O  17,C  10)                1.4226  0.000292 -0.0003    1.4223   
    19. B(C  18,O  17)                1.4040 -0.000474  0.0005    1.4045   
    20. B(H  19,C  18)                1.0974 -0.000191  0.0003    1.0977   
    21. B(H  20,C  18)                1.0887  0.000162 -0.0002    1.0885   
    22. B(H  21,C  18)                1.0959 -0.000132  0.0002    1.0961   
    23. A(C   1,C   0,H  16)          110.50  0.000216   -0.07    110.42   
    24. A(C   7,C   0,H  16)          109.56 -0.000321    0.09    109.65   
    25. A(C   7,C   0,H  15)          108.72 -0.000250    0.09    108.81   
    26. A(H  15,C   0,H  16)          108.37  0.000104   -0.05    108.32   
    27. A(C   1,C   0,C   7)          110.31  0.000145    0.01    110.32   
    28. A(C   1,C   0,H  15)          109.34  0.000098   -0.06    109.28   
    29. A(C   0,C   1,H   8)          109.31 -0.000138    0.07    109.38   
    30. A(H   8,C   1,H   9)          108.22  0.000140   -0.09    108.13   
    31. A(C   4,C   1,H   9)          109.93  0.000061   -0.02    109.91   
    32. A(C   0,C   1,H   9)          109.85 -0.000015    0.02    109.87   
    33. A(C   4,C   1,H   8)          109.55  0.000064    0.01    109.57   
    34. A(C   0,C   1,C   4)          109.95 -0.000108    0.01    109.96   
    35. A(C   4,C   2,H   5)          110.11  0.000265   -0.10    110.01   
    36. A(C   4,C   2,C  10)          110.93  0.000042   -0.01    110.93   
    37. A(H   6,C   2,C  10)          108.22 -0.000414    0.14    108.36   
    38. A(H   5,C   2,H   6)          108.52 -0.000026    0.01    108.53   
    39. A(C   4,C   2,H   6)          110.36  0.000334   -0.11    110.24   
    40. A(H   5,C   2,C  10)          108.63 -0.000221    0.08    108.71   
    41. A(H  13,C   4,H  14)          108.57  0.000172   -0.10    108.47   
    42. A(C   1,C   4,H  14)          110.27  0.000066   -0.01    110.26   
    43. A(C   2,C   4,H  13)          108.38 -0.000160    0.07    108.45   
    44. A(C   1,C   4,H  13)          109.44  0.000037   -0.00    109.44   
    45. A(C   2,C   4,H  14)          109.45 -0.000095    0.04    109.49   
    46. A(C   1,C   4,C   2)          110.68 -0.000021   -0.00    110.68   
    47. A(H  11,C   7,H  12)          107.15 -0.000481    0.25    107.40   
    48. A(C  10,C   7,H  12)          109.73 -0.000396    0.13    109.86   
    49. A(C   0,C   7,H  12)          110.80  0.000685   -0.25    110.55   
    50. A(C  10,C   7,H  11)          107.81 -0.000261    0.09    107.90   
    51. A(C   0,C   7,H  11)          110.40  0.000540   -0.18    110.22   
    52. A(C   0,C   7,C  10)          110.83 -0.000125   -0.02    110.81   
    53. A(C   2,C  10,H   3)          109.55  0.000327   -0.16    109.39   
    54. A(H   3,C  10,C   7)          108.61 -0.000435    0.13    108.73   
    55. A(C   7,C  10,O  17)          112.98 -0.000080    0.06    113.04   
    56. A(H   3,C  10,O  17)          108.48  0.000241   -0.09    108.39   
    57. A(C   2,C  10,O  17)          107.22 -0.000227    0.06    107.28   
    58. A(C   2,C  10,C   7)          109.96  0.000198   -0.01    109.95   
    59. A(C  10,O  17,C  18)          115.23  0.000256   -0.04    115.20   
    60. A(H  19,C  18,H  21)          108.14 -0.001207    0.30    108.44   
    61. A(O  17,C  18,H  21)          112.24  0.000165   -0.02    112.23   
    62. A(H  19,C  18,H  20)          109.55  0.000058   -0.05    109.49   
    63. A(O  17,C  18,H  20)          106.23  0.000025   -0.04    106.18   
    64. A(H  20,C  18,H  21)          109.33  0.000323   -0.11    109.22   
    65. A(O  17,C  18,H  19)          111.33  0.000672   -0.10    111.23   
    66. D(H   9,C   1,C   0,H  16)     59.15  0.000176   -0.08     59.07   
    67. D(H   9,C   1,C   0,C   7)   -179.56  0.000012   -0.01   -179.57   
    68. D(H   8,C   1,C   0,C   7)     61.84 -0.000066    0.04     61.89   
    69. D(H   9,C   1,C   0,H  15)    -60.04 -0.000145    0.06    -59.98   
    70. D(C   4,C   1,C   0,H  15)     61.07 -0.000149    0.05     61.11   
    71. D(C   4,C   1,C   0,H  16)   -179.74  0.000172   -0.10   -179.84   
    72. D(C   4,C   1,C   0,C   7)    -58.45  0.000008   -0.02    -58.48   
    73. D(H   8,C   1,C   0,H  16)    -59.45  0.000098   -0.03    -59.48   
    74. D(H   8,C   1,C   0,H  15)   -178.64 -0.000223    0.11   -178.53   
    75. D(H  13,C   4,C   1,H   9)     59.78  0.000053   -0.05     59.73   
    76. D(C   1,C   4,C   2,C  10)    -57.41  0.000098   -0.02    -57.43   
    77. D(H  13,C   4,C   2,H   5)    -57.68  0.000106   -0.01    -57.69   
    78. D(H  13,C   4,C   1,H   8)    178.57  0.000300   -0.16    178.41   
    79. D(C   2,C   4,C   1,H   9)    179.17 -0.000134    0.03    179.20   
    80. D(C   1,C   4,C   2,H   6)     62.52 -0.000174    0.07     62.60   
    81. D(H  13,C   4,C   2,H   6)   -177.45 -0.000242    0.11   -177.34   
    82. D(C   1,C   4,C   2,H   5)   -177.70  0.000174   -0.05   -177.75   
    83. D(H  14,C   4,C   2,C  10)   -179.15  0.000091   -0.03   -179.18   
    84. D(C   2,C   4,C   1,C   0)     58.11 -0.000084    0.02     58.13   
    85. D(H  14,C   4,C   2,H   6)    -59.21 -0.000181    0.06    -59.15   
    86. D(H  14,C   4,C   2,H   5)     60.57  0.000167   -0.06     60.51   
    87. D(H  13,C   4,C   2,C  10)     62.61  0.000030    0.02     62.63   
    88. D(C   2,C   4,C   1,H   8)    -62.04  0.000113   -0.08    -62.12   
    89. D(H  14,C   4,C   1,H   9)    -59.59 -0.000222    0.08    -59.51   
    90. D(H  14,C   4,C   1,C   0)    179.36 -0.000173    0.07    179.43   
    91. D(H  13,C   4,C   1,C   0)    -61.28  0.000103   -0.06    -61.34   
    92. D(H  14,C   4,C   1,H   8)     59.21  0.000024   -0.03     59.17   
    93. D(H  11,C   7,C   0,C   1)    -61.18  0.000014    0.01    -61.17   
    94. D(C  10,C   7,C   0,H  16)   -179.94  0.000110   -0.03   -179.97   
    95. D(C  10,C   7,C   0,H  15)    -61.69 -0.000095    0.02    -61.67   
    96. D(C  10,C   7,C   0,C   1)     58.21 -0.000043   -0.00     58.20   
    97. D(H  12,C   7,C   0,H  16)    -57.87 -0.000010   -0.05    -57.92   
    98. D(H  12,C   7,C   0,H  15)     60.39 -0.000215   -0.01     60.38   
    99. D(H  12,C   7,C   0,C   1)   -179.72 -0.000163   -0.03   -179.75   
   100. D(H  11,C   7,C   0,H  16)     60.67  0.000167   -0.01     60.66   
   101. D(H  11,C   7,C   0,H  15)    178.93 -0.000038    0.03    178.96   
   102. D(O  17,C  10,C   7,H  12)    -59.70 -0.000596    0.36    -59.34   
   103. D(O  17,C  10,C   7,H  11)   -176.07  0.000336   -0.06   -176.13   
   104. D(O  17,C  10,C   7,C   0)     63.00 -0.000086    0.12     63.12   
   105. D(H   3,C  10,C   7,H  12)     60.70 -0.000642    0.37     61.08   
   106. D(H   3,C  10,C   7,H  11)    -55.67  0.000289   -0.04    -55.71   
   107. D(H   3,C  10,C   7,C   0)   -176.60 -0.000132    0.13   -176.47   
   108. D(C   2,C  10,C   7,H  12)   -179.43 -0.000392    0.25   -179.19   
   109. D(C   2,C  10,C   7,H  11)     64.19  0.000540   -0.17     64.02   
   110. D(C   2,C  10,C   7,C   0)    -56.74  0.000118    0.01    -56.73   
   111. D(O  17,C  10,C   2,H   6)    171.85 -0.000046   -0.05    171.80   
   112. D(O  17,C  10,C   2,H   5)     54.21  0.000336   -0.18     54.03   
   113. D(O  17,C  10,C   2,C   4)    -66.95  0.000125   -0.11    -67.06   
   114. D(C   7,C  10,C   2,H   6)    -64.97 -0.000168    0.06    -64.90   
   115. D(C   7,C  10,C   2,H   5)    177.40  0.000213   -0.07    177.33   
   116. D(C   7,C  10,C   2,C   4)     56.24  0.000003    0.01     56.24   
   117. D(H   3,C  10,C   2,H   6)     54.32 -0.000380    0.11     54.44   
   118. D(H   3,C  10,C   2,H   5)    -63.31  0.000002   -0.02    -63.33   
   119. D(H   3,C  10,C   2,C   4)    175.52 -0.000209    0.06    175.58   
   120. D(C  18,O  17,C  10,C   7)     74.80 -0.000173    0.07     74.87   
   121. D(C  18,O  17,C  10,H   3)    -45.67  0.000259   -0.07    -45.74   
   122. D(C  18,O  17,C  10,C   2)   -163.90 -0.000131    0.14   -163.76   
   123. D(H  21,C  18,O  17,C  10)    -69.56  0.000394    0.08    -69.48   
   124. D(H  20,C  18,O  17,C  10)    171.01 -0.000109    0.25    171.26   
   125. D(H  19,C  18,O  17,C  10)     51.82 -0.000565    0.39     52.21   
    ----------------------------------------------------------------------------

         *************************************************************
         *                GEOMETRY OPTIMIZATION CYCLE   2            *
         *************************************************************
      -----------------------------------------------------------      
     |                   =====================                   |     
     |                           x T B                           |     
     |                   =====================                   |     
     |                         S. Grimme                         |     
     |          Mulliken Center for Theoretical Chemistry        |     
     |                    University of Bonn                     |     
      -----------------------------------------------------------      

   * xtb version 6.3.2 (30e43eb) compiled by 'schneider@apollo14' on 2020-08-08

   xtb is free software: you can redistribute it and/or modify it under
   the terms of the GNU Lesser General Public License as published by
   the Free Software Foundation, either version 3 of the License, or
   (at your option) any later version.
   
   xtb is distributed in the hope that it will be useful,
   but WITHOUT ANY WARRANTY; without even the implied warranty of
   MERCHANTABILITY or FITNESS FOR A PARTICULAR PURPOSE.  See the
   GNU Lesser General Public License for more details.
   
   Cite this work as:
   * S. Grimme, C. Bannwarth, P. Shushkov, J. Chem. Theory Comput., 2017,
     13, 1989-2009. DOI: 10.1021/acs.jctc.7b00118
   * C. Bannwarth, S. Ehlert and S. Grimme., J. Chem. Theory Comput., 2019,
     15, 1652-1671. DOI: 10.1021/acs.jctc.8b01176
   * P. Pracht, E. Caldeweyher, S. Ehlert, S. Grimme, ChemRxiv, 2019, preprint.
     DOI: 10.26434/chemrxiv.8326202.v1
   
   for GFN-FF:
   * S. Spicher and S. Grimme, Angew. Chem. Int. Ed., 2020,
     DOI: 10.1002/anie.202004239
   
   for DFT-D4:
   * E. Caldeweyher, C. Bannwarth and S. Grimme, J. Chem. Phys., 2017,
     147, 034112. DOI: 10.1063/1.4993215
   * E. Caldeweyher, S. Ehlert, A. Hansen, H. Neugebauer, S. Spicher,
     C. Bannwarth and S. Grimme, J. Chem. Phys., 2019, 150, 154122.
     DOI: 10.1063/1.5090222
   
   for sTDA-xTB:
   * S. Grimme and C. Bannwarth, J. Chem. Phys., 2016, 145, 054103.
     DOI: 10.1063/1.4959605
   
   in the mass-spec context:
   * V. Asgeirsson, C. Bauer and S. Grimme, Chem. Sci., 2017, 8, 4879.
     DOI: 10.1039/c7sc00601b
   * J. Koopman and S. Grimme, ACS Omega 2019, 4, 12, 15120-15133.
     DOI: 10.1021/acsomega.9b02011
   
   for metadynamics refer to:
   * S. Grimme, J. Chem. Theory Comput., 2019, 155, 2847-2862
     DOI: 10.1021/acs.jctc.9b00143
   
   with help from (in alphabetical order)
   C. Bannwarth, F. Bohle, G. Brandenburg, E. Caldeweyher, M. Checinski,
   S. Dohm, S. Ehlert, S. Ehrlich, F. März, H. Neugebauer, J. Pisarek,
   P. Pracht, P. Shushkov, and S. Spicher.
   
 * started run on 2021/11/10 at 03:44:22.805     

           -------------------------------------------------
          |                Calculation Setup                |
           -------------------------------------------------

          program call               : /opt/orca/otool_xtb opt+numfreq_XTB.xyz --grad -c 0 -u 0 -P 6 --namespace opt+numfreq --gbsa methanol
          calculation namespace      : opt+numfreq
          coordinate file            : opt+numfreq_XTB.xyz
          omp threads                :                     6
          number of atoms            :                    22
          number of electrons        :                    48
          charge                     :                     0
          spin                       :                   0.0
          first test random number   :      0.63982213276339

   ID    Z sym.   atoms
    1    6 C      1-3, 5, 8, 11, 19
    2    1 H      4, 6, 7, 9, 10, 12-17, 20-22
    3    8 O      18
########################################################################
[WARNING] Please study the warnings concerning your input carefully
-1- prog_main_parseArguments: Process number higher than OMP_NUM_THREADS, I hope you know what you are doing.
########################################################################

           -------------------------------------------------
          |                 G F N 2 - x T B                 |
           -------------------------------------------------

        Reference                      10.1021/acs.jctc.8b01176
      * Hamiltonian:
        H0-scaling (s, p, d)           1.850000    2.230000    2.230000
        zeta-weighting                 0.500000
      * Dispersion:
        s8                             2.700000
        a1                             0.520000
        a2                             5.000000
        s9                             5.000000
      * Repulsion:
        kExp                           1.500000    1.000000
        rExp                           1.000000
      * Coulomb:
        alpha                          2.000000
        third order                    shell-resolved
        anisotropic                    true
        a3                             3.000000
        a5                             4.000000
        cn-shift                       1.200000
        cn-exp                         4.000000
        max-rad                        5.000000

      * Solvation model:               GBSA
        Solvent                        methanol
        Parameter file                 internal GFN2-xTB/GBSA
        Dielectric constant                3.2700E+01
        Reference state                gsolv [1 M gas/solution]
        Free energy shift                  3.3569E-03 Eh       2.1065E+00 kcal/mol
        Temperature                        2.9815E+02 K
        Density                            7.9200E-01 kg/L
        Solvent mass                       3.2040E+01 g/mol
        Interaction kernel             Still
        Born radius scaling (c1)           1.6087E+00
        Born radii integrator          GBOBC
        Born offset                        5.6550E-04 a0       1.0686E-03 AA
        H-bond correction              true
        Ion screening                  false
        Surface tension                    1.0000E-05 Eh       1.5569E+01 dyn/cm
        Grid points                               230 per atom

          ...................................................
          :                      SETUP                      :
          :.................................................:
          :  # basis functions                  46          :
          :  # atomic orbitals                  46          :
          :  # shells                           30          :
          :  # electrons                        48          :
          :  max. iterations                   250          :
          :  Hamiltonian                  GFN2-xTB          :
          :  restarted?                      false          :
          :  GBSA solvation                   true          :
          :  PC potential                    false          :
          :  electronic temp.          300.0000000     K    :
          :  accuracy                    1.0000000          :
          :  -> integral cutoff          0.2500000E+02      :
          :  -> integral neglect         0.1000000E-07      :
          :  -> SCF convergence          0.1000000E-05 Eh   :
          :  -> wf. convergence          0.1000000E-03 e    :
          :  Broyden damping             0.4000000          :
          ...................................................

 iter      E             dE          RMSdq      gap      omega  full diag
   1    -26.4845593 -0.264846E+02  0.324E+00   11.39       0.0  T
   2    -26.5399117 -0.553524E-01  0.167E+00   11.08       1.0  T
   3    -26.5406866 -0.774953E-03  0.735E-01   11.15       1.0  T
   4    -26.5408985 -0.211824E-03  0.122E-01   11.16       1.0  T
   5    -26.5409825 -0.840514E-04  0.642E-02   11.18       1.0  T
   6    -26.5409850 -0.246947E-05  0.797E-03   11.19       2.7  T
   7    -26.5409852 -0.237578E-06  0.429E-03   11.19       5.0  T
   8    -26.5409853 -0.358810E-07  0.190E-03   11.19      11.2  T
   9    -26.5409853 -0.571190E-08  0.475E-04   11.19      44.9  T
  10    -26.5409853 -0.799375E-09  0.202E-04   11.19     105.5  T

   *** convergence criteria satisfied after 10 iterations ***

         #    Occupation            Energy/Eh            Energy/eV
      -------------------------------------------------------------
         1        2.0000           -0.6949107             -18.9095
       ...           ...                  ...                  ...
        18        2.0000           -0.4612761             -12.5520
        19        2.0000           -0.4484036             -12.2017
        20        2.0000           -0.4365416             -11.8789
        21        2.0000           -0.4234268             -11.5220
        22        2.0000           -0.4184811             -11.3875
        23        2.0000           -0.4124312             -11.2228
        24        2.0000           -0.3918344             -10.6624 (HOMO)
        25                          0.0193854               0.5275 (LUMO)
        26                          0.0812367               2.2106
        27                          0.0912699               2.4836
        28                          0.0977165               2.6590
        29                          0.1070427               2.9128
       ...                                ...                  ...
        46                          0.3081353               8.3848
      -------------------------------------------------------------
                  HL-Gap            0.4112198 Eh           11.1899 eV
             Fermi-level           -0.1862245 Eh           -5.0674 eV

 SCC (total)                   0 d,  0 h,  0 min,  0.020 sec
 SCC setup                      ...        0 min,  0.001 sec (  5.225%)
 Dispersion                     ...        0 min,  0.000 sec (  0.992%)
 classical contributions        ...        0 min,  0.000 sec (  0.593%)
 integral evaluation            ...        0 min,  0.003 sec ( 15.048%)
 iterations                     ...        0 min,  0.011 sec ( 56.943%)
 molecular gradient             ...        0 min,  0.004 sec ( 20.227%)
 printout                       ...        0 min,  0.000 sec (  0.894%)

         :::::::::::::::::::::::::::::::::::::::::::::::::::::
         ::                     SUMMARY                     ::
         :::::::::::::::::::::::::::::::::::::::::::::::::::::
         :: total energy             -26.215261480687 Eh    ::
         :: total w/o Gsasa/hb       -26.208816019517 Eh    ::
         :: gradient norm              0.002801758929 Eh/a0 ::
         :: HOMO-LUMO gap             11.189859928500 eV    ::
         ::.................................................::
         :: SCC energy               -26.540985266115 Eh    ::
         :: -> isotropic ES            0.023054881084 Eh    ::
         :: -> anisotropic ES          0.005393236598 Eh    ::
         :: -> anisotropic XC          0.009339511040 Eh    ::
         :: -> dispersion             -0.015423329897 Eh    ::
         :: -> Gsolv                  -0.008255679883 Eh    ::
         ::    -> Gborn               -0.001810218714 Eh    ::
         ::    -> Gsasa               -0.009317076556 Eh    ::
         ::    -> Ghb                 -0.000485314136 Eh    ::
         ::    -> Gshift               0.003356929523 Eh    ::
         :: repulsion energy           0.325636038907 Eh    ::
         :: add. restraining           0.000000000000 Eh    ::
         :: total charge              -0.000000000000 e     ::
         :::::::::::::::::::::::::::::::::::::::::::::::::::::

           -------------------------------------------------
          |                Property Printout                |
           -------------------------------------------------

    * Orbital Energies and Occupations

         #    Occupation            Energy/Eh            Energy/eV
      -------------------------------------------------------------
         1        2.0000           -0.6949107             -18.9095
       ...           ...                  ...                  ...
        12        2.0000           -0.5137695             -13.9804
        13        2.0000           -0.4922611             -13.3951
        14        2.0000           -0.4903839             -13.3440
        15        2.0000           -0.4761105             -12.9556
        16        2.0000           -0.4716099             -12.8332
        17        2.0000           -0.4656265             -12.6703
        18        2.0000           -0.4612761             -12.5520
        19        2.0000           -0.4484036             -12.2017
        20        2.0000           -0.4365416             -11.8789
        21        2.0000           -0.4234268             -11.5220
        22        2.0000           -0.4184811             -11.3875
        23        2.0000           -0.4124312             -11.2228
        24        2.0000           -0.3918344             -10.6624 (HOMO)
        25                          0.0193854               0.5275 (LUMO)
        26                          0.0812367               2.2106
        27                          0.0912699               2.4836
        28                          0.0977165               2.6590
        29                          0.1070427               2.9128
        30                          0.1107810               3.0145
        31                          0.1159809               3.1560
        32                          0.1298361               3.5330
        33                          0.1463324               3.9819
        34                          0.1576692               4.2904
        35                          0.1829119               4.9773
       ...                                ...                  ...
        46                          0.3081353               8.3848
      -------------------------------------------------------------
                  HL-Gap            0.4112198 Eh           11.1899 eV
             Fermi-level           -0.1862245 Eh           -5.0674 eV

     #   Z          covCN         q      C6AA      α(0)
     1   6 C        3.806    -0.056    21.573     6.612
     2   6 C        3.806    -0.060    21.657     6.625
     3   6 C        3.806    -0.066    21.752     6.639
     4   1 H        0.922     0.003     3.002     2.710
     5   6 C        3.806    -0.059    21.632     6.621
     6   1 H        0.924     0.041     2.430     2.438
     7   1 H        0.924     0.041     2.435     2.440
     8   6 C        3.805    -0.068    21.790     6.645
     9   1 H        0.924     0.036     2.507     2.476
    10   1 H        0.924     0.033     2.539     2.492
    11   6 C        3.745     0.117    18.733     6.174
    12   1 H        0.924     0.037     2.485     2.465
    13   1 H        0.924     0.030     2.585     2.515
    14   1 H        0.924     0.044     2.396     2.421
    15   1 H        0.924     0.034     2.524     2.485
    16   1 H        0.924     0.039     2.458     2.452
    17   1 H        0.924     0.031     2.566     2.505
    18   8 O        1.700    -0.339    19.686     5.990
    19   6 C        3.642     0.040    20.249     6.470
    20   1 H        0.924     0.027     2.623     2.533
    21   1 H        0.925     0.060     2.198     2.319
    22   1 H        0.924     0.031     2.568     2.506

 Mol. C6AA /au·bohr⁶  :       3440.551558
 Mol. C8AA /au·bohr⁸  :      72591.439354
 Mol. α(0) /au        :         86.531666


Wiberg/Mayer (AO) data.
largest (>0.10) Wiberg bond orders for each atom

 ---------------------------------------------------------------------------
     #   Z sym  total        # sym  WBO       # sym  WBO       # sym  WBO
 ---------------------------------------------------------------------------
     1   6 C    3.998 --     8 C    1.010     2 C    1.009    17 H    0.977
                            16 H    0.977
     2   6 C    3.998 --     5 C    1.009     1 C    1.009    10 H    0.977
                             9 H    0.977
     3   6 C    3.996 --     5 C    1.009    11 C    0.991     6 H    0.976
                             7 H    0.976
     4   1 H    1.000 --    11 C    0.959
     5   6 C    3.997 --     2 C    1.009     3 C    1.009    15 H    0.977
                            14 H    0.977
     6   1 H    0.998 --     3 C    0.976
     7   1 H    0.998 --     3 C    0.976
     8   6 C    3.998 --     1 C    1.010    11 C    0.986    12 H    0.975
                            13 H    0.974
     9   1 H    0.999 --     2 C    0.977
    10   1 H    0.999 --     2 C    0.977
    11   6 C    3.949 --     3 C    0.991     8 C    0.986    18 O    0.964
                             4 H    0.959
    12   1 H    0.999 --     8 C    0.975
    13   1 H    0.999 --     8 C    0.974
    14   1 H    0.998 --     5 C    0.977
    15   1 H    0.999 --     5 C    0.977
    16   1 H    0.998 --     1 C    0.977
    17   1 H    0.999 --     1 C    0.977
    18   8 O    2.064 --    19 C    0.997    11 C    0.964
    19   6 C    3.953 --    18 O    0.997    21 H    0.979    22 H    0.976
                            20 H    0.976
    20   1 H    0.999 --    19 C    0.976
    21   1 H    0.996 --    19 C    0.979
    22   1 H    0.999 --    19 C    0.976
 ---------------------------------------------------------------------------

Topologies differ in total number of bonds
Writing topology from bond orders to xtbtopo.mol

molecular dipole:
                 x           y           z       tot (Debye)
 q only:       -0.252      -0.229       0.130
   full:       -0.429      -0.331       0.011       1.377
molecular quadrupole (traceless):
                xx          xy          yy          xz          yz          zz
 q only:       -1.334      -0.601      -0.909       0.584       1.992       2.244
  q+dip:       -0.576      -0.991      -1.164       0.432       1.576       1.741
   full:       -0.978      -0.907      -1.182       0.678       1.995       2.160


           -------------------------------------------------
          | TOTAL ENERGY              -26.215261480687 Eh   |
          | GRADIENT NORM               0.002801758929 Eh/α |
          | HOMO-LUMO GAP              11.189859928500 eV   |
           -------------------------------------------------

------------------------------------------------------------------------
 * finished run on 2021/11/10 at 03:44:22.843     
------------------------------------------------------------------------
 total:
 * wall-time:     0 d,  0 h,  0 min,  0.038 sec
 *  cpu-time:     0 d,  0 h,  0 min,  0.299 sec
 * ratio c/w:     7.776 speedup
 SCF:
 * wall-time:     0 d,  0 h,  0 min,  0.021 sec
 *  cpu-time:     0 d,  0 h,  0 min,  0.157 sec
 * ratio c/w:     7.520 speedup


-------------------------   --------------------
FINAL SINGLE POINT ENERGY       -26.215261480690
-------------------------   --------------------

------------------------------------------------------------------------------
                         ORCA GEOMETRY RELAXATION STEP
------------------------------------------------------------------------------

Reading the OPT-File                    .... done
Getting information on internals        .... done
Copying old internal coords+grads       .... done
Making the new internal coordinates     .... (new redundants).... done
Validating the new internal coordinates .... (new redundants).... done
Calculating the B-matrix                .... done
Calculating the G,G- and P matrices     .... done
Transforming gradient to internals      .... done
Projecting the internal gradient        .... done
Number of atoms                         ....  22
Number of internal coordinates          .... 125
Current Energy                          ....   -26.215261481 Eh
Current gradient norm                   ....     0.002801759 Eh/bohr
Maximum allowed component of the step   ....  0.300
Current trust radius                    ....  0.300
Updating the Hessian (BFGS)             .... done
Forming the augmented Hessian           .... done
Diagonalizing the augmented Hessian     .... done
Last element of RFO vector              ....  0.999600591
Lowest eigenvalues of augmented Hessian:
 -0.000036671  0.014258392  0.014476544  0.016196368  0.019386462
Length of the computed step             ....  0.028271848
The final length of the internal step   ....  0.028271848
Converting the step to cartesian space:
 Initial RMS(Int)=    0.0025287109
Transforming coordinates:
 Iter   0:  RMS(Cart)=    0.0054342304 RMS(Int)=    0.0025287893
 Iter   1:  RMS(Cart)=    0.0000246861 RMS(Int)=    0.0000175528
 Iter   2:  RMS(Cart)=    0.0000002768 RMS(Int)=    0.0000001421
 Iter   3:  RMS(Cart)=    0.0000000034 RMS(Int)=    0.0000000025
done
Storing new coordinates                 .... done

                                .--------------------.
          ----------------------|Geometry convergence|-------------------------
          Item                value                   Tolerance       Converged
          ---------------------------------------------------------------------
          Energy change      -0.0000386558            0.0000050000      NO
          RMS gradient        0.0001445050            0.0001000000      NO
          MAX gradient        0.0006758087            0.0003000000      NO
          RMS step            0.0025287109            0.0020000000      NO
          MAX step            0.0112122224            0.0040000000      NO
          ........................................................
          Max(Bonds)      0.0007      Max(Angles)    0.39
          Max(Dihed)        0.64      Max(Improp)    0.00
          ---------------------------------------------------------------------

The optimization has not yet converged - more geometry cycles are needed


    ---------------------------------------------------------------------------
                         Redundant Internal Coordinates
                            (Angstroem and degrees)

        Definition                    Value    dE/dq     Step     New-Value
    ----------------------------------------------------------------------------
     1. B(C   1,C   0)                1.5253 -0.000038  0.0000    1.5254   
     2. B(C   4,C   2)                1.5261 -0.000101  0.0001    1.5262   
     3. B(C   4,C   1)                1.5254 -0.000021  0.0000    1.5254   
     4. B(H   5,C   2)                1.0912 -0.000000  0.0000    1.0912   
     5. B(H   6,C   2)                1.0915  0.000030 -0.0001    1.0914   
     6. B(C   7,C   0)                1.5255 -0.000049  0.0003    1.5257   
     7. B(H   8,C   1)                1.0928 -0.000024  0.0001    1.0929   
     8. B(H   9,C   1)                1.0917 -0.000057  0.0002    1.0919   
     9. B(C  10,C   7)                1.5356  0.000058  0.0001    1.5356   
    10. B(C  10,H   3)                1.1051 -0.000008 -0.0000    1.1051   
    11. B(C  10,C   2)                1.5316  0.000054 -0.0001    1.5315   
    12. B(H  11,C   7)                1.0921  0.000120 -0.0004    1.0917   
    13. B(H  12,C   7)                1.0922  0.000121 -0.0004    1.0918   
    14. B(H  13,C   4)                1.0911 -0.000050  0.0002    1.0913   
    15. B(H  14,C   4)                1.0917 -0.000049  0.0002    1.0918   
    16. B(H  15,C   0)                1.0920 -0.000040  0.0001    1.0922   
    17. B(H  16,C   0)                1.0920 -0.000018  0.0001    1.0921   
    18. B(O  17,C  10)                1.4223  0.000218 -0.0005    1.4217   
    19. B(C  18,O  17)                1.4045 -0.000310  0.0007    1.4052   
    20. B(H  19,C  18)                1.0977  0.000082 -0.0002    1.0975   
    21. B(H  20,C  18)                1.0885 -0.000064  0.0002    1.0886   
    22. B(H  21,C  18)                1.0961  0.000118 -0.0003    1.0957   
    23. A(C   1,C   0,H  16)          110.42  0.000138   -0.10    110.32   
    24. A(C   7,C   0,H  16)          109.65 -0.000171    0.11    109.76   
    25. A(C   7,C   0,H  15)          108.81 -0.000164    0.13    108.94   
    26. A(H  15,C   0,H  16)          108.32  0.000060   -0.08    108.24   
    27. A(C   1,C   0,C   7)          110.32  0.000056    0.04    110.36   
    28. A(C   1,C   0,H  15)          109.28  0.000077   -0.11    109.18   
    29. A(C   0,C   1,H   8)          109.38 -0.000100    0.10    109.48   
    30. A(H   8,C   1,H   9)          108.13  0.000099   -0.12    108.01   
    31. A(C   4,C   1,H   9)          109.91  0.000001   -0.02    109.89   
    32. A(C   0,C   1,H   9)          109.87 -0.000053    0.05    109.91   
    33. A(C   4,C   1,H   8)          109.57  0.000033    0.01    109.57   
    34. A(C   0,C   1,C   4)          109.96  0.000022   -0.02    109.94   
    35. A(C   4,C   2,H   5)          110.01  0.000165   -0.13    109.88   
    36. A(C   4,C   2,C  10)          110.93 -0.000036    0.03    110.95   
    37. A(H   6,C   2,C  10)          108.36 -0.000206    0.17    108.52   
    38. A(H   5,C   2,H   6)          108.53 -0.000030    0.02    108.54   
    39. A(C   4,C   2,H   6)          110.24  0.000189   -0.15    110.09   
    40. A(H   5,C   2,C  10)          108.71 -0.000091    0.09    108.80   
    41. A(H  13,C   4,H  14)          108.47  0.000113   -0.14    108.33   
    42. A(C   1,C   4,H  14)          110.26  0.000029   -0.02    110.24   
    43. A(C   2,C   4,H  13)          108.45 -0.000116    0.11    108.56   
    44. A(C   1,C   4,H  13)          109.44  0.000034   -0.02    109.42   
    45. A(C   2,C   4,H  14)          109.49 -0.000085    0.08    109.57   
    46. A(C   1,C   4,C   2)          110.68  0.000026   -0.01    110.67   
    47. A(H  11,C   7,H  12)          107.40 -0.000293    0.36    107.75   
    48. A(C  10,C   7,H  12)          109.86 -0.000179    0.15    110.00   
    49. A(C   0,C   7,H  12)          110.55  0.000361   -0.33    110.23   
    50. A(C  10,C   7,H  11)          107.90 -0.000124    0.10    108.00   
    51. A(C   0,C   7,H  11)          110.22  0.000305   -0.22    110.00   
    52. A(C   0,C   7,C  10)          110.81 -0.000088   -0.03    110.78   
    53. A(C   2,C  10,H   3)          109.39  0.000173   -0.20    109.18   
    54. A(H   3,C  10,C   7)          108.73 -0.000207    0.15    108.88   
    55. A(C   7,C  10,O  17)          113.04  0.000009    0.04    113.09   
    56. A(H   3,C  10,O  17)          108.39  0.000073   -0.06    108.32   
    57. A(C   2,C  10,O  17)          107.28 -0.000112    0.08    107.36   
    58. A(C   2,C  10,C   7)          109.95  0.000075   -0.02    109.93   
    59. A(C  10,O  17,C  18)          115.20  0.000208   -0.07    115.13   
    60. A(H  19,C  18,H  21)          108.44 -0.000676    0.39    108.83   
    61. A(O  17,C  18,H  21)          112.23  0.000143   -0.04    112.18   
    62. A(H  19,C  18,H  20)          109.49  0.000005   -0.05    109.44   
    63. A(O  17,C  18,H  20)          106.18 -0.000017   -0.04    106.15   
    64. A(H  20,C  18,H  21)          109.22  0.000154   -0.13    109.09   
    65. A(O  17,C  18,H  19)          111.23  0.000408   -0.15    111.08   
    66. D(H   9,C   1,C   0,H  16)     59.07  0.000099   -0.09     58.98   
    67. D(H   9,C   1,C   0,C   7)   -179.57  0.000013    0.01   -179.56   
    68. D(H   8,C   1,C   0,C   7)     61.89 -0.000016    0.07     61.96   
    69. D(H   9,C   1,C   0,H  15)    -59.98 -0.000107    0.13    -59.85   
    70. D(C   4,C   1,C   0,H  15)     61.11 -0.000126    0.13     61.24   
    71. D(C   4,C   1,C   0,H  16)   -179.84  0.000079   -0.09   -179.93   
    72. D(C   4,C   1,C   0,C   7)    -58.48 -0.000007    0.01    -58.47   
    73. D(H   8,C   1,C   0,H  16)    -59.48  0.000070   -0.03    -59.51   
    74. D(H   8,C   1,C   0,H  15)   -178.53 -0.000135    0.19   -178.34   
    75. D(H  13,C   4,C   1,H   9)     59.73  0.000038   -0.11     59.62   
    76. D(C   1,C   4,C   2,C  10)    -57.43  0.000050   -0.02    -57.45   
    77. D(H  13,C   4,C   2,H   5)    -57.69  0.000062   -0.02    -57.70   
    78. D(H  13,C   4,C   1,H   8)    178.41  0.000179   -0.26    178.15   
    79. D(C   2,C   4,C   1,H   9)    179.20 -0.000069    0.00    179.20   
    80. D(C   1,C   4,C   2,H   6)     62.60 -0.000107    0.10     62.70   
    81. D(H  13,C   4,C   2,H   6)   -177.34 -0.000124    0.14   -177.20   
    82. D(C   1,C   4,C   2,H   5)   -177.75  0.000079   -0.06   -177.81   
    83. D(H  14,C   4,C   2,C  10)   -179.18  0.000054   -0.04   -179.22   
    84. D(C   2,C   4,C   1,C   0)     58.13 -0.000017   -0.03     58.10   
    85. D(H  14,C   4,C   2,H   6)    -59.15 -0.000104    0.08    -59.07   
    86. D(H  14,C   4,C   2,H   5)     60.51  0.000082   -0.08     60.42   
    87. D(H  13,C   4,C   2,C  10)     62.63  0.000033    0.02     62.65   
    88. D(C   2,C   4,C   1,H   8)    -62.12  0.000072   -0.15    -62.27   
    89. D(H  14,C   4,C   1,H   9)    -59.51 -0.000140    0.08    -59.43   
    90. D(H  14,C   4,C   1,C   0)    179.43 -0.000088    0.04    179.47   
    91. D(H  13,C   4,C   1,C   0)    -61.34  0.000090   -0.15    -61.49   
    92. D(H  14,C   4,C   1,H   8)     59.17  0.000002   -0.07     59.10   
    93. D(H  11,C   7,C   0,C   1)    -61.17 -0.000029    0.05    -61.12   
    94. D(C  10,C   7,C   0,H  16)   -179.97  0.000053   -0.02   -179.99   
    95. D(C  10,C   7,C   0,H  15)    -61.67 -0.000070    0.03    -61.64   
    96. D(C  10,C   7,C   0,C   1)     58.20 -0.000043    0.01     58.21   
    97. D(H  12,C   7,C   0,H  16)    -57.92  0.000013   -0.08    -58.00   
    98. D(H  12,C   7,C   0,H  15)     60.38 -0.000110   -0.03     60.35   
    99. D(H  12,C   7,C   0,C   1)   -179.75 -0.000083   -0.05   -179.80   
   100. D(H  11,C   7,C   0,H  16)     60.66  0.000067    0.02     60.67   
   101. D(H  11,C   7,C   0,H  15)    178.96 -0.000056    0.07    179.03   
   102. D(O  17,C  10,C   7,H  12)    -59.34 -0.000328    0.45    -58.89   
   103. D(O  17,C  10,C   7,H  11)   -176.13  0.000190   -0.11   -176.24   
   104. D(O  17,C  10,C   7,C   0)     63.12 -0.000052    0.12     63.24   
   105. D(H   3,C  10,C   7,H  12)     61.08 -0.000372    0.50     61.58   
   106. D(H   3,C  10,C   7,H  11)    -55.71  0.000146   -0.06    -55.77   
   107. D(H   3,C  10,C   7,C   0)   -176.47 -0.000097    0.17   -176.30   
[...]
     40       0.000183  -0.006889   0.005061  -0.000139   0.024565  -0.006282
     41      -0.001612   0.079287  -0.076373  -0.003506  -0.137892  -0.115403
     42      -0.000739   0.013682  -0.021286  -0.001620  -0.080102   0.015986
     43      -0.004682   0.076576  -0.136091  -0.009584  -0.589276   0.173381
     44      -0.004139   0.064784  -0.118972  -0.009385  -0.517879   0.159824
     45       0.001458  -0.187650  -0.331066   0.031917  -0.003169   0.147714
     46       0.000579   0.008037   0.019424   0.017424  -0.003977   0.002892
     47      -0.001020   0.150435   0.255094  -0.033647   0.003804  -0.120119
     48      -0.000169  -0.000601  -0.013668  -0.022399   0.003433  -0.006318
     49      -0.000906  -0.183789  -0.589237  -0.449934   0.063464  -0.008353
     50       0.000551   0.095348   0.313986   0.249265  -0.034072   0.009475
     51       0.001625  -0.000053   0.000049  -0.000117  -0.000103  -0.000178
     52       0.003654  -0.000004  -0.000033  -0.000024  -0.000114  -0.000175
     53       0.004573   0.000026   0.000101  -0.000219  -0.000075   0.000023
     54       0.027070  -0.000019   0.000453  -0.000340  -0.000338  -0.000024
     55       0.055513  -0.000275   0.000447  -0.002171  -0.000381   0.000138
     56      -0.004819  -0.000173  -0.000178   0.000661   0.000152   0.000306
     57      -0.376718   0.002569  -0.003644   0.002628   0.002960  -0.003033
     58       0.144280  -0.000941   0.001353  -0.002307  -0.001089   0.000880
     59      -0.184717   0.001131  -0.002023   0.002329   0.001674  -0.001346
     60      -0.025481  -0.002144  -0.003236   0.004830   0.002619   0.003910
     61       0.016689  -0.000847  -0.000982   0.000293   0.000766   0.001273
     62       0.022928   0.001648   0.002563  -0.003082  -0.002280  -0.003444
     63       0.054884  -0.000380   0.000628  -0.001215  -0.000445   0.000249
     64      -0.876555   0.005189  -0.007410   0.032420   0.006257  -0.003434
     65       0.154296  -0.000961   0.000597  -0.005088  -0.000806   0.000526
                 60         61         62         63         64         65    
      0       0.015993  -0.043502  -0.016450  -0.002638  -0.007804  -0.000483
      1       0.003955   0.018490   0.024950  -0.008088   0.003139  -0.000012
      2      -0.016919   0.024588   0.001414   0.005865   0.004626   0.000399
      3      -0.014238  -0.015813  -0.009719  -0.000626  -0.015488   0.000167
      4       0.005639   0.003011   0.002345  -0.001384   0.001134  -0.000042
      5      -0.045679  -0.006831  -0.012097   0.011380  -0.002096   0.000317
      6       0.009343   0.002223  -0.006125  -0.026535  -0.009298   0.000067
      7       0.018551  -0.007568   0.024800   0.046901  -0.018419   0.000157
      8      -0.017612   0.002658  -0.008402  -0.003014   0.016200  -0.000103
      9       0.002385   0.005825  -0.009170   0.023006  -0.001086  -0.006804
     10      -0.000994  -0.001095   0.003284  -0.002976  -0.000344   0.001169
     11       0.000841   0.003788  -0.004918   0.012970   0.000078  -0.001797
     12       0.000927   0.012294  -0.001309  -0.013068  -0.054603  -0.000190
     13      -0.021699   0.001309   0.000928   0.011028  -0.017045   0.000209
     14      -0.024809  -0.008745   0.000620   0.019790   0.028206   0.000383
     15      -0.017428   0.008858  -0.029394  -0.061364   0.014947  -0.000009
     16      -0.249928   0.099365  -0.318644  -0.592210   0.239583  -0.001335
     17       0.143075  -0.059761   0.191826   0.360422  -0.139950   0.000722
     18      -0.096271  -0.029538   0.107000   0.391259   0.079885  -0.000933
     19       0.012686  -0.003912   0.009225   0.011983  -0.011092  -0.000052
     20       0.069599   0.025647  -0.089725  -0.318067  -0.060046   0.000701
     21      -0.006253  -0.032129   0.032037  -0.018389  -0.002592   0.000301
     22      -0.015781  -0.008246   0.032111  -0.013228   0.001378  -0.000089
     23      -0.009966   0.016234   0.005548   0.002274   0.003141  -0.000262
     24      -0.356649   0.006966  -0.069590   0.102657   0.042973   0.001626
     25       0.000180   0.002145   0.001763  -0.000247  -0.000496   0.000013
     26       0.263562  -0.015257   0.048975  -0.079248  -0.040852  -0.000960
     27       0.534445   0.183859   0.185448  -0.100229   0.135033  -0.004247
     28      -0.078678  -0.026949  -0.025566   0.015050  -0.021764   0.000609
     29       0.295490   0.108955   0.106104  -0.054193   0.082175  -0.002465
     30      -0.000032  -0.001438   0.001159  -0.002596  -0.000552  -0.000094
     31       0.000386  -0.000654   0.001416   0.001264  -0.000449   0.000022
     32      -0.000724   0.000483   0.000320  -0.000934   0.000769   0.000371
     33       0.064736   0.387037  -0.369362   0.217548   0.034190  -0.004204
     34      -0.008623  -0.006206   0.017720  -0.007422   0.001192  -0.000076
     35      -0.059171  -0.314207   0.308486  -0.179563  -0.026340   0.003389
     36       0.022510  -0.001919  -0.038806   0.012826  -0.003792   0.000048
     37       0.204203   0.113934  -0.410982   0.168209  -0.017679   0.000067
     38       0.183584   0.113380  -0.380852   0.156256  -0.014583   0.001246
     39      -0.049768  -0.160152   0.011368   0.172976   0.675795   0.003166
     40      -0.010467   0.001409   0.000579   0.005355  -0.004959   0.000133
     41       0.029664   0.131111  -0.010324  -0.138627  -0.557771  -0.002574
     42       0.037468   0.003954  -0.001439  -0.023461   0.000288  -0.000552
     43       0.295186  -0.019741  -0.003431  -0.130397   0.212870  -0.002819
     44       0.259568  -0.023471  -0.004274  -0.111057   0.210269  -0.002417
     45      -0.213333   0.559868   0.241335   0.022053   0.099338   0.006703
     46      -0.001415   0.017317   0.014043  -0.003501   0.001481   0.000096
     47       0.171308  -0.462213  -0.200512  -0.017184  -0.082454  -0.005668
     48       0.005044  -0.033901  -0.023362   0.003623  -0.005521  -0.000333
     49      -0.055391  -0.249978  -0.319272   0.102274  -0.039263  -0.000209
     50       0.021693   0.154915   0.183849  -0.055384   0.023978   0.000420
     51      -0.000133   0.000129   0.000210   0.000016   0.000198   0.001004
     52      -0.000085  -0.000179   0.000185  -0.000059  -0.000036  -0.000865
     53      -0.000039  -0.000044   0.000092   0.000280  -0.000163  -0.002598
     54       0.000803  -0.000261   0.000164  -0.000645  -0.000100   0.055580
     55      -0.000220  -0.000765   0.001881  -0.000938  -0.000045   0.017994
     56      -0.000125   0.000192   0.000023  -0.000109   0.000230  -0.044936
     57      -0.004303   0.002481  -0.007064   0.006204   0.001062   0.033092
     58       0.001027  -0.001511   0.003141  -0.002362  -0.000526   0.011170
     59      -0.001937   0.001519  -0.004044   0.003030   0.000903  -0.015381
     60      -0.005161   0.002036   0.001749   0.001799   0.001774  -0.732799
     61      -0.002354   0.000259   0.001661   0.000448   0.000659  -0.269546
     62       0.004717  -0.001361  -0.002056  -0.001118  -0.001255   0.615107
     63       0.000460  -0.000545   0.000833  -0.000604  -0.000412   0.029783
     64       0.005164   0.011345  -0.030161   0.013080   0.002028   0.057174
     65      -0.001133  -0.002880   0.005830  -0.002727  -0.000160  -0.026811


-----------
IR SPECTRUM  
-----------

 Mode    freq (cm**-1)   T**2         TX         TY         TZ
-------------------------------------------------------------------
   6:        64.07    0.000000  (  0.000000   0.000000   0.000000)
   7:       121.65    0.000000  (  0.000000   0.000000   0.000000)
   8:       167.09    0.000000  (  0.000000   0.000000   0.000000)
   9:       222.72    0.000000  (  0.000000   0.000000   0.000000)
  10:       288.14    0.000000  (  0.000000   0.000000   0.000000)
  11:       308.40    0.000000  (  0.000000   0.000000   0.000000)
  12:       371.37    0.000000  (  0.000000   0.000000   0.000000)
  13:       394.38    0.000000  (  0.000000   0.000000   0.000000)
  14:       480.15    0.000000  (  0.000000   0.000000   0.000000)
  15:       493.86    0.000000  (  0.000000   0.000000   0.000000)
  16:       651.65    0.000000  (  0.000000   0.000000   0.000000)
  17:       807.44    0.000000  (  0.000000   0.000000   0.000000)
  18:       842.70    0.000000  (  0.000000   0.000000   0.000000)
  19:       866.64    0.000000  (  0.000000   0.000000   0.000000)
  20:       912.15    0.000000  (  0.000000   0.000000   0.000000)
  21:       935.22    0.000000  (  0.000000   0.000000   0.000000)
  22:       950.31    0.000000  (  0.000000   0.000000   0.000000)
  23:       962.14    0.000000  (  0.000000   0.000000   0.000000)
  24:      1002.89    0.000000  (  0.000000   0.000000   0.000000)
  25:      1068.64    0.000000  (  0.000000   0.000000   0.000000)
  26:      1077.35    0.000000  (  0.000000   0.000000   0.000000)
  27:      1094.29    0.000000  (  0.000000   0.000000   0.000000)
  28:      1105.76    0.000000  (  0.000000   0.000000   0.000000)
  29:      1125.90    0.000000  (  0.000000   0.000000   0.000000)
  30:      1128.33    0.000000  (  0.000000   0.000000   0.000000)
  31:      1144.45    0.000000  (  0.000000   0.000000   0.000000)
  32:      1160.68    0.000000  (  0.000000   0.000000   0.000000)
  33:      1184.66    0.000000  (  0.000000   0.000000   0.000000)
  34:      1236.65    0.000000  (  0.000000   0.000000   0.000000)
  35:      1243.42    0.000000  (  0.000000   0.000000   0.000000)
  36:      1249.76    0.000000  (  0.000000   0.000000   0.000000)
  37:      1301.81    0.000000  (  0.000000   0.000000   0.000000)
  38:      1326.88    0.000000  (  0.000000   0.000000   0.000000)
  39:      1331.09    0.000000  (  0.000000   0.000000   0.000000)
  40:      1343.52    0.000000  (  0.000000   0.000000   0.000000)
  41:      1344.62    0.000000  (  0.000000   0.000000   0.000000)
  42:      1351.46    0.000000  (  0.000000   0.000000   0.000000)
  43:      1357.61    0.000000  (  0.000000   0.000000   0.000000)
  44:      1401.04    0.000000  (  0.000000   0.000000   0.000000)
  45:      1462.15    0.000000  (  0.000000   0.000000   0.000000)
  46:      1465.77    0.000000  (  0.000000   0.000000   0.000000)
  47:      1474.40    0.000000  (  0.000000   0.000000   0.000000)
  48:      1479.45    0.000000  (  0.000000   0.000000   0.000000)
  49:      1481.19    0.000000  (  0.000000   0.000000   0.000000)
  50:      1486.83    0.000000  (  0.000000   0.000000   0.000000)
  51:      1496.36    0.000000  (  0.000000   0.000000   0.000000)
  52:      2793.44    0.000000  (  0.000000   0.000000   0.000000)
  53:      2890.54    0.000000  (  0.000000   0.000000   0.000000)
  54:      2920.21    0.000000  (  0.000000   0.000000   0.000000)
  55:      2956.56    0.000000  (  0.000000   0.000000   0.000000)
  56:      2963.92    0.000000  (  0.000000   0.000000   0.000000)
  57:      2967.31    0.000000  (  0.000000   0.000000   0.000000)
  58:      2968.48    0.000000  (  0.000000   0.000000   0.000000)
  59:      2974.10    0.000000  (  0.000000   0.000000   0.000000)
  60:      2978.25    0.000000  (  0.000000   0.000000   0.000000)
  61:      2982.74    0.000000  (  0.000000   0.000000   0.000000)
  62:      2985.02    0.000000  (  0.000000   0.000000   0.000000)
  63:      2987.38    0.000000  (  0.000000   0.000000   0.000000)
  64:      2993.83    0.000000  (  0.000000   0.000000   0.000000)
  65:      3016.94    0.000000  (  0.000000   0.000000   0.000000)

The first frequency considered to be a vibration is 6
The total number of vibrations considered is 60


--------------------------
THERMOCHEMISTRY AT 298.15K
--------------------------

Temperature         ... 298.15 K
Pressure            ... 1.00 atm
Total Mass          ... 114.19 AMU

Throughout the following assumptions are being made:
  (1) The electronic state is orbitally nondegenerate
  (2) There are no thermally accessible electronically excited states
  (3) Hindered rotations indicated by low frequency modes are not
      treated as such but are treated as vibrations and this may
      cause some error
  (4) All equations used are the standard statistical mechanics
      equations for an ideal gas
  (5) All vibrations are strictly harmonic

freq.      64.07  E(vib)   ...       0.51 
freq.     121.65  E(vib)   ...       0.44 
freq.     167.09  E(vib)   ...       0.39 
freq.     222.72  E(vib)   ...       0.33 
freq.     288.14  E(vib)   ...       0.27 
freq.     308.40  E(vib)   ...       0.26 
freq.     371.37  E(vib)   ...       0.21 
freq.     394.38  E(vib)   ...       0.20 
freq.     480.15  E(vib)   ...       0.15 
freq.     493.86  E(vib)   ...       0.14 
freq.     651.65  E(vib)   ...       0.08 
freq.     807.44  E(vib)   ...       0.05 
freq.     842.70  E(vib)   ...       0.04 
freq.     866.64  E(vib)   ...       0.04 
freq.     912.15  E(vib)   ...       0.03 
freq.     935.22  E(vib)   ...       0.03 
freq.     950.31  E(vib)   ...       0.03 
freq.     962.14  E(vib)   ...       0.03 
freq.    1002.89  E(vib)   ...       0.02 
freq.    1068.64  E(vib)   ...       0.02 
freq.    1077.35  E(vib)   ...       0.02 
freq.    1094.29  E(vib)   ...       0.02 
freq.    1105.76  E(vib)   ...       0.02 
freq.    1125.90  E(vib)   ...       0.01 
freq.    1128.33  E(vib)   ...       0.01 
freq.    1144.45  E(vib)   ...       0.01 
freq.    1160.68  E(vib)   ...       0.01 
freq.    1184.66  E(vib)   ...       0.01 
freq.    1236.65  E(vib)   ...       0.01 
freq.    1243.42  E(vib)   ...       0.01 
freq.    1249.76  E(vib)   ...       0.01 
freq.    1301.81  E(vib)   ...       0.01 
freq.    1326.88  E(vib)   ...       0.01 
freq.    1331.09  E(vib)   ...       0.01 
freq.    1343.52  E(vib)   ...       0.01 
freq.    1344.62  E(vib)   ...       0.01 
freq.    1351.46  E(vib)   ...       0.01 
freq.    1357.61  E(vib)   ...       0.01 
freq.    1401.04  E(vib)   ...       0.00 
freq.    1462.15  E(vib)   ...       0.00 
freq.    1465.77  E(vib)   ...       0.00 
freq.    1474.40  E(vib)   ...       0.00 
freq.    1479.45  E(vib)   ...       0.00 
freq.    1481.19  E(vib)   ...       0.00 
freq.    1486.83  E(vib)   ...       0.00 
freq.    1496.36  E(vib)   ...       0.00 
freq.    2793.44  E(vib)   ...       0.00 
freq.    2890.54  E(vib)   ...       0.00 
freq.    2920.21  E(vib)   ...       0.00 
freq.    2956.56  E(vib)   ...       0.00 
freq.    2963.92  E(vib)   ...       0.00 
freq.    2967.31  E(vib)   ...       0.00 
freq.    2968.48  E(vib)   ...       0.00 
freq.    2974.10  E(vib)   ...       0.00 
freq.    2978.25  E(vib)   ...       0.00 
freq.    2982.74  E(vib)   ...       0.00 
freq.    2985.02  E(vib)   ...       0.00 
freq.    2987.38  E(vib)   ...       0.00 
freq.    2993.83  E(vib)   ...       0.00 
freq.    3016.94  E(vib)   ...       0.00 

------------
INNER ENERGY
------------

The inner energy is: U= E(el) + E(ZPE) + E(vib) + E(rot) + E(trans)
    E(el)   - is the total energy from the electronic structure calculation
              = E(kin-el) + E(nuc-el) + E(el-el) + E(nuc-nuc)
    E(ZPE)  - the the zero temperature vibrational energy from the frequency calculation
    E(vib)  - the the finite temperature correction to E(ZPE) due to population
              of excited vibrational states
    E(rot)  - is the rotational thermal energy
    E(trans)- is the translational thermal energy

Summary of contributions to the inner energy U:
Electronic energy                ...    -26.21528199 Eh
Zero point energy                ...      0.19853262 Eh     124.58 kcal/mol
Thermal vibrational correction   ...      0.00553034 Eh       3.47 kcal/mol
Thermal rotational correction    ...      0.00141627 Eh       0.89 kcal/mol
Thermal translational correction ...      0.00141627 Eh       0.89 kcal/mol
-----------------------------------------------------------------------
Total thermal energy                    -26.00838649 Eh


Summary of corrections to the electronic energy:
(perhaps to be used in another calculation)
Total thermal correction                  0.00836288 Eh       5.25 kcal/mol
Non-thermal (ZPE) correction              0.19853262 Eh     124.58 kcal/mol
-----------------------------------------------------------------------
Total correction                          0.20689550 Eh     129.83 kcal/mol


--------
ENTHALPY
--------

The enthalpy is H = U + kB*T
                kB is Boltzmann's constant
Total free energy                 ...    -26.00838649 Eh 
Thermal Enthalpy correction       ...      0.00094421 Eh       0.59 kcal/mol
-----------------------------------------------------------------------
Total Enthalpy                    ...    -26.00744228 Eh


Note: Only C1 symmetry has been detected, increase convergence thresholds 
      if your molecule has a higher symmetry. Symmetry factor of 1.0 is   
      used for the rotational entropy correction. 
 

Note: Rotational entropy computed according to Herzberg 
Infrared and Raman Spectra, Chapter V,1, Van Nostrand Reinhold, 1945 
Point Group:  C1, Symmetry Number:   1  
Rotational constants in cm-1:     0.110092     0.053575     0.045262 

Vibrational entropy computed according to the QRRHO of S. Grimme
Chem.Eur.J. 2012 18 9955


-------
ENTROPY
-------

The entropy contributions are T*S = T*(S(el)+S(vib)+S(rot)+S(trans))
     S(el)   - electronic entropy
     S(vib)  - vibrational entropy
     S(rot)  - rotational entropy
     S(trans)- translational entropy
The entropies will be listed as mutliplied by the temperature to get
units of energy

Electronic entropy                ...      0.00000000 Eh      0.00 kcal/mol
Vibrational entropy               ...      0.00925168 Eh      5.81 kcal/mol
Rotational entropy                ...      0.01339536 Eh      8.41 kcal/mol
Translational entropy             ...      0.01905915 Eh     11.96 kcal/mol
-----------------------------------------------------------------------
Final entropy term                ...      0.04170619 Eh     26.17 kcal/mol

In case the symmetry of your molecule has not been determined correctly
or in case you have a reason to use a different symmetry number we print 
out the resulting rotational entropy values for sn=1,12 :
 --------------------------------------------------------
|  sn= 1 | S(rot)=       0.01339536 Eh      8.41 kcal/mol|
|  sn= 2 | S(rot)=       0.01274091 Eh      8.00 kcal/mol|
|  sn= 3 | S(rot)=       0.01235807 Eh      7.75 kcal/mol|
|  sn= 4 | S(rot)=       0.01208645 Eh      7.58 kcal/mol|
|  sn= 5 | S(rot)=       0.01187576 Eh      7.45 kcal/mol|
|  sn= 6 | S(rot)=       0.01170362 Eh      7.34 kcal/mol|
|  sn= 7 | S(rot)=       0.01155807 Eh      7.25 kcal/mol|
|  sn= 8 | S(rot)=       0.01143199 Eh      7.17 kcal/mol|
|  sn= 9 | S(rot)=       0.01132078 Eh      7.10 kcal/mol|
|  sn=10 | S(rot)=       0.01122130 Eh      7.04 kcal/mol|
|  sn=11 | S(rot)=       0.01113131 Eh      6.98 kcal/mol|
|  sn=12 | S(rot)=       0.01104916 Eh      6.93 kcal/mol|
 --------------------------------------------------------


-------------------
GIBBS FREE ENERGY
-------------------

The Gibbs free energy is G = H - T*S

Total enthalpy                    ...    -26.00744228 Eh 
Total entropy correction          ...     -0.04170619 Eh    -26.17 kcal/mol
-----------------------------------------------------------------------
Final Gibbs free energy         ...    -26.04914847 Eh

For completeness - the Gibbs free energy minus the electronic energy
G-E(el)                           ...      0.16613352 Eh    104.25 kcal/mol


Total Time for Numerical Frequencies  :        45.714 sec

Timings for individual modules:

Sum of individual times         ...        0.599 sec (=   0.010 min)
Geometry relaxation             ...        0.332 sec (=   0.006 min)  55.5 %
XTB module                      ...        0.267 sec (=   0.004 min)  44.5 %
                             ****ORCA TERMINATED NORMALLY****
TOTAL RUN TIME: 0 days 0 hours 0 minutes 47 seconds 482 msec
