(SLURM) JOB ID:         283

                                 *****************
                                 * O   R   C   A *
                                 *****************

           --- An Ab Initio, DFT and Semiempirical electronic structure package ---

                  #######################################################
                  #                        -***-                        #
                  #          Department of theory and spectroscopy      #
                  #               Directorship: Frank Neese             #
                  #        Max Planck Institute fuer Kohlenforschung    #
                  #                Kaiser Wilhelm Platz 1               #
                  #                 D-45470 Muelheim/Ruhr               #
                  #                      Germany                        #
                  #                                                     #
                  #                  All rights reserved                #
                  #                        -***-                        #
                  #######################################################


                         Program Version 4.2.1 -  RELEASE  -


 With contributions from (in alphabetic order):
   Daniel Aravena         : Magnetic Suceptibility
   Michael Atanasov       : Ab Initio Ligand Field Theory (pilot matlab implementation)
   Alexander A. Auer      : GIAO ZORA, VPT2
   Ute Becker             : Parallelization
   Giovanni Bistoni       : ED, misc. LED, open-shell LED, HFLD
   Martin Brehm           : Molecular dynamics
   Dmytro Bykov           : SCF Hessian
   Vijay G. Chilkuri      : MRCI spin determinant printing, contributions to CSF-ICE
   Dipayan Datta          : RHF DLPNO-CCSD density
   Achintya Kumar Dutta   : EOM-CC, STEOM-CC
   Dmitry Ganyushin       : Spin-Orbit,Spin-Spin,Magnetic field MRCI
   Miquel Garcia          : C-PCM Hessian, Gaussian charge scheme
   Yang Guo               : DLPNO-NEVPT2, CIM, IAO-localization
   Andreas Hansen         : Spin unrestricted coupled pair/coupled cluster methods
   Benjamin Helmich-Paris : CASSCF linear response (MC-RPA)
   Lee Huntington         : MR-EOM, pCC
   Robert Izsak           : Overlap fitted RIJCOSX, COSX-SCS-MP3, EOM
   Christian Kollmar      : KDIIS, OOCD, Brueckner-CCSD(T), CCSD density
   Simone Kossmann        : Meta GGA functionals, TD-DFT gradient, OOMP2, MP2 Hessian
   Martin Krupicka        : AUTO-CI
   Lucas Lang             : DCDCAS
   Dagmar Lenk            : GEPOL surface, SMD
   Dimitrios Liakos       : Extrapolation schemes; Compound Job, initial MDCI parallelization
   Dimitrios Manganas     : Further ROCIS development; embedding schemes
   Dimitrios Pantazis     : SARC Basis sets
   Taras Petrenko         : DFT Hessian,TD-DFT gradient, ASA, ECA, R-Raman, ABS, FL, XAS/XES, NRVS
   Peter Pinski           : DLPNO-MP2, DLPNO-MP2 Gradient
   Christoph Reimann      : Effective Core Potentials
   Marius Retegan         : Local ZFS, SOC
   Christoph Riplinger    : Optimizer, TS searches, QM/MM, DLPNO-CCSD(T), (RO)-DLPNO pert. Triples
   Tobias Risthaus        : Range-separated hybrids, TD-DFT gradient, RPA, STAB
   Michael Roemelt        : Original ROCIS implementation
   Masaaki Saitow         : Open-shell DLPNO-CCSD energy and density
   Barbara Sandhoefer     : DKH picture change effects
   Avijit Sen             : IP-ROCIS
   Kantharuban Sivalingam : CASSCF convergence, NEVPT2, FIC-MRCI
   Bernardo de Souza      : ESD, SOC TD-DFT
   Georgi Stoychev        : AutoAux, RI-MP2 NMR
   Willem Van den Heuvel  : Paramagnetic NMR
   Boris Wezisla          : Elementary symmetry handling
   Frank Wennmohs         : Technical directorship


 We gratefully acknowledge several colleagues who have allowed us to
 interface, adapt or use parts of their codes:
   Stefan Grimme, W. Hujo, H. Kruse,             : VdW corrections, initial TS optimization,
                  C. Bannwarth                     DFT functionals, gCP, sTDA/sTD-DF
   Ed Valeev, F. Pavosevic, A. Kumar             : LibInt (2-el integral package), F12 methods
   Garnet Chan, S. Sharma, J. Yang, R. Olivares  : DMRG
   Ulf Ekstrom                                   : XCFun DFT Library
   Mihaly Kallay                                 : mrcc  (arbitrary order and MRCC methods)
   Andreas Klamt, Michael Diedenhofen            : otool_cosmo (COSMO solvation model)
   Jiri Pittner, Ondrej Demel                    : Mk-CCSD
   Frank Weinhold                                : gennbo (NPA and NBO analysis)
   Christopher J. Cramer and Donald G. Truhlar   : smd solvation model
   Lars Goerigk                                  : TD-DFT with DH, B97 family of functionals
   V. Asgeirsson, H. Jonsson                     : NEB implementation
   FAccTs GmbH                                   : IRC, NEB, NEB-TS, Multilevel, MM, QM/MM, CI optimization
   S Lehtola, MJT Oliveira, MAL Marques          : LibXC Library


 Your calculation uses the libint2 library for the computation of 2-el integrals
 For citations please refer to: http://libint.valeyev.net

 Your ORCA version has been built with support for libXC version: 4.2.3
 For citations please refer to: https://tddft.org/programs/libxc/

 This ORCA versions uses:
   CBLAS   interface :  Fast vector & matrix operations
   LAPACKE interface :  Fast linear algebra routines
   SCALAPACK package :  Parallel linear algebra routines




***************************************
The coordinates will be read from file: init.xyz
***************************************


Your calculation utilizes the SMD solvation module
Please cite in your paper:
A.V. Marenich, C.J. Cramer, D.G. Truhlar J. Phys. Chem. B, 113, (2009), 6378 

Your calculation utilizes the semiempirical GFN2-xTB method
Please cite in your paper:
C. Bannwarth, Ehlert S., S. Grimme,  J. Chem. Theory Comput., 15, (2019), 1652.
   

----- Orbital basis set information -----
Your calculation utilizes the basis: def2-SVP
   F. Weigend and R. Ahlrichs, Phys. Chem. Chem. Phys. 7, 3297 (2005).

================================================================================
                                        WARNINGS
                       Please study these warnings very carefully!
================================================================================

WARNING: Gradients needed for Numerical Frequencies
  ===> : Setting RunTyp to EnGrad

WARNING: The environment variable RSH_COMMAND is not set!
  ===> : All Displacements for the Numerical Hessian calculation
         will be started on localhost

WARNING: Found dipole moment calculation with XTB calculation
  ===> : Switching off dipole moment calculation


INFO   : the flag for use of LIBINT has been found!

================================================================================
                                       INPUT FILE
================================================================================
NAME = /tmp/slurm-scratch/freq.283/freq.inp
|  1> ! XTB2 NumFreq
|  2> %maxcore 1450
|  3> 
|  4> * xyzfile 0 1 init.xyz
|  5> 
|  6> %cpcm
|  7>  smd true
|  8>  smdsolvent "ch2cl2"
|  9> end
| 10> %pal nprocs 8 end
| 11> 
| 12>                          ****END OF INPUT****
================================================================================

                     *******************************
                     * Energy+Gradient Calculation *
                     *******************************

      -----------------------------------------------------------      
     |                   =====================                   |     
     |                           x T B                           |     
     |                   =====================                   |     
     |                         S. Grimme                         |     
     |          Mulliken Center for Theoretical Chemistry        |     
     |                    University of Bonn                     |     
      -----------------------------------------------------------      

   * xtb version 6.3.0 (preview) compiled by 'ehlert@majestix' on 2020-01-15

   This program is distributed in the hope that it will be useful,
   but WITHOUT ANY WARRANTY; without even the implied warranty of
   MERCHANTABILITY or FITNESS FOR A PARTICULAR PURPOSE.
   
   FOR NON-COMMERCIAL, ACADEMIA USE ONLY.
   
   Cite this work as:
   * S. Grimme, C. Bannwarth, P. Shushkov, J. Chem. Theory Comput., 2017,
     13, 1989-2009. DOI: 10.1021/acs.jctc.7b00118
   * C. Bannwarth, S. Ehlert and S. Grimme., J. Chem. Theory Comput., 2019,
     15, 1652-1671. DOI: 10.1021/acs.jctc.8b01176
   * P. Pracht, E. Caldeweyher, S. Ehlert, S. Grimme, ChemRxiv, 2019, preprint.
     DOI: 10.26434/chemrxiv.8326202.v1
   * S. Grimme, S. Spicher unpublished
   
   for DFT-D4:
   * E. Caldeweyher, C. Bannwarth and S. Grimme, J. Chem. Phys., 2017,
     147, 034112. DOI: 10.1063/1.4993215
   * E. Caldeweyher, S. Ehlert, A. Hansen, H. Neugebauer, S. Spicher,
     C. Bannwarth and S. Grimme, J. Chem. Phys., 2019, 150, 154122.
     DOI: 10.1063/1.5090222
   
   for sTDA-xTB:
   * S. Grimme and C. Bannwarth, J. Chem. Phys., 2016, 145, 054103.
     DOI: 10.1063/1.4959605
   
   in the mass-spec context:
   * V. Asgeirsson, C. Bauer and S. Grimme, Chem. Sci., 2017, 8, 4879.
     DOI: 10.1039/c7sc00601b
   
   for metadynamics refer to:
   * S. Grimme, J. Chem. Theory Comput., 2019, 155, 2847-2862
     DOI: 10.1021/acs.jctc.9b00143
   
   with help from (in alphabetical order)
   C. Bannwarth, F. Bohle, G. Brandenburg, E. Caldeweyher, M. Checinski,
   S. Dohm, S. Ehlert, S. Ehrlich, F. März, H. Neugebauer, J. Pisarek,
   P. Pracht, P. Shushkov, and S. Spicher.
   
 * started run on 2020/11/04 at 07:27:04.633     

           -------------------------------------------------
          |                Calculation Setup                |
           -------------------------------------------------

          program call               : /opt/orca/otool_xtb /tmp/slurm-scratch/freq.283/freq_XTB.xyz --grad -c 0 -u 0 -P 8 --namespace /tmp/slurm-scratch/freq.283/freq --gbsa CH2Cl2
          hostname                   : headnode-pbs
          calculation namespace      : /tmp/slurm-scratch/freq.283/freq
          coordinate file            : /tmp/slurm-scratch/freq.283/freq_XTB.xyz
          omp threads                :                     8
          number of atoms            :                    43
          number of electrons        :                    96
          charge                     :                     0
          spin                       :                   0.0
          first test random number   :      0.62101633091755


molecular fragmentation (1/2 indicates fragments):
1111111111111221111111111222222222222221111
# atoms in fragment 1/2:    27    16
 fragment masses (1/2) :      161.24       73.14
CMA distance (Bohr)    :   9.466
constraining FC (au)   :  0.0500

########################################################################
# WARNING! Please study the warnings concerning your input carefully
#  - Process number higher than OMP_NUM_THREADS, I hope you know what you are doing.
########################################################################

           ------------------------------------------------- 
          |                 G F N 2 - x T B                 |
          | Geometry, Frequencies, Noncovalent interactions |
          |            JCTC 2019 parametrisation            |
           ------------------------------------------------- 
             k(s)              :                1.8500
             k(p)              :                2.2300
             k(d)              :                2.2300
             k(f)              :                2.0000
             kEN (H0ij)        :               -2.0000
             D4 a1             :                0.5200
             D4 a2             :                5.0000
             D4 s6             :                1.0000
             D4 s8             :                2.7000
             D4 s9             :                5.0000
             alphaj            :                2.0000

  Z AO/shell   Hii/eV     exponent
  1     Wed Apr 25 08:07:45 CEST 2018   EN: 2.200 GM2: 0.406  GM3: 0.0800  RAES: 1.40
     1s    -10.707211    1.230000
  6     Wed Apr 25 08:07:45 CEST 2018   EN: 2.550 GM2: 0.538  GM3: 0.1500  RAES: 3.00
     2s    -13.970922    2.096432
     2p    -10.063292    1.800000
  7     Wed Apr 25 08:07:45 CEST 2018   EN: 3.040 GM2: 0.461  GM3:-0.0640  RAES: 1.90
     2s    -16.686243    2.339881
     2p    -12.523956    2.014332

 Solvent             : CH2Cl2
 Using internal parameter file: .param_gbsa2_CH2Cl2
 Gsolv ref. state (COSMO-RS): gsolv [1 M gas/solution]
 temperature (mdtemp)       :    298.150000000000     
 dielectric constant        :    8.93000000000000     
 rho                        :    1.33000000000000     
 mass                       :    84.9300000000000     
 surface tension            :    15.5689454083859     
 probe radius               :   0.719875900000000     
 Gshift (Eh)                :   4.440829173451759E-003
 c1                         :    1.49173776000000     
 soset                      :   0.000000000000000E+000
 HB correction              :  F
           ------------------------------------------------- 
          |        Self-Consistent Charge Iterations        |
           ------------------------------------------------- 

          ...................................................
          :                      SETUP                      :
          :.................................................:
          :  # basis functions                  94          :
          :  # atomic orbitals                  94          :
          :  # shells                           60          :
          :  # electrons                        96          :
          :  max. iterations                   250          :
          :  Hamiltonian                  GFN2-xTB          :
          :  GBSA solvation                   true          :
          :  PC potential                    false          :
          :  electronic temp.          300.0000000     K    :
          :  accuracy                    1.0000000          :
          :  -> integral cutoff          0.2500000E+02      :
          :  -> integral neglect         0.1000000E-07      :
          :  -> SCF convergence          0.1000000E-05 Eh   :
          :  -> wf. convergence          0.1000000E-03 e    :
          :  Broyden damping             0.4000000          :
          ...................................................
  Checking positiv definite overlap ...  done.
 

 iter      E             dE          RMSdq      gap      omega  full diag
   1    -51.9208976 -0.519209E+02  0.361E+00    2.97       0.0  T
   2    -51.9843915 -0.634939E-01  0.214E+00    2.86       1.0  T
   3    -51.9822727  0.211878E-02  0.770E-01    2.48       1.0  T
   4    -51.9864258 -0.415307E-02  0.355E-01    2.52       1.0  T
   5    -51.9896830 -0.325720E-02  0.693E-02    2.46       1.0  T
   6    -51.9896986 -0.155737E-04  0.336E-02    2.48       1.0  T
   7    -51.9897083 -0.973387E-05  0.144E-02    2.48       1.1  T
   8    -51.9897104 -0.210846E-05  0.364E-03    2.48       4.2  T
   9    -51.9897106 -0.174553E-06  0.145E-03    2.48      10.5  T
  10    -51.9897106 -0.347153E-08  0.808E-04    2.48      18.9  T
  11    -51.9897106 -0.771707E-08  0.287E-04    2.48      53.1  T

   *** convergence criteria satisfied after 11 iterations ***

         #    Occupation            Energy/Eh            Energy/eV
      -------------------------------------------------------------
         1        2.0000           -0.6509609             -17.7135
       ...           ...                  ...                  ...
        42        2.0000           -0.4262031             -11.5976
        43        2.0000           -0.4233579             -11.5202
        44        2.0000           -0.4195288             -11.4160
        45        2.0000           -0.4080746             -11.1043
        46        2.0000           -0.3999388             -10.8829
        47        2.0000           -0.3829926             -10.4218
        48        2.0000           -0.3638633              -9.9012 (HOMO)
        49                         -0.2726689              -7.4197 (LUMO)
        50                         -0.2278353              -6.1997
        51                         -0.1902952              -5.1782
        52                         -0.0880645              -2.3964
        53                          0.0273923               0.7454
       ...                                ...                  ...
        94                          0.6501834              17.6924
      -------------------------------------------------------------
                  HL-Gap            0.0911944 Eh            2.4815 eV
             Fermi-level           -0.3182661 Eh           -8.6605 eV

 SCC (total)                   0 d,  0 h,  0 min,  0.058 sec
 SCC setup                      ...        0 min,  0.002 sec (  3.681%)
 Dispersion                     ...        0 min,  0.001 sec (  1.313%)
 integral evaluation            ...        0 min,  0.013 sec ( 22.936%)
 zeroth order Hamiltonian       ...        0 min,  0.000 sec (  0.028%)
 iterations                     ...        0 min,  0.027 sec ( 47.309%)
 molecular gradient             ...        0 min,  0.014 sec ( 23.682%)
 printout                       ...        0 min,  0.001 sec (  0.935%)

         :::::::::::::::::::::::::::::::::::::::::::::::::::::
         ::                     SUMMARY                     ::
         :::::::::::::::::::::::::::::::::::::::::::::::::::::
         :: total energy             -51.210837150511 Eh    ::
         :: total w/o Gsasa/hb       -51.189160412771 Eh    ::
         :: gradient norm              0.027634885017 Eh/a0 ::
         :: HOMO-LUMO gap              2.481527144711 eV    ::
         ::.................................................::
         :: SCC energy               -52.011387356727 Eh    ::
         :: -> isotropic ES            0.026608936666 Eh    ::
         :: -> anisotropic ES          0.008686589093 Eh    ::
         :: -> anisotropic XC          0.041100391303 Eh    ::
         :: -> dispersion             -0.035091473958 Eh    ::
         :: -> Gsolv                  -0.024728165480 Eh    ::
         ::    -> Gborn               -0.003051427740 Eh    ::
         ::    -> Gsasa               -0.026117566913 Eh    ::
         ::    -> Ghb                  0.000000000000 Eh    ::
         ::    -> Gshift               0.004440829173 Eh    ::
         :: repulsion energy           0.800271867149 Eh    ::
         :: add. restraining           0.000000000000 Eh    ::
         :::::::::::::::::::::::::::::::::::::::::::::::::::::

           -------------------------------------------------
          |                Property Printout                |
           -------------------------------------------------

    * Orbital Energies and Occupations

         #    Occupation            Energy/Eh            Energy/eV
      -------------------------------------------------------------
         1        2.0000           -0.6509609             -17.7135
       ...           ...                  ...                  ...
        36        2.0000           -0.4476318             -12.1807
        37        2.0000           -0.4414862             -12.0134
        38        2.0000           -0.4399714             -11.9722
        39        2.0000           -0.4347701             -11.8307
        40        2.0000           -0.4332780             -11.7901
        41        2.0000           -0.4292604             -11.6808
        42        2.0000           -0.4262031             -11.5976
        43        2.0000           -0.4233579             -11.5202
        44        2.0000           -0.4195288             -11.4160
        45        2.0000           -0.4080746             -11.1043
        46        2.0000           -0.3999388             -10.8829
        47        2.0000           -0.3829926             -10.4218
        48        2.0000           -0.3638633              -9.9012 (HOMO)
        49                         -0.2726689              -7.4197 (LUMO)
        50                         -0.2278353              -6.1997
        51                         -0.1902952              -5.1782
        52                         -0.0880645              -2.3964
        53                          0.0273923               0.7454
        54                          0.0378397               1.0297
        55                          0.0791454               2.1537
        56                          0.0842983               2.2939
        57                          0.0957038               2.6042
        58                          0.1006670               2.7393
        59                          0.1181993               3.2164
       ...                                ...                  ...
        94                          0.6501834              17.6924
      -------------------------------------------------------------
                  HL-Gap            0.0911944 Eh            2.4815 eV
             Fermi-level           -0.3182661 Eh           -8.6605 eV

     #   Z        covCN         q      C6AA      α(0)
     1   6 C      2.913    -0.029    28.733     8.790
     2   6 C      2.922    -0.030    28.758     8.794
     3   6 C      2.970     0.004    27.940     8.670
     4   6 C      2.917    -0.028    28.703     8.785
     5   6 C      2.914    -0.027    28.679     8.782
     6   6 C      2.915    -0.025    28.620     8.773
     7   1 H      0.925     0.035     2.510     2.478
     8   1 H      0.926     0.063     2.165     2.301
     9   1 H      0.925     0.043     2.409     2.427
    10   7 N      1.825    -0.265    27.741     7.804
    11   6 C      3.767     0.026    20.173     6.401
    12   1 H      0.924     0.006     2.960     2.691
    13   1 H      0.924     0.035     2.512     2.479
    14   1 H      0.860     0.169     1.276     1.770
    15   1 H      0.860     0.133     1.524     1.934
    16   6 C      2.858     0.079    26.236     8.395
    17   1 H      0.924    -0.000     3.059     2.735
    18   6 C      3.803    -0.057    21.596     6.616
    19   1 H      0.924     0.030     2.582     2.513
    20   1 H      0.924     0.048     2.339     2.392
    21   6 C      3.800    -0.050    21.469     6.597
    22   1 H      0.924     0.030     2.584     2.514
    23   1 H      0.924     0.029     2.603     2.523
    24   1 H      0.925     0.040     2.443     2.444
    25   1 H      0.925     0.045     2.388     2.417
    26   6 C      3.731     0.017    20.384     6.445
    27   1 H      0.924     0.027     2.626     2.534
    28   1 H      0.924     0.028     2.616     2.529
    29   6 C      3.800    -0.067    21.783     6.645
    30   1 H      0.924     0.023     2.684     2.562
    31   1 H      0.924     0.033     2.548     2.496
    32   6 C      3.800    -0.051    21.496     6.601
    33   1 H      0.924     0.028     2.612     2.527
    34   1 H      0.924     0.028     2.616     2.529
    35   7 N      2.627    -0.381    29.848     8.114
    36   6 C      3.749    -0.100    22.470     6.761
    37   1 H      0.924     0.035     2.521     2.483
    38   1 H      0.924     0.035     2.510     2.478
    39   1 H      0.924     0.032     2.560     2.502
    40   6 C      3.750    -0.101    22.497     6.765
    41   1 H      0.924     0.037     2.485     2.465
    42   1 H      0.924     0.039     2.466     2.456
    43   1 H      0.924     0.034     2.532     2.488

 Mol. C6AA /au·bohr⁶  :      15755.147313
 Mol. C8AA /au·bohr⁸  :     348642.854384
 Mol. α(0) /au        :        193.406566


Wiberg/Mayer (AO) data.
largest (>0.10) Wiberg bond orders for each atom
          total WBO             WBO to atom ...
     1  C   3.991        C    2 1.451    C    6 1.437    H   24 0.970    C    4 0.106
     2  C   3.987        C    1 1.451    C    3 1.380    H    7 0.968    C    5 0.105
     3  C   3.988        C    2 1.380    C    4 1.366    C   16 1.084
     4  C   3.988        C    5 1.465    C    3 1.366    H    8 0.963    C    1 0.106
     5  C   3.991        C    4 1.465    C    6 1.423    H   25 0.970    C    2 0.105
     6  C   3.988        C    1 1.437    C    5 1.423    H    9 0.971
     7  H   0.999        C    2 0.968
     8  H   0.996        C    4 0.963
     9  H   0.998        C    6 0.971
    10  N   3.076        C   16 1.839    C   11 1.022
    11  C   3.985        N   10 1.022    C   18 0.986    H   12 0.965    H   13 0.958
    12  H   1.000        C   11 0.965
    13  H   0.996        C   11 0.958
    14  H   0.971        N   35 0.941
    15  H   0.982        N   35 0.969
    16  C   3.968        N   10 1.839    C    3 1.084    H   17 0.940
    17  H   1.000        C   16 0.940
    18  C   3.990        C   21 1.006    C   11 0.986    H   19 0.978    H   20 0.971
    19  H   0.999        C   18 0.978
    20  H   0.998        C   18 0.971
    21  C   3.996        C   40 1.019    C   18 1.006    H   23 0.978    H   22 0.976
    22  H   0.999        C   21 0.976
    23  H   0.999        C   21 0.978
    24  H   0.998        C    1 0.970
    25  H   0.998        C    5 0.970
    26  C   3.986        N   35 1.025    C   29 0.995    H   27 0.975    H   28 0.974
    27  H   0.999        C   26 0.975
    28  H   0.999        C   26 0.974
    29  C   3.997        C   32 1.007    C   26 0.995    H   30 0.977    H   31 0.972
    30  H   0.999        C   29 0.977
    31  H   0.999        C   29 0.972
    32  C   3.997        C   36 1.019    C   29 1.007    H   34 0.978    H   33 0.976
    33  H   0.999        C   32 0.976
    34  H   0.999        C   32 0.978
    35  N   2.996        C   26 1.025    H   15 0.969    H   14 0.941
    36  C   3.997        C   32 1.019    H   39 0.988    H   37 0.987    H   38 0.986
    37  H   0.998        C   36 0.987
    38  H   0.999        C   36 0.986
    39  H   0.999        C   36 0.988
    40  C   3.995        C   21 1.019    H   43 0.988    H   41 0.987    H   42 0.986
    41  H   0.998        C   40 0.987
    42  H   0.998        C   40 0.986
    43  H   0.999        C   40 0.988

molecular dipole:
                 x           y           z       tot (Debye)
 q only:        0.116       0.248       0.056
   full:       -0.250       0.748      -0.199       2.066
molecular quadrupole (traceless):
                xx          xy          yy          xz          yz          zz
 q only:        8.489       1.903      -4.699      -1.833      -0.241      -3.790
  q+dip:        9.826       1.419      -1.715       1.265       1.651      -8.111
   full:        9.225       1.590      -4.682       0.560       1.762      -4.543

           -------------------------------------------------
          |                Property Printout                |
           -------------------------------------------------

    * Orbital Energies and Occupations

         #    Occupation            Energy/Eh            Energy/eV
      -------------------------------------------------------------
         1        2.0000           -0.6509609             -17.7135
       ...           ...                  ...                  ...
        36        2.0000           -0.4476318             -12.1807
        37        2.0000           -0.4414862             -12.0134
        38        2.0000           -0.4399714             -11.9722
        39        2.0000           -0.4347701             -11.8307
        40        2.0000           -0.4332780             -11.7901
        41        2.0000           -0.4292604             -11.6808
        42        2.0000           -0.4262031             -11.5976
        43        2.0000           -0.4233579             -11.5202
        44        2.0000           -0.4195288             -11.4160
        45        2.0000           -0.4080746             -11.1043
        46        2.0000           -0.3999388             -10.8829
        47        2.0000           -0.3829926             -10.4218
        48        2.0000           -0.3638633              -9.9012 (HOMO)
        49                         -0.2726689              -7.4197 (LUMO)
        50                         -0.2278353              -6.1997
        51                         -0.1902952              -5.1782
        52                         -0.0880645              -2.3964
        53                          0.0273923               0.7454
        54                          0.0378397               1.0297
        55                          0.0791454               2.1537
        56                          0.0842983               2.2939
        57                          0.0957038               2.6042
        58                          0.1006670               2.7393
        59                          0.1181993               3.2164
       ...                                ...                  ...
        94                          0.6501834              17.6924
      -------------------------------------------------------------
                  HL-Gap            0.0911944 Eh            2.4815 eV
             Fermi-level           -0.3182661 Eh           -8.6605 eV

     #   Z        covCN         q      C6AA      α(0)
     1   6 C      2.913    -0.029    28.733     8.790
     2   6 C      2.922    -0.030    28.758     8.794
     3   6 C      2.970     0.004    27.940     8.670
     4   6 C      2.917    -0.028    28.703     8.785
     5   6 C      2.914    -0.027    28.679     8.782
     6   6 C      2.915    -0.025    28.620     8.773
     7   1 H      0.925     0.035     2.510     2.478
     8   1 H      0.926     0.063     2.165     2.301
     9   1 H      0.925     0.043     2.409     2.427
    10   7 N      1.825    -0.265    27.741     7.804
    11   6 C      3.767     0.026    20.173     6.401
    12   1 H      0.924     0.006     2.960     2.691
    13   1 H      0.924     0.035     2.512     2.479
    14   1 H      0.860     0.169     1.276     1.770
    15   1 H      0.860     0.133     1.524     1.934
    16   6 C      2.858     0.079    26.236     8.395
    17   1 H      0.924    -0.000     3.059     2.735
    18   6 C      3.803    -0.057    21.596     6.616
    19   1 H      0.924     0.030     2.582     2.513
    20   1 H      0.924     0.048     2.339     2.392
    21   6 C      3.800    -0.050    21.469     6.597
    22   1 H      0.924     0.030     2.584     2.514
    23   1 H      0.924     0.029     2.603     2.523
    24   1 H      0.925     0.040     2.443     2.444
    25   1 H      0.925     0.045     2.388     2.417
    26   6 C      3.731     0.017    20.384     6.445
    27   1 H      0.924     0.027     2.626     2.534
    28   1 H      0.924     0.028     2.616     2.529
    29   6 C      3.800    -0.067    21.783     6.645
    30   1 H      0.924     0.023     2.684     2.562
    31   1 H      0.924     0.033     2.548     2.496
    32   6 C      3.800    -0.051    21.496     6.601
    33   1 H      0.924     0.028     2.612     2.527
    34   1 H      0.924     0.028     2.616     2.529
    35   7 N      2.627    -0.381    29.848     8.114
    36   6 C      3.749    -0.100    22.470     6.761
    37   1 H      0.924     0.035     2.521     2.483
    38   1 H      0.924     0.035     2.510     2.478
    39   1 H      0.924     0.032     2.560     2.502
    40   6 C      3.750    -0.101    22.497     6.765
    41   1 H      0.924     0.037     2.485     2.465
    42   1 H      0.924     0.039     2.466     2.456
    43   1 H      0.924     0.034     2.532     2.488

 Mol. C6AA /au·bohr⁶  :      15755.147313
 Mol. C8AA /au·bohr⁸  :     348642.854384
 Mol. α(0) /au        :        193.406566


Wiberg/Mayer (AO) data.
largest (>0.10) Wiberg bond orders for each atom
          total WBO             WBO to atom ...
     1  C   3.991        C    2 1.451    C    6 1.437    H   24 0.970    C    4 0.106
     2  C   3.987        C    1 1.451    C    3 1.380    H    7 0.968    C    5 0.105
     3  C   3.988        C    2 1.380    C    4 1.366    C   16 1.084
     4  C   3.988        C    5 1.465    C    3 1.366    H    8 0.963    C    1 0.106
     5  C   3.991        C    4 1.465    C    6 1.423    H   25 0.970    C    2 0.105
     6  C   3.988        C    1 1.437    C    5 1.423    H    9 0.971
     7  H   0.999        C    2 0.968
     8  H   0.996        C    4 0.963
     9  H   0.998        C    6 0.971
    10  N   3.076        C   16 1.839    C   11 1.022
    11  C   3.985        N   10 1.022    C   18 0.986    H   12 0.965    H   13 0.958
    12  H   1.000        C   11 0.965
    13  H   0.996        C   11 0.958
    14  H   0.971        N   35 0.941
    15  H   0.982        N   35 0.969
    16  C   3.968        N   10 1.839    C    3 1.084    H   17 0.940
    17  H   1.000        C   16 0.940
    18  C   3.990        C   21 1.006    C   11 0.986    H   19 0.978    H   20 0.971
    19  H   0.999        C   18 0.978
    20  H   0.998        C   18 0.971
    21  C   3.996        C   40 1.019    C   18 1.006    H   23 0.978    H   22 0.976
    22  H   0.999        C   21 0.976
    23  H   0.999        C   21 0.978
    24  H   0.998        C    1 0.970
    25  H   0.998        C    5 0.970
    26  C   3.986        N   35 1.025    C   29 0.995    H   27 0.975    H   28 0.974
    27  H   0.999        C   26 0.975
    28  H   0.999        C   26 0.974
    29  C   3.997        C   32 1.007    C   26 0.995    H   30 0.977    H   31 0.972
    30  H   0.999        C   29 0.977
    31  H   0.999        C   29 0.972
    32  C   3.997        C   36 1.019    C   29 1.007    H   34 0.978    H   33 0.976
    33  H   0.999        C   32 0.976
    34  H   0.999        C   32 0.978
    35  N   2.996        C   26 1.025    H   15 0.969    H   14 0.941
    36  C   3.997        C   32 1.019    H   39 0.988    H   37 0.987    H   38 0.986
    37  H   0.998        C   36 0.987
    38  H   0.999        C   36 0.986
    39  H   0.999        C   36 0.988
    40  C   3.995        C   21 1.019    H   43 0.988    H   41 0.987    H   42 0.986
    41  H   0.998        C   40 0.987
    42  H   0.998        C   40 0.986
    43  H   0.999        C   40 0.988

molecular dipole:
                 x           y           z       tot (Debye)
 q only:        0.116       0.248       0.056
   full:       -0.250       0.748      -0.199       2.066
molecular quadrupole (traceless):
                xx          xy          yy          xz          yz          zz
 q only:        8.489       1.903      -4.699      -1.833      -0.241      -3.790
  q+dip:        9.826       1.419      -1.715       1.265       1.651      -8.111
   full:        9.225       1.590      -4.682       0.560       1.762      -4.543


           -------------------------------------------------
          | TOTAL ENERGY              -51.210837150511 Eh   |
          | GRADIENT NORM               0.027634885017 Eh/α |
          | HOMO-LUMO GAP               2.481527144711 eV   |
           -------------------------------------------------

------------------------------------------------------------------------
 * finished run on 2020/11/04 at 07:27:04.760     
------------------------------------------------------------------------
 total:
 * wall-time:     0 d,  0 h,  0 min,  0.127 sec
 *  cpu-time:     0 d,  0 h,  0 min,  1.021 sec
 * ratio c/w:     8.046 speedup
 SCF:
 * wall-time:     0 d,  0 h,  0 min,  0.059 sec
 *  cpu-time:     0 d,  0 h,  0 min,  0.502 sec
 * ratio c/w:     8.547 speedup


-------------------------   --------------------
FINAL SINGLE POINT ENERGY       -51.210837150510
-------------------------   --------------------


----------------------------------------------------------------------------
                           ORCA NUMERICAL FREQUENCIES
                              (8-process run)
----------------------------------------------------------------------------

Number of atoms                ... 43
Central differences            ... used
Number of displacements        ... 258
Numerical increment            ... 5.000e-03 bohr
IR-spectrum generation         ... on
Raman-spectrum generation      ... off
Surface Crossing Hessian       ... off
List of participating nodes    ...  /tmp/slurm-scratch/freq.283/freq.hostnames

The output will be reduced. Please look at the following files:
SCF program output             ... >/tmp/slurm-scratch/freq.283/freq.lastscf
Integral program output        ... >/tmp/slurm-scratch/freq.283/freq.lastint
Gradient program output        ... >/tmp/slurm-scratch/freq.283/freq.lastgrad
Dipole moment program output   ... >/tmp/slurm-scratch/freq.283/freq.lastmom
AutoCI program output          ... >/tmp/slurm-scratch/freq.283/freq.lastautoci


         <<< Energy and Gradient at the input geometry >>>

        <<< Energy and Gradient at displaced geometries >>>
             <<<Displacing   2/coordinate 1 (+)>>>
             <<<Displacing   3/coordinate 2 (+)>>>
             <<<Displacing   2/coordinate 1 (-)>>>
             <<<Displacing   3/coordinate 2 (-)>>>
             <<<Displacing   2/coordinate 2 (+)>>>
             <<<Displacing   2/coordinate 2 (-)>>>
             <<<Displacing   3/coordinate 1 (+)>>>
             <<<Displacing   1/coordinate 3 (+)>>>
             <<<Displacing   3/coordinate 1 (-)>>>
             <<<Displacing   1/coordinate 1 (+)>>>
             <<<Displacing   2/coordinate 3 (+)>>>
             <<<Displacing   1/coordinate 2 (+)>>>
             <<<Displacing   1/coordinate 3 (-)>>>
             <<<Displacing   1/coordinate 1 (-)>>>
             <<<Displacing   2/coordinate 3 (-)>>>
             <<<Displacing   1/coordinate 2 (-)>>>
             <<<Displacing   4/coordinate 1 (+)>>>
             <<<Displacing   4/coordinate 1 (-)>>>
             <<<Displacing   3/coordinate 3 (+)>>>
             <<<Displacing   3/coordinate 3 (-)>>>
             <<<Displacing   4/coordinate 2 (+)>>>
             <<<Displacing   4/coordinate 3 (+)>>>
             <<<Displacing   4/coordinate 2 (-)>>>
             <<<Displacing   5/coordinate 2 (+)>>>
             <<<Displacing   4/coordinate 3 (-)>>>
             <<<Displacing   5/coordinate 2 (-)>>>
             <<<Displacing   5/coordinate 3 (+)>>>
             <<<Displacing   6/coordinate 1 (+)>>>
             <<<Displacing   5/coordinate 3 (-)>>>
             <<<Displacing   5/coordinate 1 (+)>>>
             <<<Displacing   6/coordinate 1 (-)>>>
             <<<Displacing   5/coordinate 1 (-)>>>
             <<<Displacing   6/coordinate 2 (+)>>>
             <<<Displacing   6/coordinate 2 (-)>>>
             <<<Displacing   6/coordinate 3 (+)>>>
             <<<Displacing   6/coordinate 3 (-)>>>
             <<<Displacing   7/coordinate 2 (+)>>>
             <<<Displacing   7/coordinate 3 (+)>>>
             <<<Displacing   7/coordinate 2 (-)>>>
             <<<Displacing   7/coordinate 3 (-)>>>
             <<<Displacing   7/coordinate 1 (+)>>>
             <<<Displacing   7/coordinate 1 (-)>>>
             <<<Displacing   8/coordinate 1 (+)>>>
             <<<Displacing   8/coordinate 3 (+)>>>
             <<<Displacing   8/coordinate 1 (-)>>>
             <<<Displacing   8/coordinate 3 (-)>>>
             <<<Displacing   8/coordinate 2 (+)>>>
             <<<Displacing   8/coordinate 2 (-)>>>
             <<<Displacing   9/coordinate 1 (+)>>>
             <<<Displacing   9/coordinate 2 (+)>>>
             <<<Displacing  10/coordinate 1 (+)>>>
             <<<Displacing   9/coordinate 1 (-)>>>
             <<<Displacing  10/coordinate 3 (+)>>>
             <<<Displacing  10/coordinate 1 (-)>>>
             <<<Displacing   9/coordinate 2 (-)>>>
             <<<Displacing  10/coordinate 2 (+)>>>
             <<<Displacing  10/coordinate 3 (-)>>>
             <<<Displacing   9/coordinate 3 (+)>>>
             <<<Displacing  10/coordinate 2 (-)>>>
             <<<Displacing   9/coordinate 3 (-)>>>
             <<<Displacing  11/coordinate 1 (+)>>>
             <<<Displacing  11/coordinate 1 (-)>>>
             <<<Displacing  11/coordinate 2 (+)>>>
             <<<Displacing  11/coordinate 2 (-)>>>
             <<<Displacing  12/coordinate 1 (+)>>>
             <<<Displacing  11/coordinate 3 (+)>>>
             <<<Displacing  12/coordinate 1 (-)>>>
             <<<Displacing  11/coordinate 3 (-)>>>
             <<<Displacing  13/coordinate 2 (+)>>>
             <<<Displacing  12/coordinate 3 (+)>>>
             <<<Displacing  13/coordinate 1 (+)>>>
             <<<Displacing  12/coordinate 2 (+)>>>
             <<<Displacing  13/coordinate 2 (-)>>>
             <<<Displacing  13/coordinate 1 (-)>>>
             <<<Displacing  12/coordinate 3 (-)>>>
             <<<Displacing  12/coordinate 2 (-)>>>
             <<<Displacing  13/coordinate 3 (+)>>>
             <<<Displacing  13/coordinate 3 (-)>>>
             <<<Displacing  14/coordinate 1 (+)>>>
             <<<Displacing  14/coordinate 1 (-)>>>
             <<<Displacing  14/coordinate 2 (+)>>>
             <<<Displacing  14/coordinate 3 (+)>>>
             <<<Displacing  14/coordinate 2 (-)>>>
             <<<Displacing  14/coordinate 3 (-)>>>
             <<<Displacing  15/coordinate 1 (+)>>>
             <<<Displacing  15/coordinate 2 (+)>>>
             <<<Displacing  15/coordinate 1 (-)>>>
             <<<Displacing  15/coordinate 2 (-)>>>
             <<<Displacing  16/coordinate 2 (+)>>>
             <<<Displacing  15/coordinate 3 (+)>>>
             <<<Displacing  16/coordinate 1 (+)>>>
             <<<Displacing  16/coordinate 3 (+)>>>
             <<<Displacing  16/coordinate 2 (-)>>>
             <<<Displacing  15/coordinate 3 (-)>>>
             <<<Displacing  16/coordinate 1 (-)>>>
             <<<Displacing  16/coordinate 3 (-)>>>
             <<<Displacing  17/coordinate 2 (+)>>>
             <<<Displacing  17/coordinate 2 (-)>>>
             <<<Displacing  17/coordinate 1 (+)>>>
             <<<Displacing  17/coordinate 1 (-)>>>
             <<<Displacing  18/coordinate 2 (+)>>>
             <<<Displacing  17/coordinate 3 (+)>>>
             <<<Displacing  19/coordinate 1 (+)>>>
             <<<Displacing  18/coordinate 1 (+)>>>
             <<<Displacing  18/coordinate 2 (-)>>>
             <<<Displacing  19/coordinate 2 (+)>>>
             <<<Displacing  17/coordinate 3 (-)>>>
             <<<Displacing  19/coordinate 1 (-)>>>
             <<<Displacing  18/coordinate 1 (-)>>>
             <<<Displacing  19/coordinate 2 (-)>>>
             <<<Displacing  18/coordinate 3 (+)>>>
             <<<Displacing  18/coordinate 3 (-)>>>
             <<<Displacing  19/coordinate 3 (+)>>>
             <<<Displacing  20/coordinate 1 (+)>>>
             <<<Displacing  19/coordinate 3 (-)>>>
             <<<Displacing  21/coordinate 1 (+)>>>
             <<<Displacing  20/coordinate 3 (+)>>>
             <<<Displacing  20/coordinate 1 (-)>>>
             <<<Displacing  21/coordinate 1 (-)>>>
             <<<Displacing  20/coordinate 3 (-)>>>
             <<<Displacing  20/coordinate 2 (+)>>>
             <<<Displacing  21/coordinate 3 (+)>>>
             <<<Displacing  21/coordinate 2 (+)>>>
             <<<Displacing  20/coordinate 2 (-)>>>
             <<<Displacing  21/coordinate 3 (-)>>>
             <<<Displacing  21/coordinate 2 (-)>>>
             <<<Displacing  22/coordinate 1 (+)>>>
             <<<Displacing  22/coordinate 1 (-)>>>
             <<<Displacing  22/coordinate 2 (+)>>>
             <<<Displacing  22/coordinate 2 (-)>>>
             <<<Displacing  22/coordinate 3 (+)>>>
             <<<Displacing  23/coordinate 1 (+)>>>
             <<<Displacing  22/coordinate 3 (-)>>>
             <<<Displacing  23/coordinate 1 (-)>>>
             <<<Displacing  23/coordinate 2 (+)>>>
             <<<Displacing  24/coordinate 1 (+)>>>
             <<<Displacing  23/coordinate 3 (+)>>>
             <<<Displacing  23/coordinate 2 (-)>>>
             <<<Displacing  24/coordinate 2 (+)>>>
             <<<Displacing  24/coordinate 1 (-)>>>
             <<<Displacing  23/coordinate 3 (-)>>>
             <<<Displacing  24/coordinate 2 (-)>>>
             <<<Displacing  24/coordinate 3 (+)>>>
             <<<Displacing  24/coordinate 3 (-)>>>
             <<<Displacing  25/coordinate 2 (+)>>>
             <<<Displacing  25/coordinate 2 (-)>>>
             <<<Displacing  25/coordinate 1 (+)>>>
             <<<Displacing  25/coordinate 3 (+)>>>
             <<<Displacing  26/coordinate 1 (+)>>>
             <<<Displacing  25/coordinate 1 (-)>>>
             <<<Displacing  25/coordinate 3 (-)>>>
             <<<Displacing  26/coordinate 1 (-)>>>
             <<<Displacing  26/coordinate 2 (+)>>>
             <<<Displacing  26/coordinate 2 (-)>>>
             <<<Displacing  26/coordinate 3 (+)>>>
             <<<Displacing  27/coordinate 1 (+)>>>
             <<<Displacing  26/coordinate 3 (-)>>>
             <<<Displacing  27/coordinate 1 (-)>>>
             <<<Displacing  27/coordinate 2 (+)>>>
             <<<Displacing  27/coordinate 2 (-)>>>
             <<<Displacing  27/coordinate 3 (+)>>>
             <<<Displacing  28/coordinate 3 (+)>>>
             <<<Displacing  28/coordinate 1 (+)>>>
             <<<Displacing  27/coordinate 3 (-)>>>
             <<<Displacing  28/coordinate 2 (+)>>>
             <<<Displacing  28/coordinate 1 (-)>>>
             <<<Displacing  28/coordinate 3 (-)>>>
             <<<Displacing  28/coordinate 2 (-)>>>
             <<<Displacing  29/coordinate 1 (+)>>>
             <<<Displacing  29/coordinate 1 (-)>>>
             <<<Displacing  29/coordinate 2 (+)>>>
             <<<Displacing  29/coordinate 2 (-)>>>
             <<<Displacing  29/coordinate 3 (+)>>>
             <<<Displacing  30/coordinate 1 (+)>>>
             <<<Displacing  29/coordinate 3 (-)>>>
             <<<Displacing  30/coordinate 1 (-)>>>
             <<<Displacing  31/coordinate 1 (+)>>>
             <<<Displacing  30/coordinate 2 (+)>>>
             <<<Displacing  30/coordinate 3 (+)>>>
             <<<Displacing  31/coordinate 2 (+)>>>
             <<<Displacing  31/coordinate 1 (-)>>>
             <<<Displacing  30/coordinate 2 (-)>>>
             <<<Displacing  31/coordinate 2 (-)>>>
             <<<Displacing  30/coordinate 3 (-)>>>
             <<<Displacing  31/coordinate 3 (+)>>>
             <<<Displacing  31/coordinate 3 (-)>>>
             <<<Displacing  32/coordinate 1 (+)>>>
             <<<Displacing  32/coordinate 1 (-)>>>
             <<<Displacing  32/coordinate 2 (+)>>>
             <<<Displacing  32/coordinate 2 (-)>>>
             <<<Displacing  32/coordinate 3 (+)>>>
             <<<Displacing  32/coordinate 3 (-)>>>
             <<<Displacing  33/coordinate 1 (+)>>>
             <<<Displacing  33/coordinate 1 (-)>>>
             <<<Displacing  33/coordinate 3 (+)>>>
             <<<Displacing  33/coordinate 3 (-)>>>
             <<<Displacing  34/coordinate 1 (+)>>>
             <<<Displacing  33/coordinate 2 (+)>>>
             <<<Displacing  34/coordinate 1 (-)>>>
             <<<Displacing  33/coordinate 2 (-)>>>
             <<<Displacing  34/coordinate 2 (+)>>>
             <<<Displacing  34/coordinate 2 (-)>>>
             <<<Displacing  34/coordinate 3 (+)>>>
             <<<Displacing  34/coordinate 3 (-)>>>
             <<<Displacing  35/coordinate 1 (+)>>>
             <<<Displacing  35/coordinate 1 (-)>>>
             <<<Displacing  35/coordinate 2 (+)>>>
             <<<Displacing  35/coordinate 2 (-)>>>
             <<<Displacing  36/coordinate 1 (+)>>>
             <<<Displacing  35/coordinate 3 (+)>>>
             <<<Displacing  36/coordinate 1 (-)>>>
             <<<Displacing  35/coordinate 3 (-)>>>
             <<<Displacing  36/coordinate 2 (+)>>>
             <<<Displacing  36/coordinate 3 (+)>>>
             <<<Displacing  36/coordinate 2 (-)>>>
             <<<Displacing  36/coordinate 3 (-)>>>
             <<<Displacing  37/coordinate 2 (+)>>>
             <<<Displacing  37/coordinate 1 (+)>>>
             <<<Displacing  37/coordinate 2 (-)>>>
             <<<Displacing  37/coordinate 1 (-)>>>
             <<<Displacing  37/coordinate 3 (+)>>>
             <<<Displacing  37/coordinate 3 (-)>>>
             <<<Displacing  38/coordinate 1 (+)>>>
             <<<Displacing  38/coordinate 1 (-)>>>
             <<<Displacing  38/coordinate 2 (+)>>>
             <<<Displacing  39/coordinate 1 (+)>>>
             <<<Displacing  38/coordinate 2 (-)>>>
             <<<Displacing  39/coordinate 1 (-)>>>
             <<<Displacing  39/coordinate 2 (+)>>>
             <<<Displacing  38/coordinate 3 (+)>>>
             <<<Displacing  39/coordinate 2 (-)>>>
             <<<Displacing  38/coordinate 3 (-)>>>
             <<<Displacing  40/coordinate 1 (+)>>>
             <<<Displacing  40/coordinate 1 (-)>>>
             <<<Displacing  39/coordinate 3 (+)>>>
             <<<Displacing  39/coordinate 3 (-)>>>
             <<<Displacing  40/coordinate 2 (+)>>>
             <<<Displacing  40/coordinate 2 (-)>>>
             <<<Displacing  40/coordinate 3 (+)>>>
             <<<Displacing  40/coordinate 3 (-)>>>
             <<<Displacing  41/coordinate 2 (+)>>>
             <<<Displacing  41/coordinate 1 (+)>>>
             <<<Displacing  41/coordinate 2 (-)>>>
             <<<Displacing  41/coordinate 1 (-)>>>
             <<<Displacing  41/coordinate 3 (+)>>>
             <<<Displacing  41/coordinate 3 (-)>>>
             <<<Displacing  42/coordinate 2 (+)>>>
             <<<Displacing  42/coordinate 1 (+)>>>
             <<<Displacing  42/coordinate 2 (-)>>>
             <<<Displacing  42/coordinate 1 (-)>>>
             <<<Displacing  42/coordinate 3 (+)>>>
             <<<Displacing  42/coordinate 3 (-)>>>
             <<<Displacing  43/coordinate 1 (+)>>>
             <<<Displacing  43/coordinate 1 (-)>>>
             <<<Displacing  43/coordinate 2 (+)>>>
             <<<Displacing  43/coordinate 2 (-)>>>
             <<<Displacing  43/coordinate 3 (+)>>>
             <<<Displacing  43/coordinate 3 (-)>>>

-----------------------
VIBRATIONAL FREQUENCIES
-----------------------

Scaling factor for frequencies =  1.000000000 (already applied!)

   0:         0.00 cm**-1
   1:         0.00 cm**-1
   2:         0.00 cm**-1
   3:         0.00 cm**-1
   4:         0.00 cm**-1
   5:         0.00 cm**-1
   6:        33.88 cm**-1
   7:        37.33 cm**-1
   8:        47.53 cm**-1
   9:        57.70 cm**-1
  10:        60.11 cm**-1
  11:        65.44 cm**-1
  12:        76.72 cm**-1
  13:        86.50 cm**-1
  14:       100.90 cm**-1
  15:       116.14 cm**-1
  16:       126.34 cm**-1
  17:       144.78 cm**-1
  18:       158.21 cm**-1
  19:       162.71 cm**-1
  20:       204.04 cm**-1
  21:       217.05 cm**-1
  22:       264.90 cm**-1
  23:       268.56 cm**-1
  24:       270.36 cm**-1
  25:       283.40 cm**-1
  26:       369.23 cm**-1
  27:       380.50 cm**-1
  28:       382.41 cm**-1
  29:       391.42 cm**-1
  30:       426.83 cm**-1
  31:       434.64 cm**-1
  32:       460.89 cm**-1
  33:       509.12 cm**-1
  34:       588.53 cm**-1
  35:       624.78 cm**-1
  36:       665.13 cm**-1
  37:       758.21 cm**-1
  38:       761.01 cm**-1
  39:       772.24 cm**-1
  40:       816.08 cm**-1
  41:       822.93 cm**-1
  42:       857.35 cm**-1
  43:       879.06 cm**-1
  44:       905.62 cm**-1
  45:       918.31 cm**-1
  46:       924.01 cm**-1
  47:       932.45 cm**-1
  48:       933.93 cm**-1
  49:       941.43 cm**-1
  50:       942.63 cm**-1
  51:       950.79 cm**-1
  52:       973.15 cm**-1
  53:       983.22 cm**-1
  54:      1018.51 cm**-1
  55:      1019.07 cm**-1
  56:      1059.21 cm**-1
  57:      1068.48 cm**-1
  58:      1071.69 cm**-1
  59:      1085.77 cm**-1
  60:      1099.45 cm**-1
  61:      1105.30 cm**-1
  62:      1117.18 cm**-1
  63:      1126.30 cm**-1
  64:      1136.70 cm**-1
  65:      1143.86 cm**-1
  66:      1179.72 cm**-1
  67:      1187.89 cm**-1
  68:      1207.03 cm**-1
  69:      1209.47 cm**-1
  70:      1217.70 cm**-1
  71:      1250.28 cm**-1
  72:      1262.28 cm**-1
  73:      1269.09 cm**-1
  74:      1271.66 cm**-1
  75:      1276.25 cm**-1
  76:      1277.19 cm**-1
  77:      1280.50 cm**-1
  78:      1293.13 cm**-1
  79:      1312.73 cm**-1
  80:      1324.74 cm**-1
  81:      1335.66 cm**-1
  82:      1355.87 cm**-1
  83:      1368.41 cm**-1
  84:      1371.54 cm**-1
  85:      1422.86 cm**-1
  86:      1426.35 cm**-1
  87:      1427.31 cm**-1
  88:      1454.07 cm**-1
  89:      1475.13 cm**-1
  90:      1495.28 cm**-1
  91:      1498.35 cm**-1
  92:      1503.08 cm**-1
  93:      1504.66 cm**-1
  94:      1506.44 cm**-1
  95:      1509.90 cm**-1
  96:      1511.83 cm**-1
  97:      1513.61 cm**-1
  98:      1517.28 cm**-1
  99:      1559.67 cm**-1
 100:      1564.00 cm**-1
 101:      1566.92 cm**-1
 102:      1669.11 cm**-1
 103:      2856.10 cm**-1
 104:      2878.37 cm**-1
 105:      2932.42 cm**-1
 106:      2939.97 cm**-1
 107:      2941.08 cm**-1
 108:      2942.18 cm**-1
 109:      2946.66 cm**-1
 110:      2959.32 cm**-1
 111:      2962.73 cm**-1
 112:      2965.81 cm**-1
 113:      2967.80 cm**-1
 114:      2975.87 cm**-1
 115:      2979.61 cm**-1
 116:      2981.87 cm**-1
 117:      2985.59 cm**-1
 118:      2986.69 cm**-1
 119:      2993.97 cm**-1
 120:      2997.31 cm**-1
 121:      3000.17 cm**-1
 122:      3048.77 cm**-1
 123:      3056.40 cm**-1
 124:      3063.08 cm**-1
 125:      3072.21 cm**-1
 126:      3088.50 cm**-1
 127:      3328.14 cm**-1
 128:      3401.83 cm**-1


------------
NORMAL MODES
------------

These modes are the cartesian displacements weighted by the diagonal matrix
M(i,i)=1/sqrt(m[i]) where m[i] is the mass of the displaced atom
Thus, these vectors are normalized but *not* orthogonal

                  0          1          2          3          4          5    
      0       0.000000   0.000000   0.000000   0.000000   0.000000   0.000000
      1       0.000000   0.000000   0.000000   0.000000   0.000000   0.000000
      2       0.000000   0.000000   0.000000   0.000000   0.000000   0.000000
      3       0.000000   0.000000   0.000000   0.000000   0.000000   0.000000
      4       0.000000   0.000000   0.000000   0.000000   0.000000   0.000000
      5       0.000000   0.000000   0.000000   0.000000   0.000000   0.000000
      6       0.000000   0.000000   0.000000   0.000000   0.000000   0.000000
      7       0.000000   0.000000   0.000000   0.000000   0.000000   0.000000
      8       0.000000   0.000000   0.000000   0.000000   0.000000   0.000000
      9       0.000000   0.000000   0.000000   0.000000   0.000000   0.000000
     10       0.000000   0.000000   0.000000   0.000000   0.000000   0.000000
     11       0.000000   0.000000   0.000000   0.000000   0.000000   0.000000
     12       0.000000   0.000000   0.000000   0.000000   0.000000   0.000000
     13       0.000000   0.000000   0.000000   0.000000   0.000000   0.000000
     14       0.000000   0.000000   0.000000   0.000000   0.000000   0.000000
     15       0.000000   0.000000   0.000000   0.000000   0.000000   0.000000
     16       0.000000   0.000000   0.000000   0.000000   0.000000   0.000000
     17       0.000000   0.000000   0.000000   0.000000   0.000000   0.000000
     18       0.000000   0.000000   0.000000   0.000000   0.000000   0.000000
     19       0.000000   0.000000   0.000000   0.000000   0.000000   0.000000
     20       0.000000   0.000000   0.000000   0.000000   0.000000   0.000000
     21       0.000000   0.000000   0.000000   0.000000   0.000000   0.000000
     22       0.000000   0.000000   0.000000   0.000000   0.000000   0.000000
     23       0.000000   0.000000   0.000000   0.000000   0.000000   0.000000
     24       0.000000   0.000000   0.000000   0.000000   0.000000   0.000000
     25       0.000000   0.000000   0.000000   0.000000   0.000000   0.000000
     26       0.000000   0.000000   0.000000   0.000000   0.000000   0.000000
     27       0.000000   0.000000   0.000000   0.000000   0.000000   0.000000
     28       0.000000   0.000000   0.000000   0.000000   0.000000   0.000000
     29       0.000000   0.000000   0.000000   0.000000   0.000000   0.000000
     30       0.000000   0.000000   0.000000   0.000000   0.000000   0.000000
     31       0.000000   0.000000   0.000000   0.000000   0.000000   0.000000
     32       0.000000   0.000000   0.000000   0.000000   0.000000   0.000000
     33       0.000000   0.000000   0.000000   0.000000   0.000000   0.000000
     34       0.000000   0.000000   0.000000   0.000000   0.000000   0.000000
     35       0.000000   0.000000   0.000000   0.000000   0.000000   0.000000
     36       0.000000   0.000000   0.000000   0.000000   0.000000   0.000000
     37       0.000000   0.000000   0.000000   0.000000   0.000000   0.000000
     38       0.000000   0.000000   0.000000   0.000000   0.000000   0.000000
     39       0.000000   0.000000   0.000000   0.000000   0.000000   0.000000
     40       0.000000   0.000000   0.000000   0.000000   0.000000   0.000000
     41       0.000000   0.000000   0.000000   0.000000   0.000000   0.000000
     42       0.000000   0.000000   0.000000   0.000000   0.000000   0.000000
     43       0.000000   0.000000   0.000000   0.000000   0.000000   0.000000
     44       0.000000   0.000000   0.000000   0.000000   0.000000   0.000000
     45       0.000000   0.000000   0.000000   0.000000   0.000000   0.000000
     46       0.000000   0.000000   0.000000   0.000000   0.000000   0.000000
     47       0.000000   0.000000   0.000000   0.000000   0.000000   0.000000
     48       0.000000   0.000000   0.000000   0.000000   0.000000   0.000000
     49       0.000000   0.000000   0.000000   0.000000   0.000000   0.000000
     50       0.000000   0.000000   0.000000   0.000000   0.000000   0.000000
     51       0.000000   0.000000   0.000000   0.000000   0.000000   0.000000
     52       0.000000   0.000000   0.000000   0.000000   0.000000   0.000000
     53       0.000000   0.000000   0.000000   0.000000   0.000000   0.000000
     54       0.000000   0.000000   0.000000   0.000000   0.000000   0.000000
     55       0.000000   0.000000   0.000000   0.000000   0.000000   0.000000
     56       0.000000   0.000000   0.000000   0.000000   0.000000   0.000000
     57       0.000000   0.000000   0.000000   0.000000   0.000000   0.000000
     58       0.000000   0.000000   0.000000   0.000000   0.000000   0.000000
     59       0.000000   0.000000   0.000000   0.000000   0.000000   0.000000
     60       0.000000   0.000000   0.000000   0.000000   0.000000   0.000000
     61       0.000000   0.000000   0.000000   0.000000   0.000000   0.000000
     62       0.000000   0.000000   0.000000   0.000000   0.000000   0.000000
     63       0.000000   0.000000   0.000000   0.000000   0.000000   0.000000
     64       0.000000   0.000000   0.000000   0.000000   0.000000   0.000000
     65       0.000000   0.000000   0.000000   0.000000   0.000000   0.000000
     66       0.000000   0.000000   0.000000   0.000000   0.000000   0.000000
     67       0.000000   0.000000   0.000000   0.000000   0.000000   0.000000
     68       0.000000   0.000000   0.000000   0.000000   0.000000   0.000000
     69       0.000000   0.000000   0.000000   0.000000   0.000000   0.000000
     70       0.000000   0.000000   0.000000   0.000000   0.000000   0.000000
     71       0.000000   0.000000   0.000000   0.000000   0.000000   0.000000
     72       0.000000   0.000000   0.000000   0.000000   0.000000   0.000000
     73       0.000000   0.000000   0.000000   0.000000   0.000000   0.000000
     74       0.000000   0.000000   0.000000   0.000000   0.000000   0.000000
     75       0.000000   0.000000   0.000000   0.000000   0.000000   0.000000
     76       0.000000   0.000000   0.000000   0.000000   0.000000   0.000000
     77       0.000000   0.000000   0.000000   0.000000   0.000000   0.000000
     78       0.000000   0.000000   0.000000   0.000000   0.000000   0.000000
     79       0.000000   0.000000   0.000000   0.000000   0.000000   0.000000
     80       0.000000   0.000000   0.000000   0.000000   0.000000   0.000000
     81       0.000000   0.000000   0.000000   0.000000   0.000000   0.000000
     82       0.000000   0.000000   0.000000   0.000000   0.000000   0.000000
     83       0.000000   0.000000   0.000000   0.000000   0.000000   0.000000
     84       0.000000   0.000000   0.000000   0.000000   0.000000   0.000000
     85       0.000000   0.000000   0.000000   0.000000   0.000000   0.000000
     86       0.000000   0.000000   0.000000   0.000000   0.000000   0.000000
     87       0.000000   0.000000   0.000000   0.000000   0.000000   0.000000
     88       0.000000   0.000000   0.000000   0.000000   0.000000   0.000000
     89       0.000000   0.000000   0.000000   0.000000   0.000000   0.000000
     90       0.000000   0.000000   0.000000   0.000000   0.000000   0.000000
     91       0.000000   0.000000   0.000000   0.000000   0.000000   0.000000
     92       0.000000   0.000000   0.000000   0.000000   0.000000   0.000000
     93       0.000000   0.000000   0.000000   0.000000   0.000000   0.000000
     94       0.000000   0.000000   0.000000   0.000000   0.000000   0.000000
     95       0.000000   0.000000   0.000000   0.000000   0.000000   0.000000
     96       0.000000   0.000000   0.000000   0.000000   0.000000   0.000000
     97       0.000000   0.000000   0.000000   0.000000   0.000000   0.000000
     98       0.000000   0.000000   0.000000   0.000000   0.000000   0.000000
     99       0.000000   0.000000   0.000000   0.000000   0.000000   0.000000
    100       0.000000   0.000000   0.000000   0.000000   0.000000   0.000000
    101       0.000000   0.000000   0.000000   0.000000   0.000000   0.000000
    102       0.000000   0.000000   0.000000   0.000000   0.000000   0.000000
    103       0.000000   0.000000   0.000000   0.000000   0.000000   0.000000
    104       0.000000   0.000000   0.000000   0.000000   0.000000   0.000000
    105       0.000000   0.000000   0.000000   0.000000   0.000000   0.000000
    106       0.000000   0.000000   0.000000   0.000000   0.000000   0.000000
    107       0.000000   0.000000   0.000000   0.000000   0.000000   0.000000
    108       0.000000   0.000000   0.000000   0.000000   0.000000   0.000000
    109       0.000000   0.000000   0.000000   0.000000   0.000000   0.000000
    110       0.000000   0.000000   0.000000   0.000000   0.000000   0.000000
    111       0.000000   0.000000   0.000000   0.000000   0.000000   0.000000
    112       0.000000   0.000000   0.000000   0.000000   0.000000   0.000000
    113       0.000000   0.000000   0.000000   0.000000   0.000000   0.000000
    114       0.000000   0.000000   0.000000   0.000000   0.000000   0.000000
    115       0.000000   0.000000   0.000000   0.000000   0.000000   0.000000
    116       0.000000   0.000000   0.000000   0.000000   0.000000   0.000000
    117       0.000000   0.000000   0.000000   0.000000   0.000000   0.000000
    118       0.000000   0.000000   0.000000   0.000000   0.000000   0.000000
    119       0.000000   0.000000   0.000000   0.000000   0.000000   0.000000
    120       0.000000   0.000000   0.000000   0.000000   0.000000   0.000000
    121       0.000000   0.000000   0.000000   0.000000   0.000000   0.000000
    122       0.000000   0.000000   0.000000   0.000000   0.000000   0.000000
    123       0.000000   0.000000   0.000000   0.000000   0.000000   0.000000
    124       0.000000   0.000000   0.000000   0.000000   0.000000   0.000000
    125       0.000000   0.000000   0.000000   0.000000   0.000000   0.000000
    126       0.000000   0.000000   0.000000   0.000000   0.000000   0.000000
    127       0.000000   0.000000   0.000000   0.000000   0.000000   0.000000
    128       0.000000   0.000000   0.000000   0.000000   0.000000   0.000000
                  6          7          8          9         10         11    
      0      -0.042164   0.001952  -0.070445   0.015226  -0.042939   0.012171
      1      -0.102370   0.051067   0.042304   0.007190   0.046960   0.038570
      2       0.014452   0.088800  -0.025442  -0.163758   0.140637  -0.050720
      3      -0.039472   0.001440  -0.073519   0.013047  -0.047108   0.006643
      4      -0.077806   0.033776  -0.004650  -0.001690   0.017575   0.025906
      5       0.020435   0.055680  -0.073301  -0.139651   0.161992   0.039243
      6      -0.060251   0.015404  -0.040036   0.016648  -0.016858   0.021902
      7      -0.061916   0.020713  -0.027354   0.005093  -0.015667   0.014824
      8       0.023451   0.016119  -0.029632   0.005905   0.013970   0.056896
      9      -0.082167   0.028315  -0.004292   0.023254   0.017907   0.044585
     10      -0.071956   0.026286  -0.000691   0.021355  -0.019017   0.016526
     11       0.022747   0.012496   0.064333   0.121802  -0.152131  -0.020552
     12      -0.084346   0.028394  -0.001509   0.025317   0.022185   0.050296
     13      -0.096321   0.043510   0.046194   0.029688   0.010458   0.028143
     14       0.016722   0.047808   0.111409   0.096105  -0.174309  -0.115513
     15      -0.064158   0.015034  -0.034701   0.021278  -0.007954   0.034385
     16      -0.112086   0.056246   0.068299   0.023526   0.042375   0.038944
     17       0.012336   0.084816   0.069681  -0.040711  -0.035405  -0.132899
     18      -0.021519  -0.009508  -0.101845   0.008317  -0.074001  -0.010085
     19      -0.069834   0.029412  -0.024876  -0.014082   0.020462   0.025031
     20       0.021671   0.059349  -0.144772  -0.233189   0.293676   0.096782
     21      -0.093276   0.035721   0.021013   0.025876   0.042119   0.056645
     22      -0.062747   0.018163  -0.017380   0.026182  -0.043712   0.008283
     23       0.026592  -0.022116   0.096186   0.224614  -0.252671  -0.007179
     24      -0.066131   0.015429  -0.032256   0.022797  -0.004433   0.038801
     25      -0.131138   0.069710   0.104918   0.030660   0.064216   0.047553
     26       0.007708   0.109837   0.108112  -0.055987  -0.057294  -0.207468
     27      -0.080689   0.031045  -0.016815   0.016930  -0.005314   0.016689
     28      -0.006148  -0.019531  -0.101154  -0.004069  -0.061857   0.004162
     29       0.001825  -0.029184  -0.025092   0.109735  -0.059982   0.143964
     30      -0.071514   0.026434  -0.025647   0.015692  -0.009049   0.020451
     31       0.033925  -0.044383  -0.138700  -0.012694  -0.071117   0.019031
     32       0.009437  -0.059152  -0.034868   0.091734  -0.046284   0.105831
     33      -0.039692   0.010314  -0.053896   0.012948  -0.015636   0.045685
     34       0.045098  -0.058721  -0.169102  -0.005126  -0.070218   0.025194
     35       0.043077  -0.119032  -0.165823   0.128442  -0.037096   0.115477
     36      -0.086140   0.041111  -0.039778   0.045657  -0.012362   0.050991
     37       0.073123  -0.097237  -0.251500   0.019539  -0.067916   0.041564
     38      -0.009751  -0.030172   0.052126   0.051890  -0.046160   0.072649
     39       0.070520  -0.015781   0.086476   0.067119   0.047870   0.055705
     40       0.066429  -0.082938  -0.108996  -0.056851  -0.076194  -0.161022
     41      -0.192589  -0.134989  -0.010398   0.001711   0.002244   0.041054
     42       0.102294  -0.206552   0.059407   0.009220   0.076006   0.020201
     43       0.021922  -0.012672  -0.102464  -0.042488  -0.135189  -0.126177
     44      -0.124508  -0.258639  -0.020277  -0.024208   0.096206  -0.011510
     45      -0.055766   0.014042  -0.044796   0.013640  -0.020996   0.017147
     46      -0.027977  -0.003328  -0.077076  -0.004871  -0.042908   0.003034
     47       0.027776  -0.019877  -0.068210   0.029597   0.024031   0.112795
     48      -0.029059  -0.002790  -0.076727   0.008644  -0.041454   0.012794
     49      -0.017324  -0.010007  -0.092841  -0.012546  -0.040517   0.001086
     50       0.055853  -0.038015  -0.134861  -0.038923   0.112985   0.099542
     51      -0.087318   0.025123   0.026541  -0.030964   0.000920  -0.069327
     52       0.014812   0.016727   0.013659  -0.074019  -0.075637   0.016493
     53      -0.004524  -0.042417   0.036605   0.048719  -0.042001   0.055237
     54      -0.066609   0.010653   0.087863  -0.088915   0.023071  -0.066205
     55      -0.026023   0.067642   0.080950  -0.086449  -0.092305  -0.044560
     56       0.017145  -0.074919  -0.045534   0.086427  -0.039595   0.101035
     57      -0.125396   0.041243   0.005054  -0.011703  -0.017383  -0.165299
     58      -0.002410   0.034507   0.029644  -0.073652  -0.082824  -0.013090
     59      -0.039017   0.016791   0.125728   0.028851  -0.056520   0.029120
     60      -0.081427   0.023153   0.027384  -0.031469   0.003418  -0.051673
     61       0.072484  -0.012138   0.053839  -0.115031  -0.042805   0.147175
     62      -0.002649  -0.060310   0.097548  -0.023362  -0.023297  -0.033055
     63      -0.101683   0.039800  -0.030575   0.030100  -0.016967  -0.053421
     64       0.106573  -0.043930   0.002993  -0.093035  -0.022773   0.191059
     65      -0.018563  -0.044671   0.161151  -0.067023  -0.028491  -0.064779
     66      -0.043717   0.007897   0.048117  -0.048841   0.022811   0.052922
     67       0.087297  -0.023843   0.043328  -0.112807  -0.034238   0.171677
     68       0.023087  -0.095384   0.031224   0.003171  -0.006301  -0.033499
     69      -0.027195  -0.007789  -0.095719   0.012030  -0.066356  -0.000527
     70      -0.113679   0.060244   0.058798   0.002068   0.072091   0.047234
     71       0.011528   0.117241  -0.059252  -0.274017   0.254355  -0.061915
     72      -0.102560   0.039329   0.026549   0.030067   0.049031   0.067242
     73      -0.104237   0.047816   0.066100   0.041566   0.007874   0.028601
     74       0.015698   0.044194   0.182109   0.185028  -0.302090  -0.177232
     75       0.170220  -0.016407   0.026531   0.003163   0.012995   0.018802
     76       0.082107  -0.097793  -0.082860  -0.029914  -0.009693  -0.167237
     77      -0.076797  -0.154828  -0.037952  -0.025396   0.072564  -0.016374
     78       0.202495  -0.052670  -0.028653  -0.044897  -0.010589  -0.020269
     79       0.095665  -0.121585  -0.098417  -0.042730  -0.003017  -0.184007
     80      -0.032768  -0.260469  -0.067626  -0.046504   0.144684  -0.076718
     81       0.196191   0.118655   0.044572   0.029143  -0.009683   0.045385
     82       0.133774  -0.173158  -0.111630  -0.049927   0.049788  -0.219659
     83      -0.103071  -0.122687  -0.024552  -0.016489   0.044281   0.008280
     84       0.145360  -0.078244   0.039659   0.008165   0.036671   0.021126
     85       0.022461   0.011190   0.010075   0.048047  -0.014024  -0.077831
     86      -0.030304   0.019754  -0.045744  -0.018984   0.014061   0.000742
     87       0.112584  -0.215098   0.019649  -0.036342   0.038329  -0.008176
     88      -0.045444   0.076871   0.042095   0.025731  -0.120602  -0.026209
     89       0.009656  -0.010850  -0.063042  -0.004191   0.074324  -0.027029
     90       0.126865  -0.056030   0.100339   0.077896   0.095418   0.064829
     91       0.004999   0.034054   0.027067   0.053862  -0.030922  -0.057652
     92      -0.098357   0.112424  -0.013960  -0.046406  -0.113423   0.056449
     93       0.187592   0.007475  -0.000067  -0.018458  -0.017625   0.003771
     94       0.079405  -0.003656   0.042406   0.147074   0.150388  -0.080333
     95       0.049767   0.111668  -0.074827   0.004501   0.041117  -0.020827
     96       0.229442   0.104784  -0.004808   0.023118   0.004445   0.007358
     97       0.136625  -0.032531   0.033630   0.170859   0.230698  -0.107708
     98       0.015505   0.119630  -0.069942  -0.011812  -0.004343  -0.005989
     99       0.195212   0.015074  -0.042327  -0.083325  -0.097744  -0.020471
    100       0.091633  -0.011840   0.034736   0.142542   0.156694  -0.089800
    101       0.105531   0.064176  -0.078550   0.036028   0.139956  -0.049115
    102       0.122051  -0.075083   0.059139   0.026847   0.046841   0.033432
    103       0.074865  -0.095119  -0.112700  -0.062336  -0.072249  -0.165071
    104      -0.145812  -0.232346  -0.016108  -0.017296   0.073224   0.003239
    105       0.164368  -0.043834   0.019841  -0.011832   0.005202   0.012454
    106       0.048189   0.025485   0.094480   0.215343   0.200896  -0.034831
    107       0.097575   0.247990  -0.107263   0.010159   0.000922  -0.027697
    108       0.192050   0.014944  -0.008809  -0.027658  -0.030670  -0.001686
    109       0.072421   0.017732   0.115709   0.269909   0.286814  -0.030998
    110       0.140749   0.307907  -0.127232   0.022115   0.007742  -0.041042
    111       0.152382  -0.049766   0.059016   0.043200   0.070293   0.039577
    112       0.039276   0.031398   0.102652   0.221945   0.201220  -0.025774
    113       0.062328   0.287898  -0.105436  -0.009842  -0.065603  -0.008397
    114       0.131997  -0.134136   0.023358  -0.047042  -0.007683   0.006713
    115       0.009710   0.046477   0.104130   0.202117   0.151321  -0.013555
    116       0.123589   0.247055  -0.113246   0.021994   0.030864  -0.039139
    117      -0.097815   0.019715   0.077488  -0.091638   0.007374  -0.169527
    118       0.066115   0.015590   0.170361  -0.183194  -0.045207   0.191428
    119      -0.013546  -0.053511   0.161939  -0.078170  -0.021974  -0.084319
    120      -0.094540   0.019348   0.075697  -0.088484   0.008508  -0.155480
    121       0.095700   0.005352   0.187726  -0.196528  -0.025790   0.262523
    122      -0.015969  -0.061554   0.202269  -0.128836  -0.011897  -0.158543
    123      -0.125510   0.026188   0.063635  -0.087231  -0.008960  -0.253982
    124       0.056032   0.023318   0.183510  -0.189602  -0.051271   0.176793
    125      -0.032376  -0.026786   0.229761  -0.110727  -0.034950  -0.073293
    126      -0.085795   0.011350   0.130787  -0.145257   0.024550  -0.186452
    127       0.041840   0.039164   0.225185  -0.212815  -0.059927   0.166658
    128      -0.000400  -0.067575   0.100762  -0.035378  -0.017808  -0.059558
                 12         13         14         15         16         17    
      0       0.018456  -0.005606  -0.022058  -0.017219   0.021779   0.005616
      1      -0.013869   0.036758   0.021928  -0.010433  -0.006610   0.003858
      2      -0.002545  -0.031724   0.012419  -0.111275   0.024921   0.009648
      3       0.023789  -0.010965  -0.024278  -0.023135   0.025604   0.006254
      4       0.026896  -0.002794  -0.018220   0.007809   0.009911   0.006801
      5      -0.023361  -0.007789  -0.026795   0.066783  -0.028656  -0.003930
      6      -0.009393   0.019900   0.002815  -0.025070   0.009678   0.004187
      7       0.053865  -0.024794  -0.040687   0.017543   0.020326   0.008137
      8      -0.009750   0.027343  -0.040353   0.180550  -0.053734  -0.011907
      9      -0.049816   0.056248   0.033842  -0.027004  -0.008865   0.000610
     10       0.040657  -0.007450  -0.025139   0.015646   0.012887   0.006731
     11       0.027930   0.038943  -0.022734   0.169899  -0.044921  -0.011560
     12      -0.055871   0.062155   0.037163  -0.021934  -0.013231  -0.000306
     13      -0.000044   0.032889   0.015464  -0.000691  -0.003423   0.003224
     14       0.054593   0.018483   0.017153   0.005667   0.008019  -0.002926
     15      -0.021904   0.030992   0.008850  -0.016834   0.002189   0.002164
     16      -0.026509   0.054218   0.038204  -0.015190  -0.012272   0.002345
     17       0.040186  -0.016659   0.038486  -0.154395   0.050150   0.009476
     18       0.054500  -0.039829  -0.048505  -0.024788   0.041536   0.008886
     19       0.037089  -0.016484  -0.030520   0.009269   0.015405   0.007918
     20      -0.052143  -0.018401  -0.042807   0.087333  -0.041595  -0.004651
     21      -0.078156   0.077711   0.057384  -0.033391  -0.020320  -0.004436
     22       0.062774  -0.022795  -0.043977   0.026984   0.019760   0.009921
     23       0.041100   0.061736  -0.037319   0.269542  -0.071540  -0.016456
     24      -0.026311   0.035121   0.010651  -0.011619  -0.001334   0.001567
     25      -0.056582   0.083592   0.067865  -0.029535  -0.023483   0.000476
     26       0.061492  -0.032743   0.072979  -0.302752   0.098435   0.018596
     27      -0.015023   0.024906  -0.006646  -0.000415   0.007942   0.011198
     28       0.092814  -0.066936  -0.049183  -0.026211   0.036200  -0.002723
     29      -0.078887   0.017495  -0.014478  -0.104504   0.021405   0.036145
     30      -0.010426   0.022814  -0.002289  -0.003884   0.004503   0.007443
     31       0.117564  -0.072016  -0.024805  -0.046788   0.021577  -0.022715
     32      -0.020358   0.022308  -0.001852  -0.121983   0.043211   0.018079
     33       0.000052   0.025077   0.019338  -0.018360  -0.007507  -0.006377
     34       0.152042  -0.059039  -0.016375  -0.050941   0.046094  -0.036471
     35       0.140117   0.082492   0.024791  -0.128065   0.169989  -0.042788
     36      -0.032699   0.033058  -0.017596   0.005179   0.024913   0.017785
     37       0.242057  -0.023554   0.005618  -0.066182   0.116941  -0.073935
     38      -0.094652  -0.016965  -0.014827  -0.111263  -0.035623   0.047916
     39      -0.012033  -0.036379  -0.024781  -0.024898  -0.081802   0.024749
     40      -0.147218   0.071929   0.089083   0.054849   0.115347  -0.082993
     41      -0.135217  -0.124103   0.133849   0.051934   0.163331  -0.288547
     42       0.055875  -0.070599   0.003415   0.039005   0.053318  -0.002158
     43      -0.248056   0.010088   0.163864   0.073945   0.213050  -0.293979
     44       0.029914  -0.042989   0.020031   0.030876   0.024164   0.024015
     45      -0.004733   0.014592   0.001233  -0.024884   0.010078   0.002894
     46       0.086108  -0.055609  -0.057600   0.010941   0.031149   0.002048
     47      -0.008943   0.045179  -0.048432   0.201518  -0.048455  -0.016549
     48       0.011951  -0.003612   0.000465  -0.046174   0.013494  -0.002770
     49       0.099288  -0.057472  -0.059900   0.026055   0.028609  -0.004108
     50       0.074489   0.079341  -0.071573   0.436261  -0.083909  -0.068233
     51       0.015429  -0.002164  -0.007525   0.024482  -0.019029  -0.000274
     52      -0.061518  -0.137864  -0.038512  -0.030793  -0.143449   0.036440
     53      -0.057591  -0.010748  -0.008997  -0.103770  -0.015863   0.030660
     54       0.106240   0.064986   0.090989   0.061921  -0.038970  -0.028586
     55      -0.240124  -0.254868  -0.147904  -0.031407  -0.232445   0.091267
     56       0.037390   0.047820   0.027863  -0.120624   0.063395   0.001504
     57      -0.059554  -0.106832  -0.126676   0.016238  -0.024015   0.021433
     58      -0.126935  -0.186367  -0.086470  -0.032150  -0.170118   0.055467
     59      -0.255409  -0.114047  -0.091423  -0.100946  -0.125093   0.087339
     60       0.025617   0.014228   0.009114   0.026214  -0.015620  -0.003766
     61       0.086119   0.030981   0.155523  -0.006670  -0.121073  -0.012751
     62       0.046802   0.010781   0.042910  -0.046554  -0.034036  -0.001791
     63      -0.072376  -0.061691  -0.067793  -0.021344  -0.036717   0.032132
     64       0.240760   0.098322   0.390083  -0.015791  -0.245733  -0.048735
     65      -0.022691  -0.004211  -0.095683  -0.018325   0.067571   0.008311
     66       0.104445   0.126935   0.123372   0.032222   0.015983  -0.033199
     67       0.143249   0.066004   0.238303  -0.007227  -0.152850  -0.027954
     68       0.213791   0.047118   0.286681  -0.054368  -0.206522  -0.037874
     69       0.045502  -0.030293  -0.044878  -0.011984   0.033854   0.007829
     70      -0.034765   0.053128   0.039714  -0.021860  -0.013800   0.002931
     71      -0.015181  -0.060375   0.025356  -0.221378   0.050828   0.019296
     72      -0.087276   0.092057   0.062102  -0.021036  -0.029140  -0.002721
[...]
    123      -0.000038   0.000012   0.000078
    124       0.000165  -0.000054   0.000091
    125       0.000002  -0.000040  -0.000024
    126      -0.000129   0.000010  -0.000010
    127      -0.000273   0.000062  -0.000112
    128      -0.000332   0.000131  -0.000109


-----------
IR SPECTRUM  
-----------

 Mode    freq (cm**-1)   T**2         TX         TY         TZ
-------------------------------------------------------------------
   6:        33.88    0.000000  (  0.000000   0.000000   0.000000)
   7:        37.33    0.000000  (  0.000000   0.000000   0.000000)
   8:        47.53    0.000000  (  0.000000   0.000000   0.000000)
   9:        57.70    0.000000  (  0.000000   0.000000   0.000000)
  10:        60.11    0.000000  (  0.000000   0.000000   0.000000)
  11:        65.44    0.000000  (  0.000000   0.000000   0.000000)
  12:        76.72    0.000000  (  0.000000   0.000000   0.000000)
  13:        86.50    0.000000  (  0.000000   0.000000   0.000000)
  14:       100.90    0.000000  (  0.000000   0.000000   0.000000)
  15:       116.14    0.000000  (  0.000000   0.000000   0.000000)
  16:       126.34    0.000000  (  0.000000   0.000000   0.000000)
  17:       144.78    0.000000  (  0.000000   0.000000   0.000000)
  18:       158.21    0.000000  (  0.000000   0.000000   0.000000)
  19:       162.71    0.000000  (  0.000000   0.000000   0.000000)
  20:       204.04    0.000000  (  0.000000   0.000000   0.000000)
  21:       217.05    0.000000  (  0.000000   0.000000   0.000000)
  22:       264.90    0.000000  (  0.000000   0.000000   0.000000)
  23:       268.56    0.000000  (  0.000000   0.000000   0.000000)
  24:       270.36    0.000000  (  0.000000   0.000000   0.000000)
  25:       283.40    0.000000  (  0.000000   0.000000   0.000000)
  26:       369.23    0.000000  (  0.000000   0.000000   0.000000)
  27:       380.50    0.000000  (  0.000000   0.000000   0.000000)
  28:       382.41    0.000000  (  0.000000   0.000000   0.000000)
  29:       391.42    0.000000  (  0.000000   0.000000   0.000000)
  30:       426.83    0.000000  (  0.000000   0.000000   0.000000)
  31:       434.64    0.000000  (  0.000000   0.000000   0.000000)
  32:       460.89    0.000000  (  0.000000   0.000000   0.000000)
  33:       509.12    0.000000  (  0.000000   0.000000   0.000000)
  34:       588.53    0.000000  (  0.000000   0.000000   0.000000)
  35:       624.78    0.000000  (  0.000000   0.000000   0.000000)
  36:       665.13    0.000000  (  0.000000   0.000000   0.000000)
  37:       758.21    0.000000  (  0.000000   0.000000   0.000000)
  38:       761.01    0.000000  (  0.000000   0.000000   0.000000)
  39:       772.24    0.000000  (  0.000000   0.000000   0.000000)
  40:       816.08    0.000000  (  0.000000   0.000000   0.000000)
  41:       822.93    0.000000  (  0.000000   0.000000   0.000000)
  42:       857.35    0.000000  (  0.000000   0.000000   0.000000)
  43:       879.06    0.000000  (  0.000000   0.000000   0.000000)
  44:       905.62    0.000000  (  0.000000   0.000000   0.000000)
  45:       918.31    0.000000  (  0.000000   0.000000   0.000000)
  46:       924.01    0.000000  (  0.000000   0.000000   0.000000)
  47:       932.45    0.000000  (  0.000000   0.000000   0.000000)
  48:       933.93    0.000000  (  0.000000   0.000000   0.000000)
  49:       941.43    0.000000  (  0.000000   0.000000   0.000000)
  50:       942.63    0.000000  (  0.000000   0.000000   0.000000)
  51:       950.79    0.000000  (  0.000000   0.000000   0.000000)
  52:       973.15    0.000000  (  0.000000   0.000000   0.000000)
  53:       983.22    0.000000  (  0.000000   0.000000   0.000000)
  54:      1018.51    0.000000  (  0.000000   0.000000   0.000000)
  55:      1019.07    0.000000  (  0.000000   0.000000   0.000000)
  56:      1059.21    0.000000  (  0.000000   0.000000   0.000000)
  57:      1068.48    0.000000  (  0.000000   0.000000   0.000000)
  58:      1071.69    0.000000  (  0.000000   0.000000   0.000000)
  59:      1085.77    0.000000  (  0.000000   0.000000   0.000000)
  60:      1099.45    0.000000  (  0.000000   0.000000   0.000000)
  61:      1105.30    0.000000  (  0.000000   0.000000   0.000000)
  62:      1117.18    0.000000  (  0.000000   0.000000   0.000000)
  63:      1126.30    0.000000  (  0.000000   0.000000   0.000000)
  64:      1136.70    0.000000  (  0.000000   0.000000   0.000000)
  65:      1143.86    0.000000  (  0.000000   0.000000   0.000000)
  66:      1179.72    0.000000  (  0.000000   0.000000   0.000000)
  67:      1187.89    0.000000  (  0.000000   0.000000   0.000000)
  68:      1207.03    0.000000  (  0.000000   0.000000   0.000000)
  69:      1209.47    0.000000  (  0.000000   0.000000   0.000000)
  70:      1217.70    0.000000  (  0.000000   0.000000   0.000000)
  71:      1250.28    0.000000  (  0.000000   0.000000   0.000000)
  72:      1262.28    0.000000  (  0.000000   0.000000   0.000000)
  73:      1269.09    0.000000  (  0.000000   0.000000   0.000000)
  74:      1271.66    0.000000  (  0.000000   0.000000   0.000000)
  75:      1276.25    0.000000  (  0.000000   0.000000   0.000000)
  76:      1277.19    0.000000  (  0.000000   0.000000   0.000000)
  77:      1280.50    0.000000  (  0.000000   0.000000   0.000000)
  78:      1293.13    0.000000  (  0.000000   0.000000   0.000000)
  79:      1312.73    0.000000  (  0.000000   0.000000   0.000000)
  80:      1324.74    0.000000  (  0.000000   0.000000   0.000000)
  81:      1335.66    0.000000  (  0.000000   0.000000   0.000000)
  82:      1355.87    0.000000  (  0.000000   0.000000   0.000000)
  83:      1368.41    0.000000  (  0.000000   0.000000   0.000000)
  84:      1371.54    0.000000  (  0.000000   0.000000   0.000000)
  85:      1422.86    0.000000  (  0.000000   0.000000   0.000000)
  86:      1426.35    0.000000  (  0.000000   0.000000   0.000000)
  87:      1427.31    0.000000  (  0.000000   0.000000   0.000000)
  88:      1454.07    0.000000  (  0.000000   0.000000   0.000000)
  89:      1475.13    0.000000  (  0.000000   0.000000   0.000000)
  90:      1495.28    0.000000  (  0.000000   0.000000   0.000000)
  91:      1498.35    0.000000  (  0.000000   0.000000   0.000000)
  92:      1503.08    0.000000  (  0.000000   0.000000   0.000000)
  93:      1504.66    0.000000  (  0.000000   0.000000   0.000000)
  94:      1506.44    0.000000  (  0.000000   0.000000   0.000000)
  95:      1509.90    0.000000  (  0.000000   0.000000   0.000000)
  96:      1511.83    0.000000  (  0.000000   0.000000   0.000000)
  97:      1513.61    0.000000  (  0.000000   0.000000   0.000000)
  98:      1517.28    0.000000  (  0.000000   0.000000   0.000000)
  99:      1559.67    0.000000  (  0.000000   0.000000   0.000000)
 100:      1564.00    0.000000  (  0.000000   0.000000   0.000000)
 101:      1566.92    0.000000  (  0.000000   0.000000   0.000000)
 102:      1669.11    0.000000  (  0.000000   0.000000   0.000000)
 103:      2856.10    0.000000  (  0.000000   0.000000   0.000000)
 104:      2878.37    0.000000  (  0.000000   0.000000   0.000000)
 105:      2932.42    0.000000  (  0.000000   0.000000   0.000000)
 106:      2939.97    0.000000  (  0.000000   0.000000   0.000000)
 107:      2941.08    0.000000  (  0.000000   0.000000   0.000000)
 108:      2942.18    0.000000  (  0.000000   0.000000   0.000000)
 109:      2946.66    0.000000  (  0.000000   0.000000   0.000000)
 110:      2959.32    0.000000  (  0.000000   0.000000   0.000000)
 111:      2962.73    0.000000  (  0.000000   0.000000   0.000000)
 112:      2965.81    0.000000  (  0.000000   0.000000   0.000000)
 113:      2967.80    0.000000  (  0.000000   0.000000   0.000000)
 114:      2975.87    0.000000  (  0.000000   0.000000   0.000000)
 115:      2979.61    0.000000  (  0.000000   0.000000   0.000000)
 116:      2981.87    0.000000  (  0.000000   0.000000   0.000000)
 117:      2985.59    0.000000  (  0.000000   0.000000   0.000000)
 118:      2986.69    0.000000  (  0.000000   0.000000   0.000000)
 119:      2993.97    0.000000  (  0.000000   0.000000   0.000000)
 120:      2997.31    0.000000  (  0.000000   0.000000   0.000000)
 121:      3000.17    0.000000  (  0.000000   0.000000   0.000000)
 122:      3048.77    0.000000  (  0.000000   0.000000   0.000000)
 123:      3056.40    0.000000  (  0.000000   0.000000   0.000000)
 124:      3063.08    0.000000  (  0.000000   0.000000   0.000000)
 125:      3072.21    0.000000  (  0.000000   0.000000   0.000000)
 126:      3088.50    0.000000  (  0.000000   0.000000   0.000000)
 127:      3328.14    0.000000  (  0.000000   0.000000   0.000000)
 128:      3401.83    0.000000  (  0.000000   0.000000   0.000000)

The first frequency considered to be a vibration is 6
The total number of vibrations considered is 123


--------------------------
THERMOCHEMISTRY AT 298.15K
--------------------------

Temperature         ... 298.15 K
Pressure            ... 1.00 atm
Total Mass          ... 234.39 AMU

Throughout the following assumptions are being made:
  (1) The electronic state is orbitally nondegenerate
  (2) There are no thermally accessible electronically excited states
  (3) Hindered rotations indicated by low frequency modes are not
      treated as such but are treated as vibrations and this may
      cause some error
  (4) All equations used are the standard statistical mechanics
      equations for an ideal gas
  (5) All vibrations are strictly harmonic

freq.      33.88  E(vib)   ...       0.55 
freq.      37.33  E(vib)   ...       0.54 
freq.      47.53  E(vib)   ...       0.53 
freq.      57.70  E(vib)   ...       0.51 
freq.      60.11  E(vib)   ...       0.51 
freq.      65.44  E(vib)   ...       0.50 
freq.      76.72  E(vib)   ...       0.49 
freq.      86.50  E(vib)   ...       0.48 
freq.     100.90  E(vib)   ...       0.46 
freq.     116.14  E(vib)   ...       0.44 
freq.     126.34  E(vib)   ...       0.43 
freq.     144.78  E(vib)   ...       0.41 
freq.     158.21  E(vib)   ...       0.39 
freq.     162.71  E(vib)   ...       0.39 
freq.     204.04  E(vib)   ...       0.35 
freq.     217.05  E(vib)   ...       0.34 
freq.     264.90  E(vib)   ...       0.29 
freq.     268.56  E(vib)   ...       0.29 
freq.     270.36  E(vib)   ...       0.29 
freq.     283.40  E(vib)   ...       0.28 
freq.     369.23  E(vib)   ...       0.21 
freq.     380.50  E(vib)   ...       0.21 
freq.     382.41  E(vib)   ...       0.21 
freq.     391.42  E(vib)   ...       0.20 
freq.     426.83  E(vib)   ...       0.18 
freq.     434.64  E(vib)   ...       0.17 
freq.     460.89  E(vib)   ...       0.16 
freq.     509.12  E(vib)   ...       0.14 
freq.     588.53  E(vib)   ...       0.10 
freq.     624.78  E(vib)   ...       0.09 
freq.     665.13  E(vib)   ...       0.08 
freq.     758.21  E(vib)   ...       0.06 
freq.     761.01  E(vib)   ...       0.06 
freq.     772.24  E(vib)   ...       0.05 
freq.     816.08  E(vib)   ...       0.05 
freq.     822.93  E(vib)   ...       0.05 
freq.     857.35  E(vib)   ...       0.04 
freq.     879.06  E(vib)   ...       0.04 
freq.     905.62  E(vib)   ...       0.03 
freq.     918.31  E(vib)   ...       0.03 
freq.     924.01  E(vib)   ...       0.03 
freq.     932.45  E(vib)   ...       0.03 
freq.     933.93  E(vib)   ...       0.03 
freq.     941.43  E(vib)   ...       0.03 
freq.     942.63  E(vib)   ...       0.03 
freq.     950.79  E(vib)   ...       0.03 
freq.     973.15  E(vib)   ...       0.03 
freq.     983.22  E(vib)   ...       0.02 
freq.    1018.51  E(vib)   ...       0.02 
freq.    1019.07  E(vib)   ...       0.02 
freq.    1059.21  E(vib)   ...       0.02 
freq.    1068.48  E(vib)   ...       0.02 
freq.    1071.69  E(vib)   ...       0.02 
freq.    1085.77  E(vib)   ...       0.02 
freq.    1099.45  E(vib)   ...       0.02 
freq.    1105.30  E(vib)   ...       0.02 
freq.    1117.18  E(vib)   ...       0.01 
freq.    1126.30  E(vib)   ...       0.01 
freq.    1136.70  E(vib)   ...       0.01 
freq.    1143.86  E(vib)   ...       0.01 
freq.    1179.72  E(vib)   ...       0.01 
freq.    1187.89  E(vib)   ...       0.01 
freq.    1207.03  E(vib)   ...       0.01 
freq.    1209.47  E(vib)   ...       0.01 
freq.    1217.70  E(vib)   ...       0.01 
freq.    1250.28  E(vib)   ...       0.01 
freq.    1262.28  E(vib)   ...       0.01 
freq.    1269.09  E(vib)   ...       0.01 
freq.    1271.66  E(vib)   ...       0.01 
freq.    1276.25  E(vib)   ...       0.01 
freq.    1277.19  E(vib)   ...       0.01 
freq.    1280.50  E(vib)   ...       0.01 
freq.    1293.13  E(vib)   ...       0.01 
freq.    1312.73  E(vib)   ...       0.01 
freq.    1324.74  E(vib)   ...       0.01 
freq.    1335.66  E(vib)   ...       0.01 
freq.    1355.87  E(vib)   ...       0.01 
freq.    1368.41  E(vib)   ...       0.01 
freq.    1371.54  E(vib)   ...       0.01 
freq.    1422.86  E(vib)   ...       0.00 
freq.    1426.35  E(vib)   ...       0.00 
freq.    1427.31  E(vib)   ...       0.00 
freq.    1454.07  E(vib)   ...       0.00 
freq.    1475.13  E(vib)   ...       0.00 
freq.    1495.28  E(vib)   ...       0.00 
freq.    1498.35  E(vib)   ...       0.00 
freq.    1503.08  E(vib)   ...       0.00 
freq.    1504.66  E(vib)   ...       0.00 
freq.    1506.44  E(vib)   ...       0.00 
freq.    1509.90  E(vib)   ...       0.00 
freq.    1511.83  E(vib)   ...       0.00 
freq.    1513.61  E(vib)   ...       0.00 
freq.    1517.28  E(vib)   ...       0.00 
freq.    1559.67  E(vib)   ...       0.00 
freq.    1564.00  E(vib)   ...       0.00 
freq.    1566.92  E(vib)   ...       0.00 
freq.    1669.11  E(vib)   ...       0.00 
freq.    2856.10  E(vib)   ...       0.00 
freq.    2878.37  E(vib)   ...       0.00 
freq.    2932.42  E(vib)   ...       0.00 
freq.    2939.97  E(vib)   ...       0.00 
freq.    2941.08  E(vib)   ...       0.00 
freq.    2942.18  E(vib)   ...       0.00 
freq.    2946.66  E(vib)   ...       0.00 
freq.    2959.32  E(vib)   ...       0.00 
freq.    2962.73  E(vib)   ...       0.00 
freq.    2965.81  E(vib)   ...       0.00 
freq.    2967.80  E(vib)   ...       0.00 
freq.    2975.87  E(vib)   ...       0.00 
freq.    2979.61  E(vib)   ...       0.00 
freq.    2981.87  E(vib)   ...       0.00 
freq.    2985.59  E(vib)   ...       0.00 
freq.    2986.69  E(vib)   ...       0.00 
freq.    2993.97  E(vib)   ...       0.00 
freq.    2997.31  E(vib)   ...       0.00 
freq.    3000.17  E(vib)   ...       0.00 
freq.    3048.77  E(vib)   ...       0.00 
freq.    3056.40  E(vib)   ...       0.00 
freq.    3063.08  E(vib)   ...       0.00 
freq.    3072.21  E(vib)   ...       0.00 
freq.    3088.50  E(vib)   ...       0.00 
freq.    3328.14  E(vib)   ...       0.00 
freq.    3401.83  E(vib)   ...       0.00 

------------
INNER ENERGY
------------

The inner energy is: U= E(el) + E(ZPE) + E(vib) + E(rot) + E(trans)
    E(el)   - is the total energy from the electronic structure calculation
              = E(kin-el) + E(nuc-el) + E(el-el) + E(nuc-nuc)
    E(ZPE)  - the the zero temperature vibrational energy from the frequency calculation
    E(vib)  - the the finite temperature correction to E(ZPE) due to population
              of excited vibrational states
    E(rot)  - is the rotational thermal energy
    E(trans)- is the translational thermal energy

Summary of contributions to the inner energy U:
Electronic energy                ...    -51.21083715 Eh
Zero point energy                ...      0.37765064 Eh     236.98 kcal/mol
Thermal vibrational correction   ...      0.01792500 Eh      11.25 kcal/mol
Thermal rotational correction    ...      0.00141627 Eh       0.89 kcal/mol
Thermal translational correction ...      0.00141627 Eh       0.89 kcal/mol
-----------------------------------------------------------------------
Total thermal energy                    -50.81242897 Eh


Summary of corrections to the electronic energy:
(perhaps to be used in another calculation)
Total thermal correction                  0.02075754 Eh      13.03 kcal/mol
Non-thermal (ZPE) correction              0.37765064 Eh     236.98 kcal/mol
-----------------------------------------------------------------------
Total correction                          0.39840818 Eh     250.00 kcal/mol


--------
ENTHALPY
--------

The enthalpy is H = U + kB*T
                kB is Boltzmann's constant
Total free energy                 ...    -50.81242897 Eh 
Thermal Enthalpy correction       ...      0.00094421 Eh       0.59 kcal/mol
-----------------------------------------------------------------------
Total Enthalpy                    ...    -50.81148476 Eh


Note: Only C1 symmetry has been detected, increase convergence thresholds 
      if your molecule has a higher symmetry. Symmetry factor of 1.0 is   
      used for the rotational entropy correction. 
 

Note: Rotational entropy computed according to Herzberg 
Infrared and Raman Spectra, Chapter V,1, Van Nostrand Reinhold, 1945 
Point Group:  C1, Symmetry Number:   1  
Rotational constants in cm-1:     0.023654     0.006124     0.005092 

Vibrational entropy computed according to the QRRHO of S. Grimme
Chem.Eur.J. 2012 18 9955


-------
ENTROPY
-------

The entropy contributions are T*S = T*(S(el)+S(vib)+S(rot)+S(trans))
     S(el)   - electronic entropy
     S(vib)  - vibrational entropy
     S(rot)  - rotational entropy
     S(trans)- translational entropy
The entropies will be listed as mutliplied by the temperature to get
units of energy

Electronic entropy                ...      0.00000000 Eh      0.00 kcal/mol
Vibrational entropy               ...      0.03252570 Eh     20.41 kcal/mol
Rotational entropy                ...      0.01617661 Eh     10.15 kcal/mol
Translational entropy             ...      0.02007763 Eh     12.60 kcal/mol
-----------------------------------------------------------------------
Final entropy term                ...      0.06877994 Eh     43.16 kcal/mol

In case the symmetry of your molecule has not been determined correctly
or in case you have a reason to use a different symmetry number we print 
out the resulting rotational entropy values for sn=1,12 :
 --------------------------------------------------------
|  sn= 1 | S(rot)=       0.01617661 Eh     10.15 kcal/mol|
|  sn= 2 | S(rot)=       0.01552216 Eh      9.74 kcal/mol|
|  sn= 3 | S(rot)=       0.01513932 Eh      9.50 kcal/mol|
|  sn= 4 | S(rot)=       0.01486770 Eh      9.33 kcal/mol|
|  sn= 5 | S(rot)=       0.01465701 Eh      9.20 kcal/mol|
|  sn= 6 | S(rot)=       0.01448487 Eh      9.09 kcal/mol|
|  sn= 7 | S(rot)=       0.01433932 Eh      9.00 kcal/mol|
|  sn= 8 | S(rot)=       0.01421324 Eh      8.92 kcal/mol|
|  sn= 9 | S(rot)=       0.01410203 Eh      8.85 kcal/mol|
|  sn=10 | S(rot)=       0.01400255 Eh      8.79 kcal/mol|
|  sn=11 | S(rot)=       0.01391256 Eh      8.73 kcal/mol|
|  sn=12 | S(rot)=       0.01383041 Eh      8.68 kcal/mol|
 --------------------------------------------------------


-------------------
GIBBS FREE ENERGY
-------------------

The Gibbs free energy is G = H - T*S

Total enthalpy                    ...    -50.81148476 Eh 
Total entropy correction          ...     -0.06877994 Eh    -43.16 kcal/mol
-----------------------------------------------------------------------
Final Gibbs free energy         ...    -50.88026470 Eh

For completeness - the Gibbs free energy minus the electronic energy
G-E(el)                           ...      0.33057245 Eh    207.44 kcal/mol


Total Time for Numerical Frequencies  :       147.950 sec
Time for Reference State(s)           :         0.115 sec
Time for Displacements                :       132.073 sec

Timings for individual modules:

Sum of individual times         ...        0.252 sec (=   0.004 min)
XTB module                      ...        0.252 sec (=   0.004 min) 100.0 %
                             ****ORCA TERMINATED NORMALLY****
TOTAL RUN TIME: 0 days 0 hours 2 minutes 28 seconds 617 msec
(SLURM) EXECUTION TIME: 148.647279301 seconds.
