(SLURM) JOB ID:         632

                                 *****************
                                 * O   R   C   A *
                                 *****************

           --- An Ab Initio, DFT and Semiempirical electronic structure package ---

                  #######################################################
                  #                        -***-                        #
                  #          Department of theory and spectroscopy      #
                  #               Directorship: Frank Neese             #
                  #        Max Planck Institute fuer Kohlenforschung    #
                  #                Kaiser Wilhelm Platz 1               #
                  #                 D-45470 Muelheim/Ruhr               #
                  #                      Germany                        #
                  #                                                     #
                  #                  All rights reserved                #
                  #                        -***-                        #
                  #######################################################


                         Program Version 4.2.1 -  RELEASE  -


 With contributions from (in alphabetic order):
   Daniel Aravena         : Magnetic Suceptibility
   Michael Atanasov       : Ab Initio Ligand Field Theory (pilot matlab implementation)
   Alexander A. Auer      : GIAO ZORA, VPT2
   Ute Becker             : Parallelization
   Giovanni Bistoni       : ED, misc. LED, open-shell LED, HFLD
   Martin Brehm           : Molecular dynamics
   Dmytro Bykov           : SCF Hessian
   Vijay G. Chilkuri      : MRCI spin determinant printing, contributions to CSF-ICE
   Dipayan Datta          : RHF DLPNO-CCSD density
   Achintya Kumar Dutta   : EOM-CC, STEOM-CC
   Dmitry Ganyushin       : Spin-Orbit,Spin-Spin,Magnetic field MRCI
   Miquel Garcia          : C-PCM Hessian, Gaussian charge scheme
   Yang Guo               : DLPNO-NEVPT2, CIM, IAO-localization
   Andreas Hansen         : Spin unrestricted coupled pair/coupled cluster methods
   Benjamin Helmich-Paris : CASSCF linear response (MC-RPA)
   Lee Huntington         : MR-EOM, pCC
   Robert Izsak           : Overlap fitted RIJCOSX, COSX-SCS-MP3, EOM
   Christian Kollmar      : KDIIS, OOCD, Brueckner-CCSD(T), CCSD density
   Simone Kossmann        : Meta GGA functionals, TD-DFT gradient, OOMP2, MP2 Hessian
   Martin Krupicka        : AUTO-CI
   Lucas Lang             : DCDCAS
   Dagmar Lenk            : GEPOL surface, SMD
   Dimitrios Liakos       : Extrapolation schemes; Compound Job, initial MDCI parallelization
   Dimitrios Manganas     : Further ROCIS development; embedding schemes
   Dimitrios Pantazis     : SARC Basis sets
   Taras Petrenko         : DFT Hessian,TD-DFT gradient, ASA, ECA, R-Raman, ABS, FL, XAS/XES, NRVS
   Peter Pinski           : DLPNO-MP2, DLPNO-MP2 Gradient
   Christoph Reimann      : Effective Core Potentials
   Marius Retegan         : Local ZFS, SOC
   Christoph Riplinger    : Optimizer, TS searches, QM/MM, DLPNO-CCSD(T), (RO)-DLPNO pert. Triples
   Tobias Risthaus        : Range-separated hybrids, TD-DFT gradient, RPA, STAB
   Michael Roemelt        : Original ROCIS implementation
   Masaaki Saitow         : Open-shell DLPNO-CCSD energy and density
   Barbara Sandhoefer     : DKH picture change effects
   Avijit Sen             : IP-ROCIS
   Kantharuban Sivalingam : CASSCF convergence, NEVPT2, FIC-MRCI
   Bernardo de Souza      : ESD, SOC TD-DFT
   Georgi Stoychev        : AutoAux, RI-MP2 NMR
   Willem Van den Heuvel  : Paramagnetic NMR
   Boris Wezisla          : Elementary symmetry handling
   Frank Wennmohs         : Technical directorship


 We gratefully acknowledge several colleagues who have allowed us to
 interface, adapt or use parts of their codes:
   Stefan Grimme, W. Hujo, H. Kruse,             : VdW corrections, initial TS optimization,
                  C. Bannwarth                     DFT functionals, gCP, sTDA/sTD-DF
   Ed Valeev, F. Pavosevic, A. Kumar             : LibInt (2-el integral package), F12 methods
   Garnet Chan, S. Sharma, J. Yang, R. Olivares  : DMRG
   Ulf Ekstrom                                   : XCFun DFT Library
   Mihaly Kallay                                 : mrcc  (arbitrary order and MRCC methods)
   Andreas Klamt, Michael Diedenhofen            : otool_cosmo (COSMO solvation model)
   Jiri Pittner, Ondrej Demel                    : Mk-CCSD
   Frank Weinhold                                : gennbo (NPA and NBO analysis)
   Christopher J. Cramer and Donald G. Truhlar   : smd solvation model
   Lars Goerigk                                  : TD-DFT with DH, B97 family of functionals
   V. Asgeirsson, H. Jonsson                     : NEB implementation
   FAccTs GmbH                                   : IRC, NEB, NEB-TS, Multilevel, MM, QM/MM, CI optimization
   S Lehtola, MJT Oliveira, MAL Marques          : LibXC Library


 Your calculation uses the libint2 library for the computation of 2-el integrals
 For citations please refer to: http://libint.valeyev.net

 Your ORCA version has been built with support for libXC version: 4.2.3
 For citations please refer to: https://tddft.org/programs/libxc/

 This ORCA versions uses:
   CBLAS   interface :  Fast vector & matrix operations
   LAPACKE interface :  Fast linear algebra routines
   SCALAPACK package :  Parallel linear algebra routines




***************************************
The coordinates will be read from file: init.xyz
***************************************


Your calculation utilizes the SMD solvation module
Please cite in your paper:
A.V. Marenich, C.J. Cramer, D.G. Truhlar J. Phys. Chem. B, 113, (2009), 6378 

Your calculation utilizes the semiempirical GFN2-xTB method
Please cite in your paper:
C. Bannwarth, Ehlert S., S. Grimme,  J. Chem. Theory Comput., 15, (2019), 1652.
   

----- Orbital basis set information -----
Your calculation utilizes the basis: def2-SVP
   F. Weigend and R. Ahlrichs, Phys. Chem. Chem. Phys. 7, 3297 (2005).

================================================================================
                                        WARNINGS
                       Please study these warnings very carefully!
================================================================================

WARNING: Gradients needed for Numerical Frequencies
  ===> : Setting RunTyp to EnGrad

WARNING: The environment variable RSH_COMMAND is not set!
  ===> : All Displacements for the Numerical Hessian calculation
         will be started on localhost

WARNING: Found dipole moment calculation with XTB calculation
  ===> : Switching off dipole moment calculation


INFO   : the flag for use of LIBINT has been found!

================================================================================
                                       INPUT FILE
================================================================================
NAME = /tmp/slurm-scratch/freq.632/freq.inp
|  1> ! XTB2 NumFreq
|  2> %maxcore 1450
|  3> 
|  4> * xyzfile 0 1 init.xyz
|  5> 
|  6> %cpcm
|  7>  smd true
|  8>  smdsolvent "ch2cl2"
|  9> end
| 10> %pal nprocs 9 end
| 11> 
| 12>                          ****END OF INPUT****
================================================================================

                     *******************************
                     * Energy+Gradient Calculation *
                     *******************************

      -----------------------------------------------------------      
     |                   =====================                   |     
     |                           x T B                           |     
     |                   =====================                   |     
     |                         S. Grimme                         |     
     |          Mulliken Center for Theoretical Chemistry        |     
     |                    University of Bonn                     |     
      -----------------------------------------------------------      

   * xtb version 6.3.2 (30e43eb) compiled by 'schneider@apollo14' on 2020-08-08

   xtb is free software: you can redistribute it and/or modify it under
   the terms of the GNU Lesser General Public License as published by
   the Free Software Foundation, either version 3 of the License, or
   (at your option) any later version.
   
   xtb is distributed in the hope that it will be useful,
   but WITHOUT ANY WARRANTY; without even the implied warranty of
   MERCHANTABILITY or FITNESS FOR A PARTICULAR PURPOSE.  See the
   GNU Lesser General Public License for more details.
   
   Cite this work as:
   * S. Grimme, C. Bannwarth, P. Shushkov, J. Chem. Theory Comput., 2017,
     13, 1989-2009. DOI: 10.1021/acs.jctc.7b00118
   * C. Bannwarth, S. Ehlert and S. Grimme., J. Chem. Theory Comput., 2019,
     15, 1652-1671. DOI: 10.1021/acs.jctc.8b01176
   * P. Pracht, E. Caldeweyher, S. Ehlert, S. Grimme, ChemRxiv, 2019, preprint.
     DOI: 10.26434/chemrxiv.8326202.v1
   
   for GFN-FF:
   * S. Spicher and S. Grimme, Angew. Chem. Int. Ed., 2020,
     DOI: 10.1002/anie.202004239
   
   for DFT-D4:
   * E. Caldeweyher, C. Bannwarth and S. Grimme, J. Chem. Phys., 2017,
     147, 034112. DOI: 10.1063/1.4993215
   * E. Caldeweyher, S. Ehlert, A. Hansen, H. Neugebauer, S. Spicher,
     C. Bannwarth and S. Grimme, J. Chem. Phys., 2019, 150, 154122.
     DOI: 10.1063/1.5090222
   
   for sTDA-xTB:
   * S. Grimme and C. Bannwarth, J. Chem. Phys., 2016, 145, 054103.
     DOI: 10.1063/1.4959605
   
   in the mass-spec context:
   * V. Asgeirsson, C. Bauer and S. Grimme, Chem. Sci., 2017, 8, 4879.
     DOI: 10.1039/c7sc00601b
   * J. Koopman and S. Grimme, ACS Omega 2019, 4, 12, 15120-15133.
     DOI: 10.1021/acsomega.9b02011
   
   for metadynamics refer to:
   * S. Grimme, J. Chem. Theory Comput., 2019, 155, 2847-2862
     DOI: 10.1021/acs.jctc.9b00143
   
   with help from (in alphabetical order)
   C. Bannwarth, F. Bohle, G. Brandenburg, E. Caldeweyher, M. Checinski,
   S. Dohm, S. Ehlert, S. Ehrlich, F. März, H. Neugebauer, J. Pisarek,
   P. Pracht, P. Shushkov, and S. Spicher.
   
 * started run on 2021/02/11 at 07:57:57.019     

           -------------------------------------------------
          |                Calculation Setup                |
           -------------------------------------------------

          program call               : /opt/orca/otool_xtb /tmp/slurm-scratch/freq.632/freq_XTB.xyz --grad -c 0 -u 0 -P 9 --namespace /tmp/slurm-scratch/freq.632/freq --gbsa CH2Cl2
          hostname                   : apollo14
          calculation namespace      : /tmp/slurm-scratch/freq.632/freq
          coordinate file            : /tmp/slurm-scratch/freq.632/freq_XTB.xyz
          omp threads                :                     9
          number of atoms            :                    49
          number of electrons        :                   112
          charge                     :                     0
          spin                       :                   0.0
          first test random number   :      0.02499233053453

   ID    Z sym.   atoms
    1    6 C      1-7, 12, 14, 30, 33, 36, 39, 42, 46
    2    1 H      8-10, 13, 15-18, 21, 22, 24-29, 31, 32, 34, 35, 37, 38, 40,
                  41, 43-45, 47-49
    3    7 N      11, 20
    4    8 O      19, 23

molecular fragmentation (1/2 indicates fragments):
1111111111222222221222222121122222222222222222222
# atoms in fragment 1/2:    14    35
 fragment masses (1/2) :      106.12      164.29
CMA distance (Bohr)    :   7.172
constraining FC (au)   :  0.0500
########################################################################
[WARNING] Please study the warnings concerning your input carefully
-1- prog_main_parseArguments: Process number higher than OMP_NUM_THREADS, I hope you know what you are doing.
########################################################################

           -------------------------------------------------
          |                 G F N 2 - x T B                 |
           -------------------------------------------------

        Reference                      10.1021/acs.jctc.8b01176
      * Hamiltonian:
        H0-scaling (s, p, d)           1.850000    2.230000    2.230000
        zeta-weighting                 0.500000
      * Dispersion:
        s8                             2.700000
        a1                             0.520000
        a2                             5.000000
        s9                             5.000000
      * Repulsion:
        kExp                           1.500000    1.000000
        rExp                           1.000000
      * Coulomb:
        alpha                          2.000000
        third order                    shell-resolved
        anisotropic                    true
        a3                             3.000000
        a5                             4.000000
        cn-shift                       1.200000
        cn-exp                         4.000000
        max-rad                        5.000000

      * Solvation model:               GBSA
        Solvent                        CH2Cl2
        Parameter file                 internal GFN2-xTB/GBSA
        Dielectric constant                8.9300E+00
        Reference state                gsolv [1 M gas/solution]
        Free energy shift                  4.4408E-03 Eh       2.7867E+00 kcal/mol
        Temperature                        2.9815E+02 K
        Density                            1.3300E+00 kg/L
        Solvent mass                       8.4930E+01 g/mol
        Interaction kernel             Still
        Born radius scaling (c1)           1.4917E+00
        Born radii integrator          GBOBC
        Born offset                        0.0000E+00 a0       0.0000E+00 AA
        H-bond correction              false
        Ion screening                  false
        Surface tension                    1.0000E-05 Eh       1.5569E+01 dyn/cm
        Grid points                               230 per atom

          ...................................................
          :                      SETUP                      :
          :.................................................:
          :  # basis functions                 106          :
          :  # atomic orbitals                 106          :
          :  # shells                           68          :
          :  # electrons                       112          :
          :  max. iterations                   250          :
          :  Hamiltonian                  GFN2-xTB          :
          :  restarted?                      false          :
          :  GBSA solvation                   true          :
          :  PC potential                    false          :
          :  electronic temp.          300.0000000     K    :
          :  accuracy                    1.0000000          :
          :  -> integral cutoff          0.2500000E+02      :
          :  -> integral neglect         0.1000000E-07      :
          :  -> SCF convergence          0.1000000E-05 Eh   :
          :  -> wf. convergence          0.1000000E-03 e    :
          :  Broyden damping             0.4000000          :
          ...................................................

 iter      E             dE          RMSdq      gap      omega  full diag
   1    -62.1244419 -0.621244E+02  0.365E+00    2.47       0.0  T
   2    -62.2159152 -0.914734E-01  0.195E+00    2.17       1.0  T
   3    -62.2172881 -0.137287E-02  0.919E-01    2.23       1.0  T
   4    -62.2221893 -0.490123E-02  0.211E-01    2.01       1.0  T
   5    -62.2232012 -0.101187E-02  0.710E-02    2.03       1.0  T
   6    -62.2232536 -0.524118E-04  0.349E-02    2.05       1.0  T
   7    -62.2232714 -0.178226E-04  0.121E-02    2.05       1.2  T
   8    -62.2232727 -0.128482E-05  0.369E-03    2.05       3.9  T
   9    -62.2232729 -0.136805E-06  0.152E-03    2.05       9.4  T
  10    -62.2232729 -0.210828E-07  0.770E-04    2.05      18.5  T
  11    -62.2232729 -0.592343E-08  0.335E-04    2.05      42.6  T

   *** convergence criteria satisfied after 11 iterations ***

         #    Occupation            Energy/Eh            Energy/eV
      -------------------------------------------------------------
         1        2.0000           -0.7153895             -19.4667
       ...           ...                  ...                  ...
        50        2.0000           -0.4261428             -11.5959
        51        2.0000           -0.4202211             -11.4348
        52        2.0000           -0.4194275             -11.4132
        53        2.0000           -0.4179372             -11.3727
        54        2.0000           -0.4033886             -10.9768
        55        2.0000           -0.3867690             -10.5245
        56        2.0000           -0.3692019             -10.0465 (HOMO)
        57                         -0.2939845              -7.9997 (LUMO)
        58                         -0.2389098              -6.5011
        59                         -0.2052702              -5.5857
        60                         -0.0993718              -2.7040
        61                          0.0057966               0.1577
       ...                                ...                  ...
       106                          0.6462489              17.5853
      -------------------------------------------------------------
                  HL-Gap            0.0752174 Eh            2.0468 eV
             Fermi-level           -0.3315932 Eh           -9.0231 eV

 SCC (total)                   0 d,  0 h,  0 min,  0.156 sec
 SCC setup                      ...        0 min,  0.007 sec (  4.199%)
 Dispersion                     ...        0 min,  0.007 sec (  4.237%)
 classical contributions        ...        0 min,  0.005 sec (  3.489%)
 integral evaluation            ...        0 min,  0.016 sec ( 10.300%)
 iterations                     ...        0 min,  0.067 sec ( 43.300%)
 molecular gradient             ...        0 min,  0.053 sec ( 34.205%)
 printout                       ...        0 min,  0.000 sec (  0.253%)

         :::::::::::::::::::::::::::::::::::::::::::::::::::::
         ::                     SUMMARY                     ::
         :::::::::::::::::::::::::::::::::::::::::::::::::::::
         :: total energy             -61.364672205002 Eh    ::
         :: total w/o Gsasa/hb       -61.342102862441 Eh    ::
         :: gradient norm              0.027786444849 Eh/a0 ::
         :: HOMO-LUMO gap              2.046769143155 eV    ::
         ::.................................................::
         :: SCC energy               -62.223272880995 Eh    ::
         :: -> isotropic ES            0.095959321122 Eh    ::
         :: -> anisotropic ES          0.003638458196 Eh    ::
         :: -> anisotropic XC          0.037778809441 Eh    ::
         :: -> dispersion             -0.042548059966 Eh    ::
         :: -> Gsolv                  -0.033357387573 Eh    ::
         ::    -> Gborn               -0.010788045012 Eh    ::
         ::    -> Gsasa               -0.027010171734 Eh    ::
         ::    -> Ghb                  0.000000000000 Eh    ::
         ::    -> Gshift               0.004440829173 Eh    ::
         :: repulsion energy           0.857184355051 Eh    ::
         :: add. restraining           0.000000000000 Eh    ::
         :: total charge              -0.000000000000 e     ::
         :::::::::::::::::::::::::::::::::::::::::::::::::::::

           -------------------------------------------------
          |                Property Printout                |
           -------------------------------------------------

    * Orbital Energies and Occupations

         #    Occupation            Energy/Eh            Energy/eV
      -------------------------------------------------------------
         1        2.0000           -0.7153895             -19.4667
       ...           ...                  ...                  ...
        44        2.0000           -0.4403918             -11.9837
        45        2.0000           -0.4380620             -11.9203
        46        2.0000           -0.4373882             -11.9019
        47        2.0000           -0.4351914             -11.8422
        48        2.0000           -0.4312272             -11.7343
        49        2.0000           -0.4290845             -11.6760
        50        2.0000           -0.4261428             -11.5959
        51        2.0000           -0.4202211             -11.4348
        52        2.0000           -0.4194275             -11.4132
        53        2.0000           -0.4179372             -11.3727
        54        2.0000           -0.4033886             -10.9768
        55        2.0000           -0.3867690             -10.5245
        56        2.0000           -0.3692019             -10.0465 (HOMO)
        57                         -0.2939845              -7.9997 (LUMO)
        58                         -0.2389098              -6.5011
        59                         -0.2052702              -5.5857
        60                         -0.0993718              -2.7040
        61                          0.0057966               0.1577
        62                          0.0289507               0.7878
        63                          0.0668874               1.8201
        64                          0.0839925               2.2856
        65                          0.0916473               2.4939
        66                          0.0990801               2.6961
        67                          0.1086692               2.9570
       ...                                ...                  ...
       106                          0.6462489              17.5853
      -------------------------------------------------------------
                  HL-Gap            0.0752174 Eh            2.0468 eV
             Fermi-level           -0.3315932 Eh           -9.0231 eV

     #   Z          covCN         q      C6AA      α(0)
     1   6 C        2.968    -0.010    28.260     8.720
     2   6 C        2.921    -0.023    28.576     8.766
     3   6 C        2.914    -0.025    28.618     8.772
     4   6 C        2.917    -0.016    28.416     8.741
     5   6 C        2.914    -0.023    28.586     8.767
     6   6 C        2.919    -0.012    28.324     8.727
     7   6 C        2.767     0.211    23.526     7.944
     8   1 H        0.925     0.049     2.328     2.386
     9   1 H        0.926     0.050     2.315     2.379
    10   1 H        0.925     0.055     2.260     2.351
    11   7 N        2.629    -0.382    29.876     8.118
    12   6 C        3.731     0.026    20.222     6.419
    13   1 H        0.860     0.171     1.269     1.765
    14   6 C        3.803    -0.068    21.810     6.649
    15   1 H        0.923     0.005     2.974     2.697
    16   1 H        0.924     0.024     2.670     2.555
    17   1 H        0.924     0.041     2.438     2.442
    18   1 H        0.924     0.041     2.438     2.442
    19   8 O        0.856    -0.401    21.695     6.245
    20   7 N        2.628    -0.369    29.525     8.070
    21   1 H        0.860     0.166     1.296     1.783
    22   1 H        0.860     0.150     1.401     1.854
    23   8 O        1.605    -0.630    25.930     6.872
    24   1 H        0.801     0.307     0.700     1.315
    25   1 H        0.805     0.280     0.784     1.391
    26   1 H        0.923     0.032     2.562     2.503
    27   1 H        0.860     0.140     1.472     1.901
    28   1 H        0.925     0.052     2.300     2.371
    29   1 H        0.925     0.050     2.319     2.381
    30   6 C        3.800    -0.053    21.518     6.605
    31   1 H        0.924     0.030     2.593     2.518
    32   1 H        0.924     0.030     2.593     2.518
    33   6 C        3.731     0.017    20.376     6.443
    34   1 H        0.924     0.016     2.788     2.611
    35   1 H        0.924     0.038     2.477     2.461
    36   6 C        3.803    -0.070    21.833     6.652
    37   1 H        0.924     0.040     2.444     2.445
    38   1 H        0.924     0.037     2.485     2.465
    39   6 C        3.800    -0.055    21.564     6.612
    40   1 H        0.924     0.034     2.531     2.488
    41   1 H        0.924     0.035     2.517     2.481
    42   6 C        3.750    -0.102    22.510     6.767
    43   1 H        0.924     0.036     2.498     2.471
    44   1 H        0.924     0.035     2.521     2.483
    45   1 H        0.924     0.035     2.523     2.484
    46   6 C        3.750    -0.104    22.546     6.772
    47   1 H        0.924     0.039     2.457     2.451
    48   1 H        0.924     0.035     2.512     2.478
    49   1 H        0.924     0.035     2.521     2.483

 Mol. C6AA /au·bohr⁶  :      19233.658326
 Mol. C8AA /au·bohr⁸  :     416989.900414
 Mol. α(0) /au        :        212.016955


Wiberg/Mayer (AO) data.
largest (>0.10) Wiberg bond orders for each atom

 ---------------------------------------------------------------------------
     #   Z sym  total        # sym  WBO       # sym  WBO       # sym  WBO
 ---------------------------------------------------------------------------
     1   6 C    3.989 --     2 C    1.370     6 C    1.367     7 C    1.066
     2   6 C    3.989 --     3 C    1.458     1 C    1.370     8 H    0.967
                             5 C    0.105
     3   6 C    3.991 --     2 C    1.458     4 C    1.430    28 H    0.969
                             6 C    0.105
     4   6 C    3.987 --     3 C    1.430     5 C    1.426    10 H    0.970
     5   6 C    3.991 --     6 C    1.460     4 C    1.426    29 H    0.969
                             2 C    0.105
     6   6 C    3.989 --     5 C    1.460     1 C    1.367     9 H    0.966
                             3 C    0.105
     7   6 C    3.909 --    19 O    1.812     1 C    1.066    26 H    0.934
     8   1 H    0.998 --     2 C    0.967
     9   1 H    0.997 --     6 C    0.966
    10   1 H    0.997 --     4 C    0.970
    11   7 N    3.012 --    12 C    1.019    27 H    0.967    13 H    0.942
    12   6 C    3.986 --    11 N    1.019    14 C    1.006    16 H    0.974
                            15 H    0.970
    13   1 H    0.971 --    11 N    0.942
    14   6 C    3.995 --    30 C    1.008    12 C    1.006    17 H    0.975
                            18 H    0.975
    15   1 H    1.000 --    12 C    0.970
    16   1 H    0.999 --    12 C    0.974
    17   1 H    0.998 --    14 C    0.975
    18   1 H    0.998 --    14 C    0.975
    19   8 O    2.034 --     7 C    1.812
    20   7 N    3.070 --    33 C    1.009    22 H    0.964    21 H    0.951
    21   1 H    0.972 --    20 N    0.951
    22   1 H    0.977 --    20 N    0.964
    23   8 O    1.813 --    25 H    0.919    24 H    0.831
    24   1 H    0.906 --    23 O    0.831
    25   1 H    0.922 --    23 O    0.919
    26   1 H    0.999 --     7 C    0.934
    27   1 H    0.980 --    11 N    0.967
    28   1 H    0.997 --     3 C    0.969
    29   1 H    0.997 --     5 C    0.969
    30   6 C    3.998 --    42 C    1.019    14 C    1.008    31 H    0.978
                            32 H    0.978
    31   1 H    0.999 --    30 C    0.978
    32   1 H    0.999 --    30 C    0.978
    33   6 C    3.981 --    20 N    1.009    36 C    1.007    35 H    0.976
                            34 H    0.971
    34   1 H    1.000 --    33 C    0.971
    35   1 H    0.998 --    33 C    0.976
    36   6 C    3.995 --    39 C    1.007    33 C    1.007    37 H    0.974
                            38 H    0.972
    37   1 H    0.998 --    36 C    0.974
    38   1 H    0.999 --    36 C    0.972
    39   6 C    3.997 --    46 C    1.020    36 C    1.007    41 H    0.978
                            40 H    0.976
    40   1 H    0.999 --    39 C    0.976
    41   1 H    0.999 --    39 C    0.978
    42   6 C    3.996 --    30 C    1.019    45 H    0.988    44 H    0.988
                            43 H    0.987
    43   1 H    0.998 --    42 C    0.987
    44   1 H    0.999 --    42 C    0.988
    45   1 H    0.999 --    42 C    0.988
    46   6 C    3.996 --    39 C    1.020    48 H    0.988    49 H    0.987
                            47 H    0.987
    47   1 H    0.998 --    46 C    0.987
    48   1 H    0.999 --    46 C    0.988
    49   1 H    0.999 --    46 C    0.987
 ---------------------------------------------------------------------------

Topologies differ in total number of bonds
Writing topology from bond orders to xtbtopo.mol

molecular dipole:
                 x           y           z       tot (Debye)
 q only:       -2.179      -0.044       0.367
   full:       -2.375      -0.073       0.443       6.143
molecular quadrupole (traceless):
                xx          xy          yy          xz          yz          zz
 q only:       -5.787       7.995      10.545       2.028      -1.646      -4.758
  q+dip:      -11.698       9.048      15.137       3.218       1.366      -3.439
   full:      -12.292       8.848      14.289       2.978      -0.553      -1.997


           -------------------------------------------------
          | TOTAL ENERGY              -61.364672205002 Eh   |
          | GRADIENT NORM               0.027786444849 Eh/α |
          | HOMO-LUMO GAP               2.046769143155 eV   |
           -------------------------------------------------

------------------------------------------------------------------------
 * finished run on 2021/02/11 at 07:57:57.277     
------------------------------------------------------------------------
 total:
 * wall-time:     0 d,  0 h,  0 min,  0.258 sec
 *  cpu-time:     0 d,  0 h,  0 min,  2.873 sec
 * ratio c/w:    11.141 speedup
 SCF:
 * wall-time:     0 d,  0 h,  0 min,  0.165 sec
 *  cpu-time:     0 d,  0 h,  0 min,  1.882 sec
 * ratio c/w:    11.435 speedup


-------------------------   --------------------
FINAL SINGLE POINT ENERGY       -61.364672205000
-------------------------   --------------------


----------------------------------------------------------------------------
                           ORCA NUMERICAL FREQUENCIES
                              (9-process run)
----------------------------------------------------------------------------

Number of atoms                ... 49
Central differences            ... used
Number of displacements        ... 294
Numerical increment            ... 5.000e-03 bohr
IR-spectrum generation         ... on
Raman-spectrum generation      ... off
Surface Crossing Hessian       ... off
List of participating nodes    ...  /tmp/slurm-scratch/freq.632/freq.hostnames

The output will be reduced. Please look at the following files:
SCF program output             ... >/tmp/slurm-scratch/freq.632/freq.lastscf
Integral program output        ... >/tmp/slurm-scratch/freq.632/freq.lastint
Gradient program output        ... >/tmp/slurm-scratch/freq.632/freq.lastgrad
Dipole moment program output   ... >/tmp/slurm-scratch/freq.632/freq.lastmom
AutoCI program output          ... >/tmp/slurm-scratch/freq.632/freq.lastautoci


         <<< Energy and Gradient at the input geometry >>>

        <<< Energy and Gradient at displaced geometries >>>
             <<<Displacing   3/coordinate 3 (+)>>>
             <<<Displacing   3/coordinate 2 (+)>>>
             <<<Displacing   1/coordinate 1 (+)>>>
             <<<Displacing   1/coordinate 2 (+)>>>
             <<<Displacing   2/coordinate 2 (+)>>>
             <<<Displacing   3/coordinate 1 (+)>>>
             <<<Displacing   2/coordinate 1 (+)>>>
             <<<Displacing   2/coordinate 3 (+)>>>
             <<<Displacing   1/coordinate 3 (+)>>>
             <<<Displacing   3/coordinate 1 (-)>>>
             <<<Displacing   2/coordinate 2 (-)>>>
             <<<Displacing   3/coordinate 2 (-)>>>
             <<<Displacing   1/coordinate 1 (-)>>>
             <<<Displacing   2/coordinate 1 (-)>>>
             <<<Displacing   1/coordinate 2 (-)>>>
             <<<Displacing   2/coordinate 3 (-)>>>
             <<<Displacing   3/coordinate 3 (-)>>>
             <<<Displacing   1/coordinate 3 (-)>>>
             <<<Displacing   5/coordinate 1 (+)>>>
             <<<Displacing   6/coordinate 2 (+)>>>
             <<<Displacing   5/coordinate 3 (+)>>>
             <<<Displacing   4/coordinate 3 (+)>>>
             <<<Displacing   6/coordinate 2 (-)>>>
             <<<Displacing   5/coordinate 2 (+)>>>
             <<<Displacing   5/coordinate 3 (-)>>>
             <<<Displacing   4/coordinate 1 (+)>>>
             <<<Displacing   5/coordinate 1 (-)>>>
             <<<Displacing   4/coordinate 3 (-)>>>
             <<<Displacing   5/coordinate 2 (-)>>>
             <<<Displacing   6/coordinate 1 (+)>>>
             <<<Displacing   6/coordinate 3 (+)>>>
             <<<Displacing   4/coordinate 1 (-)>>>
             <<<Displacing   4/coordinate 2 (+)>>>
             <<<Displacing   6/coordinate 3 (-)>>>
             <<<Displacing   6/coordinate 1 (-)>>>
             <<<Displacing   4/coordinate 2 (-)>>>
             <<<Displacing   9/coordinate 1 (+)>>>
             <<<Displacing   9/coordinate 2 (+)>>>
             <<<Displacing   8/coordinate 1 (+)>>>
             <<<Displacing   9/coordinate 1 (-)>>>
             <<<Displacing   8/coordinate 3 (+)>>>
             <<<Displacing   7/coordinate 1 (+)>>>
             <<<Displacing   8/coordinate 1 (-)>>>
             <<<Displacing   7/coordinate 2 (+)>>>
             <<<Displacing   7/coordinate 3 (+)>>>
             <<<Displacing   9/coordinate 2 (-)>>>
             <<<Displacing   8/coordinate 3 (-)>>>
             <<<Displacing   7/coordinate 2 (-)>>>
             <<<Displacing   7/coordinate 1 (-)>>>
             <<<Displacing   8/coordinate 2 (+)>>>
             <<<Displacing   7/coordinate 3 (-)>>>
             <<<Displacing   9/coordinate 3 (+)>>>
             <<<Displacing   8/coordinate 2 (-)>>>
             <<<Displacing   9/coordinate 3 (-)>>>
             <<<Displacing  11/coordinate 3 (+)>>>
             <<<Displacing  11/coordinate 1 (+)>>>
             <<<Displacing  12/coordinate 2 (+)>>>
             <<<Displacing  10/coordinate 3 (+)>>>
             <<<Displacing  10/coordinate 2 (+)>>>
             <<<Displacing  11/coordinate 1 (-)>>>
             <<<Displacing  12/coordinate 2 (-)>>>
             <<<Displacing  11/coordinate 3 (-)>>>
             <<<Displacing  10/coordinate 1 (+)>>>
             <<<Displacing  11/coordinate 2 (+)>>>
             <<<Displacing  10/coordinate 2 (-)>>>
             <<<Displacing  10/coordinate 3 (-)>>>
             <<<Displacing  11/coordinate 2 (-)>>>
             <<<Displacing  10/coordinate 1 (-)>>>
             <<<Displacing  12/coordinate 1 (+)>>>
             <<<Displacing  12/coordinate 3 (+)>>>
             <<<Displacing  12/coordinate 1 (-)>>>
             <<<Displacing  12/coordinate 3 (-)>>>
             <<<Displacing  13/coordinate 2 (+)>>>
             <<<Displacing  14/coordinate 1 (+)>>>
             <<<Displacing  14/coordinate 1 (-)>>>
             <<<Displacing  14/coordinate 3 (+)>>>
             <<<Displacing  13/coordinate 1 (+)>>>
             <<<Displacing  13/coordinate 1 (-)>>>
             <<<Displacing  14/coordinate 3 (-)>>>
             <<<Displacing  13/coordinate 2 (-)>>>
             <<<Displacing  13/coordinate 3 (+)>>>
             <<<Displacing  15/coordinate 1 (+)>>>
             <<<Displacing  13/coordinate 3 (-)>>>
             <<<Displacing  14/coordinate 2 (+)>>>
             <<<Displacing  15/coordinate 1 (-)>>>
             <<<Displacing  14/coordinate 2 (-)>>>
             <<<Displacing  15/coordinate 2 (+)>>>
             <<<Displacing  15/coordinate 3 (+)>>>
             <<<Displacing  15/coordinate 2 (-)>>>
             <<<Displacing  15/coordinate 3 (-)>>>
             <<<Displacing  17/coordinate 1 (+)>>>
             <<<Displacing  16/coordinate 1 (+)>>>
             <<<Displacing  16/coordinate 3 (+)>>>
             <<<Displacing  16/coordinate 2 (+)>>>
             <<<Displacing  17/coordinate 1 (-)>>>
             <<<Displacing  16/coordinate 1 (-)>>>
             <<<Displacing  17/coordinate 2 (+)>>>
             <<<Displacing  16/coordinate 3 (-)>>>
             <<<Displacing  16/coordinate 2 (-)>>>
             <<<Displacing  17/coordinate 2 (-)>>>
             <<<Displacing  17/coordinate 3 (+)>>>
             <<<Displacing  18/coordinate 1 (+)>>>
             <<<Displacing  17/coordinate 3 (-)>>>
             <<<Displacing  18/coordinate 1 (-)>>>
             <<<Displacing  18/coordinate 2 (+)>>>
             <<<Displacing  18/coordinate 2 (-)>>>
             <<<Displacing  18/coordinate 3 (+)>>>
             <<<Displacing  18/coordinate 3 (-)>>>
             <<<Displacing  19/coordinate 1 (+)>>>
             <<<Displacing  20/coordinate 2 (+)>>>
             <<<Displacing  19/coordinate 1 (-)>>>
             <<<Displacing  20/coordinate 2 (-)>>>
             <<<Displacing  19/coordinate 2 (+)>>>
             <<<Displacing  20/coordinate 1 (+)>>>
             <<<Displacing  19/coordinate 3 (+)>>>
             <<<Displacing  19/coordinate 2 (-)>>>
             <<<Displacing  19/coordinate 3 (-)>>>
             <<<Displacing  20/coordinate 1 (-)>>>
             <<<Displacing  20/coordinate 3 (+)>>>
             <<<Displacing  20/coordinate 3 (-)>>>
             <<<Displacing  21/coordinate 1 (+)>>>
             <<<Displacing  21/coordinate 2 (+)>>>
             <<<Displacing  21/coordinate 1 (-)>>>
             <<<Displacing  21/coordinate 2 (-)>>>
             <<<Displacing  21/coordinate 3 (+)>>>
             <<<Displacing  21/coordinate 3 (-)>>>
             <<<Displacing  22/coordinate 2 (+)>>>
             <<<Displacing  22/coordinate 3 (+)>>>
             <<<Displacing  23/coordinate 1 (+)>>>
             <<<Displacing  22/coordinate 2 (-)>>>
             <<<Displacing  23/coordinate 2 (+)>>>
             <<<Displacing  22/coordinate 3 (-)>>>
             <<<Displacing  22/coordinate 1 (+)>>>
             <<<Displacing  23/coordinate 1 (-)>>>
             <<<Displacing  23/coordinate 2 (-)>>>
             <<<Displacing  22/coordinate 1 (-)>>>
             <<<Displacing  23/coordinate 3 (+)>>>
             <<<Displacing  24/coordinate 2 (+)>>>
             <<<Displacing  23/coordinate 3 (-)>>>
             <<<Displacing  24/coordinate 2 (-)>>>
             <<<Displacing  24/coordinate 1 (+)>>>
             <<<Displacing  24/coordinate 1 (-)>>>
             <<<Displacing  24/coordinate 3 (+)>>>
             <<<Displacing  24/coordinate 3 (-)>>>
             <<<Displacing  25/coordinate 1 (+)>>>
             <<<Displacing  25/coordinate 3 (+)>>>
             <<<Displacing  25/coordinate 2 (+)>>>
             <<<Displacing  25/coordinate 1 (-)>>>
             <<<Displacing  26/coordinate 1 (+)>>>
             <<<Displacing  25/coordinate 2 (-)>>>
             <<<Displacing  25/coordinate 3 (-)>>>
             <<<Displacing  26/coordinate 2 (+)>>>
             <<<Displacing  26/coordinate 1 (-)>>>
             <<<Displacing  26/coordinate 2 (-)>>>
             <<<Displacing  26/coordinate 3 (+)>>>
             <<<Displacing  27/coordinate 1 (+)>>>
             <<<Displacing  27/coordinate 1 (-)>>>
             <<<Displacing  27/coordinate 2 (+)>>>
             <<<Displacing  26/coordinate 3 (-)>>>
             <<<Displacing  27/coordinate 2 (-)>>>
             <<<Displacing  27/coordinate 3 (+)>>>
             <<<Displacing  27/coordinate 3 (-)>>>
             <<<Displacing  28/coordinate 1 (+)>>>
             <<<Displacing  28/coordinate 2 (+)>>>
             <<<Displacing  29/coordinate 1 (+)>>>
             <<<Displacing  28/coordinate 1 (-)>>>
             <<<Displacing  28/coordinate 2 (-)>>>
             <<<Displacing  28/coordinate 3 (+)>>>
             <<<Displacing  29/coordinate 1 (-)>>>
             <<<Displacing  28/coordinate 3 (-)>>>
             <<<Displacing  29/coordinate 2 (+)>>>
             <<<Displacing  30/coordinate 1 (+)>>>
             <<<Displacing  29/coordinate 2 (-)>>>
             <<<Displacing  29/coordinate 3 (+)>>>
             <<<Displacing  30/coordinate 1 (-)>>>
             <<<Displacing  29/coordinate 3 (-)>>>
             <<<Displacing  30/coordinate 2 (+)>>>
             <<<Displacing  30/coordinate 2 (-)>>>
             <<<Displacing  30/coordinate 3 (+)>>>
             <<<Displacing  30/coordinate 3 (-)>>>
             <<<Displacing  31/coordinate 3 (+)>>>
             <<<Displacing  32/coordinate 1 (+)>>>
             <<<Displacing  32/coordinate 1 (-)>>>
             <<<Displacing  31/coordinate 3 (-)>>>
             <<<Displacing  31/coordinate 1 (+)>>>
             <<<Displacing  31/coordinate 2 (+)>>>
             <<<Displacing  31/coordinate 1 (-)>>>
             <<<Displacing  31/coordinate 2 (-)>>>
             <<<Displacing  32/coordinate 2 (+)>>>
             <<<Displacing  32/coordinate 3 (+)>>>
             <<<Displacing  32/coordinate 2 (-)>>>
             <<<Displacing  32/coordinate 3 (-)>>>
             <<<Displacing  33/coordinate 1 (+)>>>
             <<<Displacing  33/coordinate 1 (-)>>>
             <<<Displacing  33/coordinate 2 (+)>>>
             <<<Displacing  33/coordinate 2 (-)>>>
             <<<Displacing  33/coordinate 3 (+)>>>
             <<<Displacing  33/coordinate 3 (-)>>>
             <<<Displacing  34/coordinate 1 (+)>>>
             <<<Displacing  34/coordinate 2 (+)>>>
             <<<Displacing  35/coordinate 2 (+)>>>
             <<<Displacing  34/coordinate 1 (-)>>>
             <<<Displacing  34/coordinate 3 (+)>>>
             <<<Displacing  34/coordinate 2 (-)>>>
             <<<Displacing  35/coordinate 2 (-)>>>
             <<<Displacing  34/coordinate 3 (-)>>>
             <<<Displacing  35/coordinate 3 (+)>>>
             <<<Displacing  35/coordinate 1 (+)>>>
             <<<Displacing  35/coordinate 3 (-)>>>
             <<<Displacing  35/coordinate 1 (-)>>>
             <<<Displacing  36/coordinate 1 (+)>>>
             <<<Displacing  36/coordinate 1 (-)>>>
             <<<Displacing  36/coordinate 2 (+)>>>
             <<<Displacing  36/coordinate 2 (-)>>>
             <<<Displacing  36/coordinate 3 (+)>>>
             <<<Displacing  36/coordinate 3 (-)>>>
             <<<Displacing  37/coordinate 1 (+)>>>
             <<<Displacing  37/coordinate 3 (+)>>>
             <<<Displacing  37/coordinate 2 (+)>>>
             <<<Displacing  37/coordinate 2 (-)>>>
             <<<Displacing  37/coordinate 3 (-)>>>
             <<<Displacing  37/coordinate 1 (-)>>>
             <<<Displacing  38/coordinate 1 (+)>>>
             <<<Displacing  38/coordinate 3 (+)>>>
             <<<Displacing  38/coordinate 2 (+)>>>
             <<<Displacing  38/coordinate 1 (-)>>>
             <<<Displacing  38/coordinate 3 (-)>>>
             <<<Displacing  38/coordinate 2 (-)>>>
             <<<Displacing  39/coordinate 1 (+)>>>
             <<<Displacing  39/coordinate 1 (-)>>>
             <<<Displacing  39/coordinate 2 (+)>>>
             <<<Displacing  39/coordinate 2 (-)>>>
             <<<Displacing  39/coordinate 3 (+)>>>
             <<<Displacing  39/coordinate 3 (-)>>>
             <<<Displacing  40/coordinate 1 (+)>>>
             <<<Displacing  40/coordinate 2 (+)>>>
             <<<Displacing  41/coordinate 1 (+)>>>
             <<<Displacing  40/coordinate 3 (+)>>>
             <<<Displacing  40/coordinate 1 (-)>>>
             <<<Displacing  40/coordinate 2 (-)>>>
             <<<Displacing  41/coordinate 2 (+)>>>
             <<<Displacing  41/coordinate 1 (-)>>>
             <<<Displacing  41/coordinate 2 (-)>>>
             <<<Displacing  40/coordinate 3 (-)>>>
             <<<Displacing  41/coordinate 3 (+)>>>
             <<<Displacing  41/coordinate 3 (-)>>>
             <<<Displacing  42/coordinate 1 (+)>>>
             <<<Displacing  42/coordinate 2 (+)>>>
             <<<Displacing  42/coordinate 2 (-)>>>
             <<<Displacing  42/coordinate 1 (-)>>>
             <<<Displacing  43/coordinate 1 (+)>>>
             <<<Displacing  42/coordinate 3 (+)>>>
             <<<Displacing  43/coordinate 2 (+)>>>
             <<<Displacing  43/coordinate 1 (-)>>>
             <<<Displacing  44/coordinate 1 (+)>>>
             <<<Displacing  43/coordinate 3 (+)>>>
             <<<Displacing  42/coordinate 3 (-)>>>
             <<<Displacing  43/coordinate 2 (-)>>>
             <<<Displacing  44/coordinate 1 (-)>>>
             <<<Displacing  43/coordinate 3 (-)>>>
             <<<Displacing  44/coordinate 2 (+)>>>
             <<<Displacing  44/coordinate 2 (-)>>>
             <<<Displacing  44/coordinate 3 (+)>>>
             <<<Displacing  44/coordinate 3 (-)>>>
             <<<Displacing  45/coordinate 1 (+)>>>
             <<<Displacing  45/coordinate 2 (+)>>>
             <<<Displacing  45/coordinate 2 (-)>>>
             <<<Displacing  45/coordinate 1 (-)>>>
             <<<Displacing  45/coordinate 3 (+)>>>
             <<<Displacing  46/coordinate 2 (+)>>>
             <<<Displacing  45/coordinate 3 (-)>>>
             <<<Displacing  46/coordinate 1 (+)>>>
             <<<Displacing  46/coordinate 3 (+)>>>
             <<<Displacing  46/coordinate 2 (-)>>>
             <<<Displacing  46/coordinate 1 (-)>>>
             <<<Displacing  46/coordinate 3 (-)>>>
             <<<Displacing  47/coordinate 1 (+)>>>
             <<<Displacing  47/coordinate 2 (+)>>>
             <<<Displacing  47/coordinate 1 (-)>>>
             <<<Displacing  47/coordinate 2 (-)>>>
             <<<Displacing  47/coordinate 3 (+)>>>
             <<<Displacing  47/coordinate 3 (-)>>>
             <<<Displacing  48/coordinate 1 (+)>>>
             <<<Displacing  48/coordinate 2 (+)>>>
             <<<Displacing  48/coordinate 1 (-)>>>
             <<<Displacing  48/coordinate 2 (-)>>>
             <<<Displacing  49/coordinate 2 (+)>>>
             <<<Displacing  49/coordinate 1 (+)>>>
             <<<Displacing  49/coordinate 2 (-)>>>
             <<<Displacing  49/coordinate 3 (+)>>>
             <<<Displacing  48/coordinate 3 (+)>>>
             <<<Displacing  49/coordinate 1 (-)>>>
             <<<Displacing  48/coordinate 3 (-)>>>
             <<<Displacing  49/coordinate 3 (-)>>>

-----------------------
VIBRATIONAL FREQUENCIES
-----------------------

Scaling factor for frequencies =  1.000000000 (already applied!)

   0:         0.00 cm**-1
   1:         0.00 cm**-1
   2:         0.00 cm**-1
   3:         0.00 cm**-1
   4:         0.00 cm**-1
   5:         0.00 cm**-1
   6:       -38.08 cm**-1 ***imaginary mode***
   7:        20.99 cm**-1
   8:        28.32 cm**-1
   9:        33.95 cm**-1
  10:        38.42 cm**-1
  11:        39.94 cm**-1
  12:        44.10 cm**-1
  13:        49.25 cm**-1
  14:        66.35 cm**-1
  15:        70.96 cm**-1
  16:        82.82 cm**-1
  17:        91.89 cm**-1
  18:        93.29 cm**-1
  19:       105.28 cm**-1
  20:       124.89 cm**-1
  21:       127.51 cm**-1
  22:       139.04 cm**-1
  23:       149.64 cm**-1
  24:       155.34 cm**-1
  25:       190.71 cm**-1
  26:       197.32 cm**-1
  27:       215.62 cm**-1
  28:       219.57 cm**-1
  29:       238.26 cm**-1
  30:       268.01 cm**-1
  31:       269.17 cm**-1
  32:       272.82 cm**-1
  33:       324.73 cm**-1
  34:       331.02 cm**-1
  35:       380.11 cm**-1
  36:       393.92 cm**-1
  37:       394.74 cm**-1
  38:       415.54 cm**-1
  39:       417.52 cm**-1
  40:       429.20 cm**-1
  41:       444.60 cm**-1
  42:       477.08 cm**-1
  43:       587.19 cm**-1
  44:       625.84 cm**-1
  45:       660.29 cm**-1
  46:       733.39 cm**-1
  47:       746.07 cm**-1
  48:       768.38 cm**-1
  49:       774.22 cm**-1
  50:       821.73 cm**-1
  51:       826.03 cm**-1
  52:       832.06 cm**-1
  53:       879.71 cm**-1
  54:       897.54 cm**-1
  55:       922.93 cm**-1
  56:       924.94 cm**-1
  57:       929.58 cm**-1
  58:       932.97 cm**-1
  59:       934.59 cm**-1
  60:       937.60 cm**-1
  61:       940.94 cm**-1
  62:       977.52 cm**-1
  63:       984.89 cm**-1
  64:       999.43 cm**-1
  65:      1001.14 cm**-1
  66:      1003.64 cm**-1
  67:      1059.29 cm**-1
  68:      1065.12 cm**-1
  69:      1068.53 cm**-1
  70:      1095.45 cm**-1
  71:      1099.65 cm**-1
  72:      1111.23 cm**-1
  73:      1122.26 cm**-1
  74:      1123.15 cm**-1
  75:      1145.97 cm**-1
  76:      1151.71 cm**-1
  77:      1173.18 cm**-1
  78:      1180.14 cm**-1
  79:      1200.25 cm**-1
  80:      1200.51 cm**-1
  81:      1207.72 cm**-1
  82:      1233.55 cm**-1
  83:      1238.91 cm**-1
  84:      1267.41 cm**-1
  85:      1276.25 cm**-1
  86:      1277.06 cm**-1
  87:      1279.62 cm**-1
  88:      1280.86 cm**-1
  89:      1289.40 cm**-1
  90:      1294.95 cm**-1
  91:      1303.42 cm**-1
  92:      1351.18 cm**-1
  93:      1352.34 cm**-1
  94:      1358.28 cm**-1
  95:      1378.46 cm**-1
  96:      1382.72 cm**-1
  97:      1426.66 cm**-1
  98:      1427.09 cm**-1
  99:      1427.77 cm**-1
 100:      1448.21 cm**-1
 101:      1492.58 cm**-1
 102:      1502.34 cm**-1
 103:      1502.66 cm**-1
 104:      1505.26 cm**-1
 105:      1506.83 cm**-1
 106:      1507.24 cm**-1
 107:      1507.37 cm**-1
 108:      1509.21 cm**-1
 109:      1513.10 cm**-1
 110:      1514.25 cm**-1
 111:      1542.25 cm**-1
 112:      1548.39 cm**-1
 113:      1558.54 cm**-1
 114:      1563.41 cm**-1
 115:      1570.32 cm**-1
 116:      1666.19 cm**-1
 117:      2840.63 cm**-1
 118:      2847.50 cm**-1
 119:      2894.94 cm**-1
 120:      2932.78 cm**-1
 121:      2934.99 cm**-1
 122:      2940.80 cm**-1
 123:      2943.95 cm**-1
 124:      2959.06 cm**-1
 125:      2961.11 cm**-1
 126:      2963.03 cm**-1
 127:      2969.22 cm**-1
 128:      2973.03 cm**-1
 129:      2978.52 cm**-1
 130:      2980.61 cm**-1
 131:      2980.63 cm**-1
 132:      2985.83 cm**-1
 133:      2986.49 cm**-1
 134:      2994.94 cm**-1
 135:      2995.87 cm**-1
 136:      2998.21 cm**-1
 137:      3055.68 cm**-1
 138:      3062.05 cm**-1
 139:      3067.38 cm**-1
 140:      3074.28 cm**-1
 141:      3080.25 cm**-1
 142:      3365.16 cm**-1
 143:      3391.28 cm**-1
 144:      3415.63 cm**-1
 145:      3419.50 cm**-1
 146:      3592.68 cm**-1


------------
NORMAL MODES
------------

These modes are the cartesian displacements weighted by the diagonal matrix
M(i,i)=1/sqrt(m[i]) where m[i] is the mass of the displaced atom
Thus, these vectors are normalized but *not* orthogonal

                  0          1          2          3          4          5    
      0       0.000000   0.000000   0.000000   0.000000   0.000000   0.000000
      1       0.000000   0.000000   0.000000   0.000000   0.000000   0.000000
      2       0.000000   0.000000   0.000000   0.000000   0.000000   0.000000
      3       0.000000   0.000000   0.000000   0.000000   0.000000   0.000000
      4       0.000000   0.000000   0.000000   0.000000   0.000000   0.000000
      5       0.000000   0.000000   0.000000   0.000000   0.000000   0.000000
      6       0.000000   0.000000   0.000000   0.000000   0.000000   0.000000
      7       0.000000   0.000000   0.000000   0.000000   0.000000   0.000000
      8       0.000000   0.000000   0.000000   0.000000   0.000000   0.000000
      9       0.000000   0.000000   0.000000   0.000000   0.000000   0.000000
     10       0.000000   0.000000   0.000000   0.000000   0.000000   0.000000
     11       0.000000   0.000000   0.000000   0.000000   0.000000   0.000000
     12       0.000000   0.000000   0.000000   0.000000   0.000000   0.000000
     13       0.000000   0.000000   0.000000   0.000000   0.000000   0.000000
     14       0.000000   0.000000   0.000000   0.000000   0.000000   0.000000
     15       0.000000   0.000000   0.000000   0.000000   0.000000   0.000000
     16       0.000000   0.000000   0.000000   0.000000   0.000000   0.000000
     17       0.000000   0.000000   0.000000   0.000000   0.000000   0.000000
     18       0.000000   0.000000   0.000000   0.000000   0.000000   0.000000
     19       0.000000   0.000000   0.000000   0.000000   0.000000   0.000000
     20       0.000000   0.000000   0.000000   0.000000   0.000000   0.000000
     21       0.000000   0.000000   0.000000   0.000000   0.000000   0.000000
     22       0.000000   0.000000   0.000000   0.000000   0.000000   0.000000
     23       0.000000   0.000000   0.000000   0.000000   0.000000   0.000000
     24       0.000000   0.000000   0.000000   0.000000   0.000000   0.000000
     25       0.000000   0.000000   0.000000   0.000000   0.000000   0.000000
     26       0.000000   0.000000   0.000000   0.000000   0.000000   0.000000
     27       0.000000   0.000000   0.000000   0.000000   0.000000   0.000000
     28       0.000000   0.000000   0.000000   0.000000   0.000000   0.000000
     29       0.000000   0.000000   0.000000   0.000000   0.000000   0.000000
     30       0.000000   0.000000   0.000000   0.000000   0.000000   0.000000
     31       0.000000   0.000000   0.000000   0.000000   0.000000   0.000000
     32       0.000000   0.000000   0.000000   0.000000   0.000000   0.000000
     33       0.000000   0.000000   0.000000   0.000000   0.000000   0.000000
     34       0.000000   0.000000   0.000000   0.000000   0.000000   0.000000
     35       0.000000   0.000000   0.000000   0.000000   0.000000   0.000000
     36       0.000000   0.000000   0.000000   0.000000   0.000000   0.000000
     37       0.000000   0.000000   0.000000   0.000000   0.000000   0.000000
     38       0.000000   0.000000   0.000000   0.000000   0.000000   0.000000
     39       0.000000   0.000000   0.000000   0.000000   0.000000   0.000000
     40       0.000000   0.000000   0.000000   0.000000   0.000000   0.000000
     41       0.000000   0.000000   0.000000   0.000000   0.000000   0.000000
     42       0.000000   0.000000   0.000000   0.000000   0.000000   0.000000
     43       0.000000   0.000000   0.000000   0.000000   0.000000   0.000000
     44       0.000000   0.000000   0.000000   0.000000   0.000000   0.000000
     45       0.000000   0.000000   0.000000   0.000000   0.000000   0.000000
     46       0.000000   0.000000   0.000000   0.000000   0.000000   0.000000
     47       0.000000   0.000000   0.000000   0.000000   0.000000   0.000000
     48       0.000000   0.000000   0.000000   0.000000   0.000000   0.000000
     49       0.000000   0.000000   0.000000   0.000000   0.000000   0.000000
     50       0.000000   0.000000   0.000000   0.000000   0.000000   0.000000
     51       0.000000   0.000000   0.000000   0.000000   0.000000   0.000000
     52       0.000000   0.000000   0.000000   0.000000   0.000000   0.000000
     53       0.000000   0.000000   0.000000   0.000000   0.000000   0.000000
     54       0.000000   0.000000   0.000000   0.000000   0.000000   0.000000
     55       0.000000   0.000000   0.000000   0.000000   0.000000   0.000000
     56       0.000000   0.000000   0.000000   0.000000   0.000000   0.000000
     57       0.000000   0.000000   0.000000   0.000000   0.000000   0.000000
     58       0.000000   0.000000   0.000000   0.000000   0.000000   0.000000
     59       0.000000   0.000000   0.000000   0.000000   0.000000   0.000000
     60       0.000000   0.000000   0.000000   0.000000   0.000000   0.000000
     61       0.000000   0.000000   0.000000   0.000000   0.000000   0.000000
     62       0.000000   0.000000   0.000000   0.000000   0.000000   0.000000
     63       0.000000   0.000000   0.000000   0.000000   0.000000   0.000000
     64       0.000000   0.000000   0.000000   0.000000   0.000000   0.000000
     65       0.000000   0.000000   0.000000   0.000000   0.000000   0.000000
     66       0.000000   0.000000   0.000000   0.000000   0.000000   0.000000
     67       0.000000   0.000000   0.000000   0.000000   0.000000   0.000000
     68       0.000000   0.000000   0.000000   0.000000   0.000000   0.000000
     69       0.000000   0.000000   0.000000   0.000000   0.000000   0.000000
     70       0.000000   0.000000   0.000000   0.000000   0.000000   0.000000
     71       0.000000   0.000000   0.000000   0.000000   0.000000   0.000000
     72       0.000000   0.000000   0.000000   0.000000   0.000000   0.000000
     73       0.000000   0.000000   0.000000   0.000000   0.000000   0.000000
     74       0.000000   0.000000   0.000000   0.000000   0.000000   0.000000
     75       0.000000   0.000000   0.000000   0.000000   0.000000   0.000000
     76       0.000000   0.000000   0.000000   0.000000   0.000000   0.000000
     77       0.000000   0.000000   0.000000   0.000000   0.000000   0.000000
     78       0.000000   0.000000   0.000000   0.000000   0.000000   0.000000
     79       0.000000   0.000000   0.000000   0.000000   0.000000   0.000000
     80       0.000000   0.000000   0.000000   0.000000   0.000000   0.000000
     81       0.000000   0.000000   0.000000   0.000000   0.000000   0.000000
     82       0.000000   0.000000   0.000000   0.000000   0.000000   0.000000
     83       0.000000   0.000000   0.000000   0.000000   0.000000   0.000000
     84       0.000000   0.000000   0.000000   0.000000   0.000000   0.000000
     85       0.000000   0.000000   0.000000   0.000000   0.000000   0.000000
     86       0.000000   0.000000   0.000000   0.000000   0.000000   0.000000
     87       0.000000   0.000000   0.000000   0.000000   0.000000   0.000000
     88       0.000000   0.000000   0.000000   0.000000   0.000000   0.000000
     89       0.000000   0.000000   0.000000   0.000000   0.000000   0.000000
     90       0.000000   0.000000   0.000000   0.000000   0.000000   0.000000
     91       0.000000   0.000000   0.000000   0.000000   0.000000   0.000000
     92       0.000000   0.000000   0.000000   0.000000   0.000000   0.000000
     93       0.000000   0.000000   0.000000   0.000000   0.000000   0.000000
     94       0.000000   0.000000   0.000000   0.000000   0.000000   0.000000
     95       0.000000   0.000000   0.000000   0.000000   0.000000   0.000000
     96       0.000000   0.000000   0.000000   0.000000   0.000000   0.000000
     97       0.000000   0.000000   0.000000   0.000000   0.000000   0.000000
     98       0.000000   0.000000   0.000000   0.000000   0.000000   0.000000
     99       0.000000   0.000000   0.000000   0.000000   0.000000   0.000000
    100       0.000000   0.000000   0.000000   0.000000   0.000000   0.000000
    101       0.000000   0.000000   0.000000   0.000000   0.000000   0.000000
    102       0.000000   0.000000   0.000000   0.000000   0.000000   0.000000
    103       0.000000   0.000000   0.000000   0.000000   0.000000   0.000000
    104       0.000000   0.000000   0.000000   0.000000   0.000000   0.000000
    105       0.000000   0.000000   0.000000   0.000000   0.000000   0.000000
    106       0.000000   0.000000   0.000000   0.000000   0.000000   0.000000
    107       0.000000   0.000000   0.000000   0.000000   0.000000   0.000000
    108       0.000000   0.000000   0.000000   0.000000   0.000000   0.000000
    109       0.000000   0.000000   0.000000   0.000000   0.000000   0.000000
    110       0.000000   0.000000   0.000000   0.000000   0.000000   0.000000
    111       0.000000   0.000000   0.000000   0.000000   0.000000   0.000000
    112       0.000000   0.000000   0.000000   0.000000   0.000000   0.000000
    113       0.000000   0.000000   0.000000   0.000000   0.000000   0.000000
    114       0.000000   0.000000   0.000000   0.000000   0.000000   0.000000
    115       0.000000   0.000000   0.000000   0.000000   0.000000   0.000000
    116       0.000000   0.000000   0.000000   0.000000   0.000000   0.000000
    117       0.000000   0.000000   0.000000   0.000000   0.000000   0.000000
    118       0.000000   0.000000   0.000000   0.000000   0.000000   0.000000
    119       0.000000   0.000000   0.000000   0.000000   0.000000   0.000000
    120       0.000000   0.000000   0.000000   0.000000   0.000000   0.000000
    121       0.000000   0.000000   0.000000   0.000000   0.000000   0.000000
    122       0.000000   0.000000   0.000000   0.000000   0.000000   0.000000
    123       0.000000   0.000000   0.000000   0.000000   0.000000   0.000000
    124       0.000000   0.000000   0.000000   0.000000   0.000000   0.000000
    125       0.000000   0.000000   0.000000   0.000000   0.000000   0.000000
    126       0.000000   0.000000   0.000000   0.000000   0.000000   0.000000
    127       0.000000   0.000000   0.000000   0.000000   0.000000   0.000000
    128       0.000000   0.000000   0.000000   0.000000   0.000000   0.000000
    129       0.000000   0.000000   0.000000   0.000000   0.000000   0.000000
    130       0.000000   0.000000   0.000000   0.000000   0.000000   0.000000
    131       0.000000   0.000000   0.000000   0.000000   0.000000   0.000000
    132       0.000000   0.000000   0.000000   0.000000   0.000000   0.000000
    133       0.000000   0.000000   0.000000   0.000000   0.000000   0.000000
    134       0.000000   0.000000   0.000000   0.000000   0.000000   0.000000
    135       0.000000   0.000000   0.000000   0.000000   0.000000   0.000000
    136       0.000000   0.000000   0.000000   0.000000   0.000000   0.000000
    137       0.000000   0.000000   0.000000   0.000000   0.000000   0.000000
    138       0.000000   0.000000   0.000000   0.000000   0.000000   0.000000
    139       0.000000   0.000000   0.000000   0.000000   0.000000   0.000000
    140       0.000000   0.000000   0.000000   0.000000   0.000000   0.000000
    141       0.000000   0.000000   0.000000   0.000000   0.000000   0.000000
    142       0.000000   0.000000   0.000000   0.000000   0.000000   0.000000
    143       0.000000   0.000000   0.000000   0.000000   0.000000   0.000000
    144       0.000000   0.000000   0.000000   0.000000   0.000000   0.000000
    145       0.000000   0.000000   0.000000   0.000000   0.000000   0.000000
    146       0.000000   0.000000   0.000000   0.000000   0.000000   0.000000
                  6          7          8          9         10         11    
      0       0.034437   0.101274   0.007365   0.017428  -0.065179  -0.051993
      1       0.019018   0.024009   0.065797   0.007129   0.007996   0.002117
      2       0.115597  -0.034855  -0.034584   0.036484   0.018721  -0.067157
      3       0.010434   0.096062   0.014849   0.032024  -0.128916  -0.002200
      4       0.055014  -0.000577   0.078556   0.008003  -0.044896   0.069086
      5       0.041542  -0.007630  -0.044025   0.050215   0.025705  -0.106340
      6       0.001118   0.104596   0.020029   0.031112  -0.126399  -0.007405
      7       0.071101  -0.032857   0.075177   0.021617  -0.114986   0.139413
      8      -0.002425   0.021076  -0.014571   0.054717  -0.009837  -0.085282
      9       0.011234   0.118710   0.017945   0.015501  -0.060983  -0.061370
     10       0.059356  -0.043633   0.058035   0.035373  -0.134534   0.141728
     11       0.010457   0.026670   0.025442   0.044325  -0.050918  -0.020827
     12       0.031906   0.124198   0.011063   0.001494   0.001952  -0.110527
     13       0.031958  -0.021161   0.043255   0.033614  -0.082759   0.073722
     14       0.067260   0.002848   0.038203   0.033048  -0.058194   0.020836
     15       0.043844   0.115740   0.006202   0.002649  -0.000538  -0.106781
     16       0.010267   0.012835   0.046418   0.018819  -0.011131   0.005006
     17       0.124396  -0.028551   0.009477   0.030184  -0.024670  -0.002747
     18       0.047321   0.091352   0.001106   0.017343  -0.067981  -0.046750
     19      -0.003842   0.065552   0.072665  -0.005425   0.085900  -0.074577
     20       0.158470  -0.074213  -0.066555   0.027639   0.046662  -0.092745
     21      -0.000322   0.084966   0.015905   0.043605  -0.179566   0.038957
     22       0.068367   0.008571   0.092557  -0.001784  -0.028287   0.065653
     23       0.027171  -0.012860  -0.075772   0.056208   0.057025  -0.153083
     24       0.059310   0.118821   0.001300  -0.007442   0.046899  -0.144055
     25      -0.014365   0.033282   0.034653   0.016334   0.031059  -0.049087
     26       0.172572  -0.052679   0.020111   0.023380  -0.032500   0.030868
     27       0.003630   0.125174   0.021725   0.013909  -0.058798  -0.064388
     28       0.073691  -0.068566   0.055819   0.047772  -0.189141   0.194529
     29      -0.025725   0.048158   0.047035   0.044023  -0.077428  -0.001137
     30      -0.074131  -0.007681  -0.111821   0.097097   0.083066   0.080574
     31       0.001388  -0.042548   0.014336  -0.000310   0.064759   0.020033
     32      -0.338230  -0.081775  -0.013683   0.057175  -0.074675  -0.023143
     33      -0.069550  -0.032186  -0.086750   0.087017   0.122618   0.055694
     34      -0.016243  -0.021033  -0.008582   0.014514   0.022746   0.044622
     35      -0.180426  -0.040592  -0.050268   0.010560  -0.046248  -0.013798
     36      -0.118434  -0.006510  -0.148421   0.113294   0.051163   0.087623
     37      -0.023565  -0.036880   0.037492   0.009893   0.044327   0.031037
     38      -0.355823  -0.070066   0.066274   0.067365  -0.091870  -0.004812
     39      -0.007296  -0.006008  -0.083093   0.062097   0.106390   0.083737
     40       0.003894   0.020135  -0.099093   0.035666  -0.002190   0.069118
     41      -0.089231  -0.021962   0.009469  -0.043845  -0.058225   0.017170
     42      -0.170869  -0.060883  -0.108199   0.130218   0.130270   0.029420
     43      -0.085780  -0.032320   0.052372   0.021685  -0.023002   0.063283
     44      -0.139084  -0.030514  -0.058154  -0.002515  -0.038371  -0.010554
     45      -0.011709  -0.042521  -0.047294   0.053729   0.159467   0.042345
     46       0.015141  -0.022290  -0.026211   0.008008   0.051600   0.030462
     47      -0.163242  -0.033809  -0.121703   0.025565  -0.016855  -0.032338
     48       0.070116   0.014873  -0.069867   0.016110   0.108638   0.123185
     49       0.024037   0.010616  -0.161999   0.001758   0.084582   0.109342
     50      -0.114062  -0.025479   0.019584  -0.024065  -0.077944  -0.002787
     51      -0.040005   0.019014  -0.120322   0.115702   0.042133   0.063206
     52      -0.004616   0.031596  -0.079044   0.057896  -0.052287   0.051413
     53      -0.081201  -0.017615   0.081944  -0.039500  -0.113059  -0.003905
     54       0.058006   0.097710  -0.002120   0.006163  -0.023193  -0.100609
     55      -0.071373   0.098574   0.077927  -0.005633   0.134702  -0.113824
     56       0.272781  -0.115965  -0.078394   0.013271   0.031574  -0.104067
     57      -0.004340  -0.151047   0.091170   0.014928  -0.027371  -0.008733
     58      -0.041247   0.034784   0.107782  -0.012760   0.114770  -0.044717
     59      -0.021574  -0.000637   0.067451   0.095948   0.022276   0.012080
     60      -0.024539  -0.150322   0.047981   0.016261  -0.040018  -0.036783
     61      -0.072945   0.076112   0.117768  -0.012897   0.133582  -0.059484
     62      -0.080382   0.076603   0.091858   0.095741   0.058678  -0.011322
     63       0.019717  -0.180894   0.136744   0.065734  -0.014661   0.005992
     64      -0.067360   0.079535   0.151679   0.001735   0.148908  -0.048013
     65       0.023158  -0.068299   0.057189   0.119394  -0.002744   0.026482
     66      -0.041908  -0.065000   0.024391  -0.090562  -0.022973   0.008749
     67       0.077508  -0.056694   0.086012  -0.004677   0.069814   0.001672
     68      -0.061890  -0.024271   0.121283   0.159181   0.023109  -0.009258
     69      -0.026008  -0.086423   0.046994  -0.062602  -0.024304   0.001658
     70       0.022221  -0.048426   0.094840  -0.016576   0.061472  -0.004762
     71      -0.052933  -0.014156   0.105646   0.147343   0.026402  -0.002800
     72      -0.030052  -0.061479   0.031396  -0.159497  -0.044091   0.002664
     73       0.102783  -0.049317   0.055564   0.047439   0.098988   0.017813
     74      -0.036755  -0.016814   0.101060   0.166274   0.035453   0.000338
     75       0.024962   0.072979   0.001303   0.029591  -0.120345   0.014661
     76       0.058674   0.071748   0.076928  -0.015066   0.098680  -0.101478
     77      -0.008966  -0.068494  -0.077152   0.041771   0.071950  -0.087627
     78      -0.126873  -0.034287  -0.126190   0.107498   0.095359   0.062318
     79      -0.021896  -0.059928   0.076892   0.001736   0.082961   0.010063
     80      -0.407119  -0.113503  -0.069020   0.071983  -0.065164  -0.046728
     81      -0.014802   0.100466   0.025684   0.042249  -0.174456   0.030667
     82       0.095211  -0.049924   0.085307   0.022177  -0.153988   0.190818
     83      -0.049162   0.039374  -0.022359   0.064772  -0.005484  -0.115635
     84       0.040342   0.134963   0.009931  -0.010531   0.052778  -0.150900
     85       0.025921  -0.029676   0.028843   0.044112  -0.098270   0.073844
     86       0.069572   0.007398   0.071394   0.026096  -0.090723   0.073500
     87      -0.010116  -0.040772  -0.053183   0.029132   0.169806   0.087277
     88       0.003983   0.057288  -0.130612   0.073716  -0.072274   0.064059
     89       0.012031  -0.008503  -0.041940  -0.127086   0.033635   0.102260
     90       0.013191  -0.068455  -0.027406  -0.021767   0.240142   0.109277
     91       0.020201   0.047513  -0.140809   0.047894  -0.026587   0.081809
     92       0.027554  -0.006250  -0.085978  -0.139890   0.073271   0.122165
     93      -0.063025  -0.053935  -0.045589   0.067821   0.149053   0.044830
     94      -0.035317   0.060826  -0.088835   0.115250  -0.145644   0.024062
     95       0.033753  -0.005894  -0.052735  -0.145767   0.054483   0.121585
     96       0.011681  -0.149683   0.113857   0.011399  -0.019668   0.008565
     97      -0.066992   0.031767   0.026448  -0.048144   0.078739  -0.076049
     98       0.007138  -0.000218   0.031531   0.021045  -0.003321   0.035399
     99       0.011536  -0.174627   0.142665   0.067358  -0.012132   0.006827
    100      -0.133322   0.099222  -0.011898  -0.069579   0.097689  -0.129663
    101       0.013681   0.010687   0.015300  -0.015550  -0.010049   0.041479
    102       0.043682  -0.149961   0.164865   0.014412  -0.001995   0.044039
    103      -0.042819   0.003433   0.033035  -0.043222   0.066644  -0.057511
    104       0.057980  -0.069196   0.034472   0.032159  -0.037283   0.071302
    105      -0.013452  -0.115588   0.034569  -0.071792  -0.047411  -0.015086
    106      -0.040227  -0.026898  -0.016809  -0.063269   0.027442  -0.065345
    107      -0.033655   0.075435   0.013782  -0.024013   0.022756   0.009233
    108      -0.014573  -0.068752   0.024016  -0.134308  -0.048117   0.010313
    109       0.016627  -0.054960   0.035284  -0.056206   0.020165   0.012860
    110      -0.034233   0.046839   0.019027   0.014997   0.023512  -0.008941
    111      -0.042781  -0.158789  -0.037572  -0.061555  -0.082484  -0.084974
    112      -0.059589  -0.010787  -0.022046  -0.061574   0.037852  -0.084652
    113      -0.081877   0.118965   0.003016  -0.020408   0.051403  -0.039202
    114      -0.002021  -0.090746   0.065948  -0.084394  -0.032526   0.020417
    115      -0.061385  -0.071705  -0.119061  -0.088822  -0.029639  -0.135756
    116      -0.011463   0.127043   0.006603  -0.123109   0.007953   0.072757
    117      -0.005067  -0.134919   0.070920  -0.020495  -0.028975  -0.013851
    118      -0.106170  -0.048216  -0.155468  -0.095951  -0.024004  -0.183439
    119      -0.007420   0.152453   0.005397  -0.161109   0.005536   0.095495
    120       0.021142  -0.047376   0.134765  -0.095244   0.001383   0.090740
    121      -0.046660  -0.087355  -0.118884  -0.089467  -0.039677  -0.127711
    122       0.024257   0.085598   0.003871  -0.124171  -0.018904   0.089829
    123       0.026049  -0.022041  -0.067983   0.011954   0.167652   0.117669
    124       0.030141   0.100855  -0.200583   0.092294  -0.104456   0.087898
    125       0.055337  -0.004166  -0.023615  -0.166763   0.049407   0.137297
    126       0.020423  -0.044565  -0.043706  -0.005569   0.199299   0.113377
    127       0.033553   0.123689  -0.224418   0.112350  -0.139184   0.090107
    128       0.105828   0.005848  -0.051217  -0.207643   0.090655   0.184658
    129       0.012822   0.002366  -0.097779   0.050793   0.118447   0.105530
    130       0.021720   0.109400  -0.197800   0.109624  -0.134459   0.078653
    131       0.049467  -0.008641   0.010054  -0.165782   0.031024   0.128818
    132       0.070201  -0.010450  -0.073926  -0.021138   0.183631   0.156881
    133       0.053975   0.101275  -0.230667   0.068877  -0.062298   0.113206
    134       0.041189  -0.006804  -0.016754  -0.155090   0.038067   0.123925
    135      -0.016932  -0.065947   0.001788  -0.164303  -0.066330   0.008210
    136      -0.041554  -0.127490  -0.170389  -0.102388  -0.079729  -0.158530
    137      -0.040934   0.198453   0.008567  -0.169097   0.030765   0.085759
    138      -0.011336  -0.054693   0.019019  -0.168708  -0.057296   0.025445
    139      -0.051819  -0.149102  -0.228906  -0.122675  -0.115113  -0.195705
    140      -0.030060   0.219420  -0.004091  -0.227750   0.015761   0.110706
    141      -0.017735  -0.031660  -0.009270  -0.220949  -0.072438   0.028789
    142      -0.003783  -0.164428  -0.149902  -0.089394  -0.090234  -0.135293
    143      -0.042248   0.181294   0.013716  -0.138457   0.034632   0.073312
    144      -0.033587  -0.093868  -0.050450  -0.159626  -0.094008  -0.039300
    145      -0.054879  -0.109284  -0.169300  -0.104472  -0.070113  -0.161526
    146      -0.072775   0.248867   0.018733  -0.175106   0.059111   0.084797
                 12         13         14         15         16         17    
      0      -0.018631   0.035777  -0.010426   0.010365   0.005270  -0.010031
      1       0.053797  -0.014524  -0.016736  -0.066356  -0.004884   0.014709
      2       0.009545   0.012577  -0.001942   0.007177   0.002164   0.010205
      3      -0.082184   0.031155   0.005295   0.055819   0.029965  -0.018335
      4       0.077997  -0.006295  -0.028588  -0.072873  -0.069404  -0.002525
      5      -0.085870  -0.003343   0.029380   0.060900   0.112608   0.025181
      6      -0.100387   0.027058   0.004967   0.047518   0.024576  -0.018630
      7       0.082773   0.002664  -0.019206  -0.018695  -0.055825  -0.013491
      8      -0.196295  -0.023586   0.034160   0.047164   0.088434   0.016656
      9      -0.053871   0.028295  -0.011511  -0.006722  -0.006818  -0.011570
     10       0.061984   0.004160   0.003501   0.046698   0.027585  -0.006030
     11      -0.210009  -0.028473   0.006103  -0.025951  -0.054547  -0.008921
     12       0.009433   0.032869  -0.028539  -0.052796  -0.030743  -0.003554
     13       0.039195  -0.002740   0.019459   0.058741   0.092243   0.011295
     14      -0.119530  -0.015109  -0.031038  -0.085968  -0.161995  -0.023790
     15       0.026380   0.036929  -0.028180  -0.043754  -0.023290  -0.002928
     16       0.036891  -0.012022   0.009876   0.001829   0.072859   0.021079
     17      -0.012429   0.005074  -0.035820  -0.069487  -0.130364  -0.013148
     18      -0.002140   0.040416  -0.007757   0.019532   0.009923  -0.009118
     19       0.050959  -0.027703  -0.033026  -0.125035  -0.015831   0.022898
     20       0.121727   0.046288   0.002101   0.029012   0.021119   0.016172
     21      -0.117952   0.032792   0.018102   0.098733   0.054495  -0.025248
     22       0.092824  -0.010849  -0.046269  -0.124001  -0.131590  -0.006305
     23      -0.070150   0.003219   0.051112   0.114956   0.214735   0.042942
     24       0.075214   0.039717  -0.040828  -0.078924  -0.039822   0.003433
     25       0.020869  -0.017868   0.022644   0.010639   0.114015   0.032995
     26       0.057874   0.015510  -0.065262  -0.116725  -0.201465  -0.022418
     27      -0.066402   0.025397  -0.010789  -0.013266  -0.012616  -0.012006
     28       0.061919   0.010020   0.008522   0.087879   0.040932  -0.013528
     29      -0.287443  -0.041932   0.013505  -0.036613  -0.080027  -0.017043
     30       0.039158  -0.035348   0.005000  -0.006429  -0.009384   0.017916
     31      -0.084718   0.224447   0.002407  -0.005731  -0.009746   0.016101
     32       0.070664   0.164955  -0.041498   0.001745  -0.023196   0.003970
     33       0.039523   0.032066  -0.005922  -0.019250   0.000112  -0.021419
     34      -0.085097   0.161508   0.015001   0.010784  -0.023314   0.063630
     35       0.074716   0.088833  -0.052775  -0.025206   0.011206  -0.075297
     36       0.058845  -0.055250  -0.010208   0.007092  -0.014927   0.029810
     37      -0.102072   0.198518   0.023604   0.008618  -0.024687   0.063467
     38       0.016082   0.125893   0.019629   0.020995  -0.052092   0.096917
     39       0.002138  -0.025752   0.019154  -0.003012  -0.010196   0.049898
     40      -0.032087   0.049619  -0.000705  -0.006063  -0.003080  -0.027187
     41      -0.018059   0.059505  -0.002425   0.011841  -0.018085   0.096632
     42       0.094488   0.087185  -0.037944  -0.038050   0.011739  -0.116848
     43      -0.146011   0.185666   0.060099   0.057644  -0.071961   0.254566
     44       0.073352   0.069129  -0.054309  -0.030896   0.018861  -0.091909
     45       0.010198   0.073078  -0.001284  -0.024125   0.006541  -0.014575
     46      -0.061413   0.168883  -0.005766  -0.011886   0.000048  -0.023136
     47       0.150910   0.067338  -0.101131  -0.069458   0.054877  -0.266437
     48      -0.061449  -0.080517   0.045095   0.014955  -0.020060   0.104605
     49      -0.031362   0.010949  -0.049664  -0.052568   0.036585  -0.292176
     50      -0.000639   0.083034   0.001027   0.017071  -0.023862   0.138639
     51       0.067227  -0.063203   0.023823   0.002335  -0.012220   0.098654
     52      -0.023869   0.050789   0.023999   0.016363  -0.021272   0.101512
     53      -0.053054   0.092193   0.046858   0.055223  -0.055526   0.332139
     54       0.038905   0.050768  -0.013661   0.000757   0.000455  -0.003928
     55       0.044104  -0.049870  -0.047778  -0.173443  -0.004681   0.028149
     56       0.188436   0.093993   0.016182   0.076296  -0.009952   0.015996
     57       0.006495  -0.065685   0.057772   0.002070   0.005337  -0.013450
     58      -0.006248  -0.066170   0.000955   0.142890  -0.009812  -0.022273
     59       0.025557  -0.107046  -0.063665   0.036671   0.015767  -0.009605
     60       0.022173  -0.084845   0.124062   0.049215  -0.031366  -0.015096
     61       0.019091  -0.109348   0.025577   0.178459  -0.048802  -0.016353
     62       0.069156  -0.184447  -0.026631   0.097293  -0.050878   0.001470
     63      -0.015641  -0.051614   0.043398   0.000433   0.024306  -0.022601
     64       0.013742  -0.109984   0.003615   0.178016  -0.041821  -0.017505
     65      -0.011356  -0.051653  -0.076764  -0.000672   0.062459  -0.021307
     66       0.048677  -0.108998  -0.308045   0.145809  -0.026654   0.040607
     67      -0.117618   0.160394  -0.046082   0.048402   0.036778  -0.079431
     68       0.028798  -0.144390   0.191386  -0.024196   0.007123  -0.004469
     69       0.036901  -0.099601  -0.179242   0.091483  -0.012176   0.021847
     70      -0.094527   0.129593  -0.047334   0.064372   0.025078  -0.031030
     71       0.026709  -0.138836   0.119473   0.000687   0.001738  -0.010095
     72       0.043495  -0.070835  -0.380053   0.176041  -0.032851   0.055940
     73      -0.123473   0.142433  -0.074668   0.048267   0.041307  -0.123286
     74       0.021764  -0.139754   0.134474  -0.009698   0.007709  -0.030963
     75      -0.030210   0.038882   0.001120   0.049102   0.019959  -0.013346
     76       0.058891  -0.025190  -0.032363  -0.127820  -0.034972   0.024272
     77       0.132850   0.038794  -0.012077  -0.001960   0.062899   0.016240
     78       0.062642   0.021192  -0.017611  -0.008584  -0.007756  -0.012645
     79      -0.112335   0.266852   0.027227  -0.003636  -0.022411   0.042369
     80       0.121359   0.229758  -0.089505  -0.002179  -0.013856  -0.058067
[...]
  28:       219.57    0.000000  (  0.000000   0.000000   0.000000)
  29:       238.26    0.000000  (  0.000000   0.000000   0.000000)
  30:       268.01    0.000000  (  0.000000   0.000000   0.000000)
  31:       269.17    0.000000  (  0.000000   0.000000   0.000000)
  32:       272.82    0.000000  (  0.000000   0.000000   0.000000)
  33:       324.73    0.000000  (  0.000000   0.000000   0.000000)
  34:       331.02    0.000000  (  0.000000   0.000000   0.000000)
  35:       380.11    0.000000  (  0.000000   0.000000   0.000000)
  36:       393.92    0.000000  (  0.000000   0.000000   0.000000)
  37:       394.74    0.000000  (  0.000000   0.000000   0.000000)
  38:       415.54    0.000000  (  0.000000   0.000000   0.000000)
  39:       417.52    0.000000  (  0.000000   0.000000   0.000000)
  40:       429.20    0.000000  (  0.000000   0.000000   0.000000)
  41:       444.60    0.000000  (  0.000000   0.000000   0.000000)
  42:       477.08    0.000000  (  0.000000   0.000000   0.000000)
  43:       587.19    0.000000  (  0.000000   0.000000   0.000000)
  44:       625.84    0.000000  (  0.000000   0.000000   0.000000)
  45:       660.29    0.000000  (  0.000000   0.000000   0.000000)
  46:       733.39    0.000000  (  0.000000   0.000000   0.000000)
  47:       746.07    0.000000  (  0.000000   0.000000   0.000000)
  48:       768.38    0.000000  (  0.000000   0.000000   0.000000)
  49:       774.22    0.000000  (  0.000000   0.000000   0.000000)
  50:       821.73    0.000000  (  0.000000   0.000000   0.000000)
  51:       826.03    0.000000  (  0.000000   0.000000   0.000000)
  52:       832.06    0.000000  (  0.000000   0.000000   0.000000)
  53:       879.71    0.000000  (  0.000000   0.000000   0.000000)
  54:       897.54    0.000000  (  0.000000   0.000000   0.000000)
  55:       922.93    0.000000  (  0.000000   0.000000   0.000000)
  56:       924.94    0.000000  (  0.000000   0.000000   0.000000)
  57:       929.58    0.000000  (  0.000000   0.000000   0.000000)
  58:       932.97    0.000000  (  0.000000   0.000000   0.000000)
  59:       934.59    0.000000  (  0.000000   0.000000   0.000000)
  60:       937.60    0.000000  (  0.000000   0.000000   0.000000)
  61:       940.94    0.000000  (  0.000000   0.000000   0.000000)
  62:       977.52    0.000000  (  0.000000   0.000000   0.000000)
  63:       984.89    0.000000  (  0.000000   0.000000   0.000000)
  64:       999.43    0.000000  (  0.000000   0.000000   0.000000)
  65:      1001.14    0.000000  (  0.000000   0.000000   0.000000)
  66:      1003.64    0.000000  (  0.000000   0.000000   0.000000)
  67:      1059.29    0.000000  (  0.000000   0.000000   0.000000)
  68:      1065.12    0.000000  (  0.000000   0.000000   0.000000)
  69:      1068.53    0.000000  (  0.000000   0.000000   0.000000)
  70:      1095.45    0.000000  (  0.000000   0.000000   0.000000)
  71:      1099.65    0.000000  (  0.000000   0.000000   0.000000)
  72:      1111.23    0.000000  (  0.000000   0.000000   0.000000)
  73:      1122.26    0.000000  (  0.000000   0.000000   0.000000)
  74:      1123.15    0.000000  (  0.000000   0.000000   0.000000)
  75:      1145.97    0.000000  (  0.000000   0.000000   0.000000)
  76:      1151.71    0.000000  (  0.000000   0.000000   0.000000)
  77:      1173.18    0.000000  (  0.000000   0.000000   0.000000)
  78:      1180.14    0.000000  (  0.000000   0.000000   0.000000)
  79:      1200.25    0.000000  (  0.000000   0.000000   0.000000)
  80:      1200.51    0.000000  (  0.000000   0.000000   0.000000)
  81:      1207.72    0.000000  (  0.000000   0.000000   0.000000)
  82:      1233.55    0.000000  (  0.000000   0.000000   0.000000)
  83:      1238.91    0.000000  (  0.000000   0.000000   0.000000)
  84:      1267.41    0.000000  (  0.000000   0.000000   0.000000)
  85:      1276.25    0.000000  (  0.000000   0.000000   0.000000)
  86:      1277.06    0.000000  (  0.000000   0.000000   0.000000)
  87:      1279.62    0.000000  (  0.000000   0.000000   0.000000)
  88:      1280.86    0.000000  (  0.000000   0.000000   0.000000)
  89:      1289.40    0.000000  (  0.000000   0.000000   0.000000)
  90:      1294.95    0.000000  (  0.000000   0.000000   0.000000)
  91:      1303.42    0.000000  (  0.000000   0.000000   0.000000)
  92:      1351.18    0.000000  (  0.000000   0.000000   0.000000)
  93:      1352.34    0.000000  (  0.000000   0.000000   0.000000)
  94:      1358.28    0.000000  (  0.000000   0.000000   0.000000)
  95:      1378.46    0.000000  (  0.000000   0.000000   0.000000)
  96:      1382.72    0.000000  (  0.000000   0.000000   0.000000)
  97:      1426.66    0.000000  (  0.000000   0.000000   0.000000)
  98:      1427.09    0.000000  (  0.000000   0.000000   0.000000)
  99:      1427.77    0.000000  (  0.000000   0.000000   0.000000)
 100:      1448.21    0.000000  (  0.000000   0.000000   0.000000)
 101:      1492.58    0.000000  (  0.000000   0.000000   0.000000)
 102:      1502.34    0.000000  (  0.000000   0.000000   0.000000)
 103:      1502.66    0.000000  (  0.000000   0.000000   0.000000)
 104:      1505.26    0.000000  (  0.000000   0.000000   0.000000)
 105:      1506.83    0.000000  (  0.000000   0.000000   0.000000)
 106:      1507.24    0.000000  (  0.000000   0.000000   0.000000)
 107:      1507.37    0.000000  (  0.000000   0.000000   0.000000)
 108:      1509.21    0.000000  (  0.000000   0.000000   0.000000)
 109:      1513.10    0.000000  (  0.000000   0.000000   0.000000)
 110:      1514.25    0.000000  (  0.000000   0.000000   0.000000)
 111:      1542.25    0.000000  (  0.000000   0.000000   0.000000)
 112:      1548.39    0.000000  (  0.000000   0.000000   0.000000)
 113:      1558.54    0.000000  (  0.000000   0.000000   0.000000)
 114:      1563.41    0.000000  (  0.000000   0.000000   0.000000)
 115:      1570.32    0.000000  (  0.000000   0.000000   0.000000)
 116:      1666.19    0.000000  (  0.000000   0.000000   0.000000)
 117:      2840.63    0.000000  (  0.000000   0.000000   0.000000)
 118:      2847.50    0.000000  (  0.000000   0.000000   0.000000)
 119:      2894.94    0.000000  (  0.000000   0.000000   0.000000)
 120:      2932.78    0.000000  (  0.000000   0.000000   0.000000)
 121:      2934.99    0.000000  (  0.000000   0.000000   0.000000)
 122:      2940.80    0.000000  (  0.000000   0.000000   0.000000)
 123:      2943.95    0.000000  (  0.000000   0.000000   0.000000)
 124:      2959.06    0.000000  (  0.000000   0.000000   0.000000)
 125:      2961.11    0.000000  (  0.000000   0.000000   0.000000)
 126:      2963.03    0.000000  (  0.000000   0.000000   0.000000)
 127:      2969.22    0.000000  (  0.000000   0.000000   0.000000)
 128:      2973.03    0.000000  (  0.000000   0.000000   0.000000)
 129:      2978.52    0.000000  (  0.000000   0.000000   0.000000)
 130:      2980.61    0.000000  (  0.000000   0.000000   0.000000)
 131:      2980.63    0.000000  (  0.000000   0.000000   0.000000)
 132:      2985.83    0.000000  (  0.000000   0.000000   0.000000)
 133:      2986.49    0.000000  (  0.000000   0.000000   0.000000)
 134:      2994.94    0.000000  (  0.000000   0.000000   0.000000)
 135:      2995.87    0.000000  (  0.000000   0.000000   0.000000)
 136:      2998.21    0.000000  (  0.000000   0.000000   0.000000)
 137:      3055.68    0.000000  (  0.000000   0.000000   0.000000)
 138:      3062.05    0.000000  (  0.000000   0.000000   0.000000)
 139:      3067.38    0.000000  (  0.000000   0.000000   0.000000)
 140:      3074.28    0.000000  (  0.000000   0.000000   0.000000)
 141:      3080.25    0.000000  (  0.000000   0.000000   0.000000)
 142:      3365.16    0.000000  (  0.000000   0.000000   0.000000)
 143:      3391.28    0.000000  (  0.000000   0.000000   0.000000)
 144:      3415.63    0.000000  (  0.000000   0.000000   0.000000)
 145:      3419.50    0.000000  (  0.000000   0.000000   0.000000)
 146:      3592.68    0.000000  (  0.000000   0.000000   0.000000)

The first frequency considered to be a vibration is 7
The total number of vibrations considered is 140


--------------------------
THERMOCHEMISTRY AT 298.15K
--------------------------

Temperature         ... 298.15 K
Pressure            ... 1.00 atm
Total Mass          ... 270.42 AMU

Throughout the following assumptions are being made:
  (1) The electronic state is orbitally nondegenerate
  (2) There are no thermally accessible electronically excited states
  (3) Hindered rotations indicated by low frequency modes are not
      treated as such but are treated as vibrations and this may
      cause some error
  (4) All equations used are the standard statistical mechanics
      equations for an ideal gas
  (5) All vibrations are strictly harmonic

freq.      20.99  E(vib)   ...       0.56 
freq.      28.32  E(vib)   ...       0.55 
freq.      33.95  E(vib)   ...       0.55 
freq.      38.42  E(vib)   ...       0.54 
freq.      39.94  E(vib)   ...       0.54 
freq.      44.10  E(vib)   ...       0.53 
freq.      49.25  E(vib)   ...       0.52 
freq.      66.35  E(vib)   ...       0.50 
freq.      70.96  E(vib)   ...       0.50 
freq.      82.82  E(vib)   ...       0.48 
freq.      91.89  E(vib)   ...       0.47 
freq.      93.29  E(vib)   ...       0.47 
freq.     105.28  E(vib)   ...       0.45 
freq.     124.89  E(vib)   ...       0.43 
freq.     127.51  E(vib)   ...       0.43 
freq.     139.04  E(vib)   ...       0.42 
freq.     149.64  E(vib)   ...       0.40 
freq.     155.34  E(vib)   ...       0.40 
freq.     190.71  E(vib)   ...       0.36 
freq.     197.32  E(vib)   ...       0.35 
freq.     215.62  E(vib)   ...       0.34 
freq.     219.57  E(vib)   ...       0.33 
freq.     238.26  E(vib)   ...       0.32 
freq.     268.01  E(vib)   ...       0.29 
freq.     269.17  E(vib)   ...       0.29 
freq.     272.82  E(vib)   ...       0.29 
freq.     324.73  E(vib)   ...       0.24 
freq.     331.02  E(vib)   ...       0.24 
freq.     380.11  E(vib)   ...       0.21 
freq.     393.92  E(vib)   ...       0.20 
freq.     394.74  E(vib)   ...       0.20 
freq.     415.54  E(vib)   ...       0.18 
freq.     417.52  E(vib)   ...       0.18 
freq.     429.20  E(vib)   ...       0.18 
freq.     444.60  E(vib)   ...       0.17 
freq.     477.08  E(vib)   ...       0.15 
freq.     587.19  E(vib)   ...       0.10 
freq.     625.84  E(vib)   ...       0.09 
freq.     660.29  E(vib)   ...       0.08 
freq.     733.39  E(vib)   ...       0.06 
freq.     746.07  E(vib)   ...       0.06 
freq.     768.38  E(vib)   ...       0.06 
freq.     774.22  E(vib)   ...       0.05 
freq.     821.73  E(vib)   ...       0.05 
freq.     826.03  E(vib)   ...       0.04 
freq.     832.06  E(vib)   ...       0.04 
freq.     879.71  E(vib)   ...       0.04 
freq.     897.54  E(vib)   ...       0.03 
freq.     922.93  E(vib)   ...       0.03 
freq.     924.94  E(vib)   ...       0.03 
freq.     929.58  E(vib)   ...       0.03 
freq.     932.97  E(vib)   ...       0.03 
freq.     934.59  E(vib)   ...       0.03 
freq.     937.60  E(vib)   ...       0.03 
freq.     940.94  E(vib)   ...       0.03 
freq.     977.52  E(vib)   ...       0.03 
freq.     984.89  E(vib)   ...       0.02 
freq.     999.43  E(vib)   ...       0.02 
freq.    1001.14  E(vib)   ...       0.02 
freq.    1003.64  E(vib)   ...       0.02 
freq.    1059.29  E(vib)   ...       0.02 
freq.    1065.12  E(vib)   ...       0.02 
freq.    1068.53  E(vib)   ...       0.02 
freq.    1095.45  E(vib)   ...       0.02 
freq.    1099.65  E(vib)   ...       0.02 
freq.    1111.23  E(vib)   ...       0.01 
freq.    1122.26  E(vib)   ...       0.01 
freq.    1123.15  E(vib)   ...       0.01 
freq.    1145.97  E(vib)   ...       0.01 
freq.    1151.71  E(vib)   ...       0.01 
freq.    1173.18  E(vib)   ...       0.01 
freq.    1180.14  E(vib)   ...       0.01 
freq.    1200.25  E(vib)   ...       0.01 
freq.    1200.51  E(vib)   ...       0.01 
freq.    1207.72  E(vib)   ...       0.01 
freq.    1233.55  E(vib)   ...       0.01 
freq.    1238.91  E(vib)   ...       0.01 
freq.    1267.41  E(vib)   ...       0.01 
freq.    1276.25  E(vib)   ...       0.01 
freq.    1277.06  E(vib)   ...       0.01 
freq.    1279.62  E(vib)   ...       0.01 
freq.    1280.86  E(vib)   ...       0.01 
freq.    1289.40  E(vib)   ...       0.01 
freq.    1294.95  E(vib)   ...       0.01 
freq.    1303.42  E(vib)   ...       0.01 
freq.    1351.18  E(vib)   ...       0.01 
freq.    1352.34  E(vib)   ...       0.01 
freq.    1358.28  E(vib)   ...       0.01 
freq.    1378.46  E(vib)   ...       0.01 
freq.    1382.72  E(vib)   ...       0.01 
freq.    1426.66  E(vib)   ...       0.00 
freq.    1427.09  E(vib)   ...       0.00 
freq.    1427.77  E(vib)   ...       0.00 
freq.    1448.21  E(vib)   ...       0.00 
freq.    1492.58  E(vib)   ...       0.00 
freq.    1502.34  E(vib)   ...       0.00 
freq.    1502.66  E(vib)   ...       0.00 
freq.    1505.26  E(vib)   ...       0.00 
freq.    1506.83  E(vib)   ...       0.00 
freq.    1507.24  E(vib)   ...       0.00 
freq.    1507.37  E(vib)   ...       0.00 
freq.    1509.21  E(vib)   ...       0.00 
freq.    1513.10  E(vib)   ...       0.00 
freq.    1514.25  E(vib)   ...       0.00 
freq.    1542.25  E(vib)   ...       0.00 
freq.    1548.39  E(vib)   ...       0.00 
freq.    1558.54  E(vib)   ...       0.00 
freq.    1563.41  E(vib)   ...       0.00 
freq.    1570.32  E(vib)   ...       0.00 
freq.    1666.19  E(vib)   ...       0.00 
freq.    2840.63  E(vib)   ...       0.00 
freq.    2847.50  E(vib)   ...       0.00 
freq.    2894.94  E(vib)   ...       0.00 
freq.    2932.78  E(vib)   ...       0.00 
freq.    2934.99  E(vib)   ...       0.00 
freq.    2940.80  E(vib)   ...       0.00 
freq.    2943.95  E(vib)   ...       0.00 
freq.    2959.06  E(vib)   ...       0.00 
freq.    2961.11  E(vib)   ...       0.00 
freq.    2963.03  E(vib)   ...       0.00 
freq.    2969.22  E(vib)   ...       0.00 
freq.    2973.03  E(vib)   ...       0.00 
freq.    2978.52  E(vib)   ...       0.00 
freq.    2980.61  E(vib)   ...       0.00 
freq.    2980.63  E(vib)   ...       0.00 
freq.    2985.83  E(vib)   ...       0.00 
freq.    2986.49  E(vib)   ...       0.00 
freq.    2994.94  E(vib)   ...       0.00 
freq.    2995.87  E(vib)   ...       0.00 
freq.    2998.21  E(vib)   ...       0.00 
freq.    3055.68  E(vib)   ...       0.00 
freq.    3062.05  E(vib)   ...       0.00 
freq.    3067.38  E(vib)   ...       0.00 
freq.    3074.28  E(vib)   ...       0.00 
freq.    3080.25  E(vib)   ...       0.00 
freq.    3365.16  E(vib)   ...       0.00 
freq.    3391.28  E(vib)   ...       0.00 
freq.    3415.63  E(vib)   ...       0.00 
freq.    3419.50  E(vib)   ...       0.00 
freq.    3592.68  E(vib)   ...       0.00 

------------
INNER ENERGY
------------

The inner energy is: U= E(el) + E(ZPE) + E(vib) + E(rot) + E(trans)
    E(el)   - is the total energy from the electronic structure calculation
              = E(kin-el) + E(nuc-el) + E(el-el) + E(nuc-nuc)
    E(ZPE)  - the the zero temperature vibrational energy from the frequency calculation
    E(vib)  - the the finite temperature correction to E(ZPE) due to population
              of excited vibrational states
    E(rot)  - is the rotational thermal energy
    E(trans)- is the translational thermal energy

Summary of contributions to the inner energy U:
Electronic energy                ...    -61.36467220 Eh
Zero point energy                ...      0.42460207 Eh     266.44 kcal/mol
Thermal vibrational correction   ...      0.02340212 Eh      14.69 kcal/mol
Thermal rotational correction    ...      0.00141627 Eh       0.89 kcal/mol
Thermal translational correction ...      0.00141627 Eh       0.89 kcal/mol
-----------------------------------------------------------------------
Total thermal energy                    -60.91383547 Eh


Summary of corrections to the electronic energy:
(perhaps to be used in another calculation)
Total thermal correction                  0.02623466 Eh      16.46 kcal/mol
Non-thermal (ZPE) correction              0.42460207 Eh     266.44 kcal/mol
-----------------------------------------------------------------------
Total correction                          0.45083674 Eh     282.90 kcal/mol


--------
ENTHALPY
--------

The enthalpy is H = U + kB*T
                kB is Boltzmann's constant
Total free energy                 ...    -60.91383547 Eh 
Thermal Enthalpy correction       ...      0.00094421 Eh       0.59 kcal/mol
-----------------------------------------------------------------------
Total Enthalpy                    ...    -60.91289126 Eh


Note: Only C1 symmetry has been detected, increase convergence thresholds 
      if your molecule has a higher symmetry. Symmetry factor of 1.0 is   
      used for the rotational entropy correction. 
 

Note: Rotational entropy computed according to Herzberg 
Infrared and Raman Spectra, Chapter V,1, Van Nostrand Reinhold, 1945 
Point Group:  C1, Symmetry Number:   1  
Rotational constants in cm-1:     0.014053     0.006753     0.005691 

Vibrational entropy computed according to the QRRHO of S. Grimme
Chem.Eur.J. 2012 18 9955


-------
ENTROPY
-------

The entropy contributions are T*S = T*(S(el)+S(vib)+S(rot)+S(trans))
     S(el)   - electronic entropy
     S(vib)  - vibrational entropy
     S(rot)  - rotational entropy
     S(trans)- translational entropy
The entropies will be listed as mutliplied by the temperature to get
units of energy

Electronic entropy                ...      0.00000000 Eh      0.00 kcal/mol
Vibrational entropy               ...      0.04348225 Eh     27.29 kcal/mol
Rotational entropy                ...      0.01632381 Eh     10.24 kcal/mol
Translational entropy             ...      0.02028014 Eh     12.73 kcal/mol
-----------------------------------------------------------------------
Final entropy term                ...      0.08008621 Eh     50.25 kcal/mol

In case the symmetry of your molecule has not been determined correctly
or in case you have a reason to use a different symmetry number we print 
out the resulting rotational entropy values for sn=1,12 :
 --------------------------------------------------------
|  sn= 1 | S(rot)=       0.01632381 Eh     10.24 kcal/mol|
|  sn= 2 | S(rot)=       0.01566936 Eh      9.83 kcal/mol|
|  sn= 3 | S(rot)=       0.01528652 Eh      9.59 kcal/mol|
|  sn= 4 | S(rot)=       0.01501490 Eh      9.42 kcal/mol|
|  sn= 5 | S(rot)=       0.01480421 Eh      9.29 kcal/mol|
|  sn= 6 | S(rot)=       0.01463207 Eh      9.18 kcal/mol|
|  sn= 7 | S(rot)=       0.01448652 Eh      9.09 kcal/mol|
|  sn= 8 | S(rot)=       0.01436044 Eh      9.01 kcal/mol|
|  sn= 9 | S(rot)=       0.01424923 Eh      8.94 kcal/mol|
|  sn=10 | S(rot)=       0.01414975 Eh      8.88 kcal/mol|
|  sn=11 | S(rot)=       0.01405976 Eh      8.82 kcal/mol|
|  sn=12 | S(rot)=       0.01397761 Eh      8.77 kcal/mol|
 --------------------------------------------------------


-------------------
GIBBS FREE ENERGY
-------------------

The Gibbs free energy is G = H - T*S

Total enthalpy                    ...    -60.91289126 Eh 
Total entropy correction          ...     -0.08008621 Eh    -50.25 kcal/mol
-----------------------------------------------------------------------
Final Gibbs free energy         ...    -60.99297747 Eh

For completeness - the Gibbs free energy minus the electronic energy
G-E(el)                           ...      0.37169474 Eh    233.24 kcal/mol


Total Time for Numerical Frequencies  :       194.828 sec
Time for Reference State(s)           :         0.230 sec
Time for Displacements                :       176.683 sec

Timings for individual modules:

Sum of individual times         ...        0.499 sec (=   0.008 min)
XTB module                      ...        0.499 sec (=   0.008 min) 100.0 %
                             ****ORCA TERMINATED NORMALLY****
TOTAL RUN TIME: 0 days 0 hours 3 minutes 17 seconds 644 msec
(SLURM) EXECUTION TIME: 198.416410772 seconds.
