(SLURM) JOB ID:         323

                                 *****************
                                 * O   R   C   A *
                                 *****************

           --- An Ab Initio, DFT and Semiempirical electronic structure package ---

                  #######################################################
                  #                        -***-                        #
                  #          Department of theory and spectroscopy      #
                  #               Directorship: Frank Neese             #
                  #        Max Planck Institute fuer Kohlenforschung    #
                  #                Kaiser Wilhelm Platz 1               #
                  #                 D-45470 Muelheim/Ruhr               #
                  #                      Germany                        #
                  #                                                     #
                  #                  All rights reserved                #
                  #                        -***-                        #
                  #######################################################


                         Program Version 4.2.1 -  RELEASE  -


 With contributions from (in alphabetic order):
   Daniel Aravena         : Magnetic Suceptibility
   Michael Atanasov       : Ab Initio Ligand Field Theory (pilot matlab implementation)
   Alexander A. Auer      : GIAO ZORA, VPT2
   Ute Becker             : Parallelization
   Giovanni Bistoni       : ED, misc. LED, open-shell LED, HFLD
   Martin Brehm           : Molecular dynamics
   Dmytro Bykov           : SCF Hessian
   Vijay G. Chilkuri      : MRCI spin determinant printing, contributions to CSF-ICE
   Dipayan Datta          : RHF DLPNO-CCSD density
   Achintya Kumar Dutta   : EOM-CC, STEOM-CC
   Dmitry Ganyushin       : Spin-Orbit,Spin-Spin,Magnetic field MRCI
   Miquel Garcia          : C-PCM Hessian, Gaussian charge scheme
   Yang Guo               : DLPNO-NEVPT2, CIM, IAO-localization
   Andreas Hansen         : Spin unrestricted coupled pair/coupled cluster methods
   Benjamin Helmich-Paris : CASSCF linear response (MC-RPA)
   Lee Huntington         : MR-EOM, pCC
   Robert Izsak           : Overlap fitted RIJCOSX, COSX-SCS-MP3, EOM
   Christian Kollmar      : KDIIS, OOCD, Brueckner-CCSD(T), CCSD density
   Simone Kossmann        : Meta GGA functionals, TD-DFT gradient, OOMP2, MP2 Hessian
   Martin Krupicka        : AUTO-CI
   Lucas Lang             : DCDCAS
   Dagmar Lenk            : GEPOL surface, SMD
   Dimitrios Liakos       : Extrapolation schemes; Compound Job, initial MDCI parallelization
   Dimitrios Manganas     : Further ROCIS development; embedding schemes
   Dimitrios Pantazis     : SARC Basis sets
   Taras Petrenko         : DFT Hessian,TD-DFT gradient, ASA, ECA, R-Raman, ABS, FL, XAS/XES, NRVS
   Peter Pinski           : DLPNO-MP2, DLPNO-MP2 Gradient
   Christoph Reimann      : Effective Core Potentials
   Marius Retegan         : Local ZFS, SOC
   Christoph Riplinger    : Optimizer, TS searches, QM/MM, DLPNO-CCSD(T), (RO)-DLPNO pert. Triples
   Tobias Risthaus        : Range-separated hybrids, TD-DFT gradient, RPA, STAB
   Michael Roemelt        : Original ROCIS implementation
   Masaaki Saitow         : Open-shell DLPNO-CCSD energy and density
   Barbara Sandhoefer     : DKH picture change effects
   Avijit Sen             : IP-ROCIS
   Kantharuban Sivalingam : CASSCF convergence, NEVPT2, FIC-MRCI
   Bernardo de Souza      : ESD, SOC TD-DFT
   Georgi Stoychev        : AutoAux, RI-MP2 NMR
   Willem Van den Heuvel  : Paramagnetic NMR
   Boris Wezisla          : Elementary symmetry handling
   Frank Wennmohs         : Technical directorship


 We gratefully acknowledge several colleagues who have allowed us to
 interface, adapt or use parts of their codes:
   Stefan Grimme, W. Hujo, H. Kruse,             : VdW corrections, initial TS optimization,
                  C. Bannwarth                     DFT functionals, gCP, sTDA/sTD-DF
   Ed Valeev, F. Pavosevic, A. Kumar             : LibInt (2-el integral package), F12 methods
   Garnet Chan, S. Sharma, J. Yang, R. Olivares  : DMRG
   Ulf Ekstrom                                   : XCFun DFT Library
   Mihaly Kallay                                 : mrcc  (arbitrary order and MRCC methods)
   Andreas Klamt, Michael Diedenhofen            : otool_cosmo (COSMO solvation model)
   Jiri Pittner, Ondrej Demel                    : Mk-CCSD
   Frank Weinhold                                : gennbo (NPA and NBO analysis)
   Christopher J. Cramer and Donald G. Truhlar   : smd solvation model
   Lars Goerigk                                  : TD-DFT with DH, B97 family of functionals
   V. Asgeirsson, H. Jonsson                     : NEB implementation
   FAccTs GmbH                                   : IRC, NEB, NEB-TS, Multilevel, MM, QM/MM, CI optimization
   S Lehtola, MJT Oliveira, MAL Marques          : LibXC Library


 Your calculation uses the libint2 library for the computation of 2-el integrals
 For citations please refer to: http://libint.valeyev.net

 Your ORCA version has been built with support for libXC version: 4.2.3
 For citations please refer to: https://tddft.org/programs/libxc/

 This ORCA versions uses:
   CBLAS   interface :  Fast vector & matrix operations
   LAPACKE interface :  Fast linear algebra routines
   SCALAPACK package :  Parallel linear algebra routines




***************************************
The coordinates will be read from file: init.xyz
***************************************


Your calculation utilizes the SMD solvation module
Please cite in your paper:
A.V. Marenich, C.J. Cramer, D.G. Truhlar J. Phys. Chem. B, 113, (2009), 6378 

Your calculation utilizes the semiempirical GFN2-xTB method
Please cite in your paper:
C. Bannwarth, Ehlert S., S. Grimme,  J. Chem. Theory Comput., 15, (2019), 1652.
   

----- Orbital basis set information -----
Your calculation utilizes the basis: def2-SVP
   F. Weigend and R. Ahlrichs, Phys. Chem. Chem. Phys. 7, 3297 (2005).

================================================================================
                                        WARNINGS
                       Please study these warnings very carefully!
================================================================================

WARNING: Gradients needed for Numerical Frequencies
  ===> : Setting RunTyp to EnGrad

WARNING: The environment variable RSH_COMMAND is not set!
  ===> : All Displacements for the Numerical Hessian calculation
         will be started on localhost

WARNING: Found dipole moment calculation with XTB calculation
  ===> : Switching off dipole moment calculation


INFO   : the flag for use of LIBINT has been found!

================================================================================
                                       INPUT FILE
================================================================================
NAME = /tmp/slurm-scratch/freq.323/freq.inp
|  1> ! XTB2 NumFreq
|  2> %maxcore 1450
|  3> 
|  4> * xyzfile 0 1 init.xyz
|  5> 
|  6> %cpcm
|  7>  smd true
|  8>  smdsolvent "ch2cl2"
|  9> end
| 10> %pal nprocs 8 end
| 11> 
| 12>                          ****END OF INPUT****
================================================================================

                     *******************************
                     * Energy+Gradient Calculation *
                     *******************************

      -----------------------------------------------------------      
     |                   =====================                   |     
     |                           x T B                           |     
     |                   =====================                   |     
     |                         S. Grimme                         |     
     |          Mulliken Center for Theoretical Chemistry        |     
     |                    University of Bonn                     |     
      -----------------------------------------------------------      

   * xtb version 6.3.0 (preview) compiled by 'ehlert@majestix' on 2020-01-15

   This program is distributed in the hope that it will be useful,
   but WITHOUT ANY WARRANTY; without even the implied warranty of
   MERCHANTABILITY or FITNESS FOR A PARTICULAR PURPOSE.
   
   FOR NON-COMMERCIAL, ACADEMIA USE ONLY.
   
   Cite this work as:
   * S. Grimme, C. Bannwarth, P. Shushkov, J. Chem. Theory Comput., 2017,
     13, 1989-2009. DOI: 10.1021/acs.jctc.7b00118
   * C. Bannwarth, S. Ehlert and S. Grimme., J. Chem. Theory Comput., 2019,
     15, 1652-1671. DOI: 10.1021/acs.jctc.8b01176
   * P. Pracht, E. Caldeweyher, S. Ehlert, S. Grimme, ChemRxiv, 2019, preprint.
     DOI: 10.26434/chemrxiv.8326202.v1
   * S. Grimme, S. Spicher unpublished
   
   for DFT-D4:
   * E. Caldeweyher, C. Bannwarth and S. Grimme, J. Chem. Phys., 2017,
     147, 034112. DOI: 10.1063/1.4993215
   * E. Caldeweyher, S. Ehlert, A. Hansen, H. Neugebauer, S. Spicher,
     C. Bannwarth and S. Grimme, J. Chem. Phys., 2019, 150, 154122.
     DOI: 10.1063/1.5090222
   
   for sTDA-xTB:
   * S. Grimme and C. Bannwarth, J. Chem. Phys., 2016, 145, 054103.
     DOI: 10.1063/1.4959605
   
   in the mass-spec context:
   * V. Asgeirsson, C. Bauer and S. Grimme, Chem. Sci., 2017, 8, 4879.
     DOI: 10.1039/c7sc00601b
   
   for metadynamics refer to:
   * S. Grimme, J. Chem. Theory Comput., 2019, 155, 2847-2862
     DOI: 10.1021/acs.jctc.9b00143
   
   with help from (in alphabetical order)
   C. Bannwarth, F. Bohle, G. Brandenburg, E. Caldeweyher, M. Checinski,
   S. Dohm, S. Ehlert, S. Ehrlich, F. März, H. Neugebauer, J. Pisarek,
   P. Pracht, P. Shushkov, and S. Spicher.
   
 * started run on 2020/11/25 at 09:01:33.628     

           -------------------------------------------------
          |                Calculation Setup                |
           -------------------------------------------------

          program call               : /opt/orca/otool_xtb /tmp/slurm-scratch/freq.323/freq_XTB.xyz --grad -c 0 -u 0 -P 8 --namespace /tmp/slurm-scratch/freq.323/freq --gbsa CH2Cl2
          hostname                   : headnode-pbs
          calculation namespace      : /tmp/slurm-scratch/freq.323/freq
          coordinate file            : /tmp/slurm-scratch/freq.323/freq_XTB.xyz
          omp threads                :                     8
          number of atoms            :                    36
          number of electrons        :                    88
          charge                     :                     0
          spin                       :                   0.0
          first test random number   :      0.28027833058669


molecular fragmentation (1/2 indicates fragments):
111111111111111111121222211111111111
# atoms in fragment 1/2:    31     5
 fragment masses (1/2) :      180.27       35.02
CMA distance (Bohr)    :   6.255
constraining FC (au)   :  0.0500

########################################################################
# WARNING! Please study the warnings concerning your input carefully
#  - Process number higher than OMP_NUM_THREADS, I hope you know what you are doing.
########################################################################

           ------------------------------------------------- 
          |                 G F N 2 - x T B                 |
          | Geometry, Frequencies, Noncovalent interactions |
          |            JCTC 2019 parametrisation            |
           ------------------------------------------------- 
             k(s)              :                1.8500
             k(p)              :                2.2300
             k(d)              :                2.2300
             k(f)              :                2.0000
             kEN (H0ij)        :               -2.0000
             D4 a1             :                0.5200
             D4 a2             :                5.0000
             D4 s6             :                1.0000
             D4 s8             :                2.7000
             D4 s9             :                5.0000
             alphaj            :                2.0000

  Z AO/shell   Hii/eV     exponent
  1     Wed Apr 25 08:07:45 CEST 2018   EN: 2.200 GM2: 0.406  GM3: 0.0800  RAES: 1.40
     1s    -10.707211    1.230000
  6     Wed Apr 25 08:07:45 CEST 2018   EN: 2.550 GM2: 0.538  GM3: 0.1500  RAES: 3.00
     2s    -13.970922    2.096432
     2p    -10.063292    1.800000
  7     Wed Apr 25 08:07:45 CEST 2018   EN: 3.040 GM2: 0.461  GM3:-0.0640  RAES: 1.90
     2s    -16.686243    2.339881
     2p    -12.523956    2.014332
  8     Wed Apr 25 08:07:45 CEST 2018   EN: 3.440 GM2: 0.452  GM3:-0.0517  RAES: 1.80
     2s    -20.229985    2.439742
     2p    -15.503117    2.137023

 Solvent             : CH2Cl2
 Using internal parameter file: .param_gbsa2_CH2Cl2
 Gsolv ref. state (COSMO-RS): gsolv [1 M gas/solution]
 temperature (mdtemp)       :    298.150000000000     
 dielectric constant        :    8.93000000000000     
 rho                        :    1.33000000000000     
 mass                       :    84.9300000000000     
 surface tension            :    15.5689454083859     
 probe radius               :   0.719875900000000     
 Gshift (Eh)                :   4.440829173451759E-003
 c1                         :    1.49173776000000     
 soset                      :   0.000000000000000E+000
 HB correction              :  F
           ------------------------------------------------- 
          |        Self-Consistent Charge Iterations        |
           ------------------------------------------------- 

          ...................................................
          :                      SETUP                      :
          :.................................................:
          :  # basis functions                  81          :
          :  # atomic orbitals                  81          :
          :  # shells                           51          :
          :  # electrons                        88          :
          :  max. iterations                   250          :
          :  Hamiltonian                  GFN2-xTB          :
          :  GBSA solvation                   true          :
          :  PC potential                    false          :
          :  electronic temp.          300.0000000     K    :
          :  accuracy                    1.0000000          :
          :  -> integral cutoff          0.2500000E+02      :
          :  -> integral neglect         0.1000000E-07      :
          :  -> SCF convergence          0.1000000E-05 Eh   :
          :  -> wf. convergence          0.1000000E-03 e    :
          :  Broyden damping             0.4000000          :
          ...................................................
  Checking positiv definite overlap ...  done.
 

 iter      E             dE          RMSdq      gap      omega  full diag
   1    -49.8408170 -0.498408E+02  0.403E+00    4.65       0.0  T
   2    -49.9410422 -0.100225E+00  0.231E+00    4.52       1.0  T
   3    -49.9432594 -0.221716E-02  0.920E-01    3.86       1.0  T
   4    -49.9431691  0.902887E-04  0.303E-01    3.83       1.0  T
   5    -49.9458380 -0.266888E-02  0.787E-02    3.89       1.0  T
   6    -49.9458681 -0.300987E-04  0.288E-02    3.95       1.0  T
   7    -49.9458707 -0.266280E-05  0.146E-02    3.95       1.1  T
   8    -49.9458728 -0.203184E-05  0.466E-03    3.95       3.6  T
   9    -49.9458729 -0.138457E-06  0.204E-03    3.95       8.2  T
  10    -49.9458729 -0.415263E-07  0.810E-04    3.95      20.6  T
  11    -49.9458729 -0.373186E-08  0.381E-04    3.95      43.8  T

   *** convergence criteria satisfied after 11 iterations ***

         #    Occupation            Energy/Eh            Energy/eV
      -------------------------------------------------------------
         1        2.0000           -0.7053258             -19.1929
       ...           ...                  ...                  ...
        38        2.0000           -0.4292660             -11.6809
        39        2.0000           -0.4205544             -11.4439
        40        2.0000           -0.4179378             -11.3727
        41        2.0000           -0.4133008             -11.2465
        42        2.0000           -0.4113976             -11.1947
        43        2.0000           -0.3914817             -10.6528
        44        2.0000           -0.3863850             -10.5141 (HOMO)
        45                         -0.2412203              -6.5639 (LUMO)
        46                         -0.2341883              -6.3726
        47                         -0.1173550              -3.1934
        48                         -0.0634570              -1.7268
        49                          0.0017875               0.0486
       ...                                ...                  ...
        81                          0.6371334              17.3373
      -------------------------------------------------------------
                  HL-Gap            0.1451648 Eh            3.9501 eV
             Fermi-level           -0.3138026 Eh           -8.5390 eV

 SCC (total)                   0 d,  0 h,  0 min,  0.087 sec
 SCC setup                      ...        0 min,  0.003 sec (  3.014%)
 Dispersion                     ...        0 min,  0.001 sec (  1.207%)
 integral evaluation            ...        0 min,  0.013 sec ( 14.849%)
 zeroth order Hamiltonian       ...        0 min,  0.000 sec (  0.009%)
 iterations                     ...        0 min,  0.053 sec ( 60.889%)
 molecular gradient             ...        0 min,  0.017 sec ( 19.237%)
 printout                       ...        0 min,  0.001 sec (  0.743%)

         :::::::::::::::::::::::::::::::::::::::::::::::::::::
         ::                     SUMMARY                     ::
         :::::::::::::::::::::::::::::::::::::::::::::::::::::
         :: total energy             -49.358962792474 Eh    ::
         :: total w/o Gsasa/hb       -49.341496983564 Eh    ::
         :: gradient norm              0.033263538287 Eh/a0 ::
         :: HOMO-LUMO gap              3.950133951989 eV    ::
         ::.................................................::
         :: SCC energy               -49.963338743853 Eh    ::
         :: -> isotropic ES            0.167207042799 Eh    ::
         :: -> anisotropic ES         -0.014486567421 Eh    ::
         :: -> anisotropic XC          0.018890768398 Eh    ::
         :: -> dispersion             -0.029419948942 Eh    ::
         :: -> Gsolv                  -0.039252421393 Eh    ::
         ::    -> Gborn               -0.021786612483 Eh    ::
         ::    -> Gsasa               -0.021906638084 Eh    ::
         ::    -> Ghb                  0.000000000000 Eh    ::
         ::    -> Gshift               0.004440829173 Eh    ::
         :: repulsion energy           0.604194832148 Eh    ::
         :: add. restraining           0.000000000000 Eh    ::
         :::::::::::::::::::::::::::::::::::::::::::::::::::::

           -------------------------------------------------
          |                Property Printout                |
           -------------------------------------------------

    * Orbital Energies and Occupations

         #    Occupation            Energy/Eh            Energy/eV
      -------------------------------------------------------------
         1        2.0000           -0.7053258             -19.1929
       ...           ...                  ...                  ...
        32        2.0000           -0.4673104             -12.7162
        33        2.0000           -0.4558982             -12.4056
        34        2.0000           -0.4547113             -12.3733
        35        2.0000           -0.4476057             -12.1800
        36        2.0000           -0.4429917             -12.0544
        37        2.0000           -0.4299972             -11.7008
        38        2.0000           -0.4292660             -11.6809
        39        2.0000           -0.4205544             -11.4439
        40        2.0000           -0.4179378             -11.3727
        41        2.0000           -0.4133008             -11.2465
        42        2.0000           -0.4113976             -11.1947
        43        2.0000           -0.3914817             -10.6528
        44        2.0000           -0.3863850             -10.5141 (HOMO)
        45                         -0.2412203              -6.5639 (LUMO)
        46                         -0.2341883              -6.3726
        47                         -0.1173550              -3.1934
        48                         -0.0634570              -1.7268
        49                          0.0017875               0.0486
        50                          0.0151147               0.4113
        51                          0.0521797               1.4199
        52                          0.0653620               1.7786
        53                          0.0877680               2.3883
        54                          0.0925977               2.5197
        55                          0.1100120               2.9936
       ...                                ...                  ...
        81                          0.6371334              17.3373
      -------------------------------------------------------------
                  HL-Gap            0.1451648 Eh            3.9501 eV
             Fermi-level           -0.3138026 Eh           -8.5390 eV

     #   Z        covCN         q      C6AA      α(0)
     1   6 C      2.966    -0.024    28.611     8.774
     2   6 C      2.919    -0.044    29.084     8.844
     3   6 C      2.914    -0.028    28.705     8.786
     4   6 C      2.915    -0.028    28.691     8.783
     5   6 C      2.915    -0.028    28.702     8.785
     6   6 C      2.916    -0.032    28.808     8.801
     7   6 C      3.659     0.169    18.137     6.112
     8   1 H      0.925     0.044     2.397     2.421
     9   1 H      0.926     0.061     2.184     2.311
    10   1 H      0.925     0.045     2.385     2.415
    11   7 N      3.515    -0.122    23.650     7.223
    12   6 C      3.734    -0.017    20.966     6.535
    13   1 H      0.864     0.279     0.778     1.381
    14   6 C      3.801    -0.070    21.845     6.654
    15   1 H      0.925     0.088     1.900     2.155
    16   1 H      0.924     0.080     1.983     2.202
    17   1 H      0.924     0.053     2.283     2.363
    18   1 H      0.924     0.057     2.238     2.339
    19   8 O      1.641    -0.493    22.756     6.439
    20   8 O      1.268    -0.796    31.041     7.488
    21   1 H      0.806     0.345     0.601     1.217
    22   1 H      0.805     0.222     1.014     1.581
    23   8 O      1.450    -0.730    28.741     7.225
    24   1 H      1.073     0.325     0.635     1.245
    25   1 H      0.805     0.247     0.905     1.494
    26   1 H      0.925     0.063     2.166     2.301
    27   1 H      0.860     0.210     1.056     1.610
    28   1 H      0.925     0.049     2.338     2.391
    29   1 H      0.925     0.040     2.445     2.445
    30   6 C      3.800    -0.056    21.580     6.614
    31   1 H      0.924     0.040     2.449     2.447
    32   1 H      0.924     0.041     2.432     2.439
    33   6 C      3.749    -0.106    22.587     6.778
    34   1 H      0.924     0.040     2.447     2.446
    35   1 H      0.924     0.040     2.454     2.450
    36   1 H      0.924     0.039     2.464     2.455

 Mol. C6AA /au·bohr⁶  :      10728.794448
 Mol. C8AA /au·bohr⁸  :     236652.326870
 Mol. α(0) /au        :        157.952108


Wiberg/Mayer (AO) data.
largest (>0.10) Wiberg bond orders for each atom
          total WBO             WBO to atom ...
     1  C   3.984        C    6 1.418    C    2 1.410    C    7 0.972    C    4 0.109
     2  C   3.990        C    3 1.446    C    1 1.410    H    8 0.967    C    5 0.112
     3  C   3.991        C    2 1.446    C    4 1.436    H   28 0.970    C    6 0.111
     4  C   3.990        C    5 1.442    C    3 1.436    H   10 0.971    C    1 0.109
     5  C   3.991        C    4 1.442    C    6 1.439    H   29 0.971    C    2 0.112
     6  C   3.989        C    5 1.439    C    1 1.418    H    9 0.960    C    3 0.111
     7  C   3.932        O   19 1.082    C    1 0.972    H   26 0.949    N   11 0.870
     8  H   0.998        C    2 0.967
     9  H   0.996        C    6 0.960
    10  H   0.997        C    4 0.971
    11  N   3.657        C   12 0.951    H   27 0.931    C    7 0.870    H   13 0.718
    12  C   3.933        C   14 1.010    H   15 0.968    H   16 0.967    N   11 0.951
    13  H   0.922        N   11 0.718    O   23 0.184
    14  C   3.990        C   12 1.010    C   30 1.003    H   17 0.973    H   18 0.971
    15  H   0.992        C   12 0.968
    16  H   0.993        C   12 0.967
    17  H   0.997        C   14 0.973
    18  H   0.997        C   14 0.971
    19  O   1.964        C    7 1.082    H   21 0.701
    20  O   1.692        H   22 0.943    H   24 0.400    H   21 0.161    O   23 0.111
    21  H   0.881        O   19 0.701    O   20 0.161
    22  H   0.951        O   20 0.943
    23  O   1.813        H   25 0.934    H   24 0.493    H   13 0.184    O   20 0.111
    24  H   0.894        O   23 0.493    O   20 0.400
    25  H   0.939        O   23 0.934
    26  H   0.996        C    7 0.949
    27  H   0.956        N   11 0.931
    28  H   0.997        C    3 0.970
    29  H   0.998        C    5 0.971
    30  C   3.995        C   33 1.020    C   14 1.003    H   31 0.977    H   32 0.977
    31  H   0.998        C   30 0.977
    32  H   0.998        C   30 0.977
    33  C   3.995        C   30 1.020    H   36 0.987    H   34 0.987    H   35 0.987
    34  H   0.998        C   33 0.987
    35  H   0.998        C   33 0.987
    36  H   0.998        C   33 0.987

molecular dipole:
                 x           y           z       tot (Debye)
 q only:       -0.261       3.451       0.494
   full:       -0.364       3.211       0.791       8.456
molecular quadrupole (traceless):
                xx          xy          yy          xz          yz          zz
 q only:       10.707      18.413      -1.302      -1.264       1.208      -9.405
  q+dip:        9.596      15.172       2.769      -2.051       1.092     -12.366
   full:        9.144      15.394       1.147      -1.383       1.256     -10.291

           -------------------------------------------------
          |                Property Printout                |
           -------------------------------------------------

    * Orbital Energies and Occupations

         #    Occupation            Energy/Eh            Energy/eV
      -------------------------------------------------------------
         1        2.0000           -0.7053258             -19.1929
       ...           ...                  ...                  ...
        32        2.0000           -0.4673104             -12.7162
        33        2.0000           -0.4558982             -12.4056
        34        2.0000           -0.4547113             -12.3733
        35        2.0000           -0.4476057             -12.1800
        36        2.0000           -0.4429917             -12.0544
        37        2.0000           -0.4299972             -11.7008
        38        2.0000           -0.4292660             -11.6809
        39        2.0000           -0.4205544             -11.4439
        40        2.0000           -0.4179378             -11.3727
        41        2.0000           -0.4133008             -11.2465
        42        2.0000           -0.4113976             -11.1947
        43        2.0000           -0.3914817             -10.6528
        44        2.0000           -0.3863850             -10.5141 (HOMO)
        45                         -0.2412203              -6.5639 (LUMO)
        46                         -0.2341883              -6.3726
        47                         -0.1173550              -3.1934
        48                         -0.0634570              -1.7268
        49                          0.0017875               0.0486
        50                          0.0151147               0.4113
        51                          0.0521797               1.4199
        52                          0.0653620               1.7786
        53                          0.0877680               2.3883
        54                          0.0925977               2.5197
        55                          0.1100120               2.9936
       ...                                ...                  ...
        81                          0.6371334              17.3373
      -------------------------------------------------------------
                  HL-Gap            0.1451648 Eh            3.9501 eV
             Fermi-level           -0.3138026 Eh           -8.5390 eV

     #   Z        covCN         q      C6AA      α(0)
     1   6 C      2.966    -0.024    28.611     8.774
     2   6 C      2.919    -0.044    29.084     8.844
     3   6 C      2.914    -0.028    28.705     8.786
     4   6 C      2.915    -0.028    28.691     8.783
     5   6 C      2.915    -0.028    28.702     8.785
     6   6 C      2.916    -0.032    28.808     8.801
     7   6 C      3.659     0.169    18.137     6.112
     8   1 H      0.925     0.044     2.397     2.421
     9   1 H      0.926     0.061     2.184     2.311
    10   1 H      0.925     0.045     2.385     2.415
    11   7 N      3.515    -0.122    23.650     7.223
    12   6 C      3.734    -0.017    20.966     6.535
    13   1 H      0.864     0.279     0.778     1.381
    14   6 C      3.801    -0.070    21.845     6.654
    15   1 H      0.925     0.088     1.900     2.155
    16   1 H      0.924     0.080     1.983     2.202
    17   1 H      0.924     0.053     2.283     2.363
    18   1 H      0.924     0.057     2.238     2.339
    19   8 O      1.641    -0.493    22.756     6.439
    20   8 O      1.268    -0.796    31.041     7.488
    21   1 H      0.806     0.345     0.601     1.217
    22   1 H      0.805     0.222     1.014     1.581
    23   8 O      1.450    -0.730    28.741     7.225
    24   1 H      1.073     0.325     0.635     1.245
    25   1 H      0.805     0.247     0.905     1.494
    26   1 H      0.925     0.063     2.166     2.301
    27   1 H      0.860     0.210     1.056     1.610
    28   1 H      0.925     0.049     2.338     2.391
    29   1 H      0.925     0.040     2.445     2.445
    30   6 C      3.800    -0.056    21.580     6.614
    31   1 H      0.924     0.040     2.449     2.447
    32   1 H      0.924     0.041     2.432     2.439
    33   6 C      3.749    -0.106    22.587     6.778
    34   1 H      0.924     0.040     2.447     2.446
    35   1 H      0.924     0.040     2.454     2.450
    36   1 H      0.924     0.039     2.464     2.455

 Mol. C6AA /au·bohr⁶  :      10728.794448
 Mol. C8AA /au·bohr⁸  :     236652.326870
 Mol. α(0) /au        :        157.952108


Wiberg/Mayer (AO) data.
largest (>0.10) Wiberg bond orders for each atom
          total WBO             WBO to atom ...
     1  C   3.984        C    6 1.418    C    2 1.410    C    7 0.972    C    4 0.109
     2  C   3.990        C    3 1.446    C    1 1.410    H    8 0.967    C    5 0.112
     3  C   3.991        C    2 1.446    C    4 1.436    H   28 0.970    C    6 0.111
     4  C   3.990        C    5 1.442    C    3 1.436    H   10 0.971    C    1 0.109
     5  C   3.991        C    4 1.442    C    6 1.439    H   29 0.971    C    2 0.112
     6  C   3.989        C    5 1.439    C    1 1.418    H    9 0.960    C    3 0.111
     7  C   3.932        O   19 1.082    C    1 0.972    H   26 0.949    N   11 0.870
     8  H   0.998        C    2 0.967
     9  H   0.996        C    6 0.960
    10  H   0.997        C    4 0.971
    11  N   3.657        C   12 0.951    H   27 0.931    C    7 0.870    H   13 0.718
    12  C   3.933        C   14 1.010    H   15 0.968    H   16 0.967    N   11 0.951
    13  H   0.922        N   11 0.718    O   23 0.184
    14  C   3.990        C   12 1.010    C   30 1.003    H   17 0.973    H   18 0.971
    15  H   0.992        C   12 0.968
    16  H   0.993        C   12 0.967
    17  H   0.997        C   14 0.973
    18  H   0.997        C   14 0.971
    19  O   1.964        C    7 1.082    H   21 0.701
    20  O   1.692        H   22 0.943    H   24 0.400    H   21 0.161    O   23 0.111
    21  H   0.881        O   19 0.701    O   20 0.161
    22  H   0.951        O   20 0.943
    23  O   1.813        H   25 0.934    H   24 0.493    H   13 0.184    O   20 0.111
    24  H   0.894        O   23 0.493    O   20 0.400
    25  H   0.939        O   23 0.934
    26  H   0.996        C    7 0.949
    27  H   0.956        N   11 0.931
    28  H   0.997        C    3 0.970
    29  H   0.998        C    5 0.971
    30  C   3.995        C   33 1.020    C   14 1.003    H   31 0.977    H   32 0.977
    31  H   0.998        C   30 0.977
    32  H   0.998        C   30 0.977
    33  C   3.995        C   30 1.020    H   36 0.987    H   34 0.987    H   35 0.987
    34  H   0.998        C   33 0.987
    35  H   0.998        C   33 0.987
    36  H   0.998        C   33 0.987

molecular dipole:
                 x           y           z       tot (Debye)
 q only:       -0.261       3.451       0.494
   full:       -0.364       3.211       0.791       8.456
molecular quadrupole (traceless):
                xx          xy          yy          xz          yz          zz
 q only:       10.707      18.413      -1.302      -1.264       1.208      -9.405
  q+dip:        9.596      15.172       2.769      -2.051       1.092     -12.366
   full:        9.144      15.394       1.147      -1.383       1.256     -10.291


           -------------------------------------------------
          | TOTAL ENERGY              -49.358962792474 Eh   |
          | GRADIENT NORM               0.033263538287 Eh/α |
          | HOMO-LUMO GAP               3.950133951989 eV   |
           -------------------------------------------------

------------------------------------------------------------------------
 * finished run on 2020/11/25 at 09:01:33.820     
------------------------------------------------------------------------
 total:
 * wall-time:     0 d,  0 h,  0 min,  0.193 sec
 *  cpu-time:     0 d,  0 h,  0 min,  0.843 sec
 * ratio c/w:     4.373 speedup
 SCF:
 * wall-time:     0 d,  0 h,  0 min,  0.088 sec
 *  cpu-time:     0 d,  0 h,  0 min,  0.403 sec
 * ratio c/w:     4.598 speedup


-------------------------   --------------------
FINAL SINGLE POINT ENERGY       -49.358962792470
-------------------------   --------------------


----------------------------------------------------------------------------
                           ORCA NUMERICAL FREQUENCIES
                              (8-process run)
----------------------------------------------------------------------------

Number of atoms                ... 36
Central differences            ... used
Number of displacements        ... 216
Numerical increment            ... 5.000e-03 bohr
IR-spectrum generation         ... on
Raman-spectrum generation      ... off
Surface Crossing Hessian       ... off
List of participating nodes    ...  /tmp/slurm-scratch/freq.323/freq.hostnames

The output will be reduced. Please look at the following files:
SCF program output             ... >/tmp/slurm-scratch/freq.323/freq.lastscf
Integral program output        ... >/tmp/slurm-scratch/freq.323/freq.lastint
Gradient program output        ... >/tmp/slurm-scratch/freq.323/freq.lastgrad
Dipole moment program output   ... >/tmp/slurm-scratch/freq.323/freq.lastmom
AutoCI program output          ... >/tmp/slurm-scratch/freq.323/freq.lastautoci


         <<< Energy and Gradient at the input geometry >>>

        <<< Energy and Gradient at displaced geometries >>>
             <<<Displacing   2/coordinate 3 (+)>>>
             <<<Displacing   2/coordinate 3 (-)>>>
             <<<Displacing   3/coordinate 2 (+)>>>
             <<<Displacing   3/coordinate 2 (-)>>>
             <<<Displacing   2/coordinate 1 (+)>>>
             <<<Displacing   1/coordinate 3 (+)>>>
             <<<Displacing   1/coordinate 2 (+)>>>
             <<<Displacing   2/coordinate 1 (-)>>>
             <<<Displacing   2/coordinate 2 (+)>>>
             <<<Displacing   1/coordinate 3 (-)>>>
             <<<Displacing   1/coordinate 2 (-)>>>
             <<<Displacing   3/coordinate 1 (+)>>>
             <<<Displacing   1/coordinate 1 (+)>>>
             <<<Displacing   2/coordinate 2 (-)>>>
             <<<Displacing   3/coordinate 1 (-)>>>
             <<<Displacing   1/coordinate 1 (-)>>>
             <<<Displacing   4/coordinate 1 (+)>>>
             <<<Displacing   4/coordinate 1 (-)>>>
             <<<Displacing   3/coordinate 3 (+)>>>
             <<<Displacing   3/coordinate 3 (-)>>>
             <<<Displacing   4/coordinate 2 (+)>>>
             <<<Displacing   4/coordinate 2 (-)>>>
             <<<Displacing   5/coordinate 1 (+)>>>
             <<<Displacing   5/coordinate 2 (+)>>>
             <<<Displacing   5/coordinate 3 (+)>>>
             <<<Displacing   6/coordinate 1 (+)>>>
             <<<Displacing   5/coordinate 1 (-)>>>
             <<<Displacing   4/coordinate 3 (+)>>>
             <<<Displacing   5/coordinate 2 (-)>>>
             <<<Displacing   6/coordinate 1 (-)>>>
             <<<Displacing   5/coordinate 3 (-)>>>
             <<<Displacing   4/coordinate 3 (-)>>>
             <<<Displacing   6/coordinate 2 (+)>>>
             <<<Displacing   6/coordinate 2 (-)>>>
             <<<Displacing   6/coordinate 3 (+)>>>
             <<<Displacing   6/coordinate 3 (-)>>>
             <<<Displacing   7/coordinate 1 (+)>>>
             <<<Displacing   7/coordinate 1 (-)>>>
             <<<Displacing   7/coordinate 2 (+)>>>
             <<<Displacing   7/coordinate 2 (-)>>>
             <<<Displacing   7/coordinate 3 (+)>>>
             <<<Displacing   8/coordinate 1 (+)>>>
             <<<Displacing   7/coordinate 3 (-)>>>
             <<<Displacing   9/coordinate 1 (+)>>>
             <<<Displacing   8/coordinate 1 (-)>>>
             <<<Displacing   8/coordinate 3 (+)>>>
             <<<Displacing   8/coordinate 2 (+)>>>
             <<<Displacing   9/coordinate 1 (-)>>>
             <<<Displacing   8/coordinate 2 (-)>>>
             <<<Displacing   8/coordinate 3 (-)>>>
             <<<Displacing   9/coordinate 2 (+)>>>
             <<<Displacing   9/coordinate 2 (-)>>>
             <<<Displacing   9/coordinate 3 (+)>>>
             <<<Displacing   9/coordinate 3 (-)>>>
             <<<Displacing  10/coordinate 1 (+)>>>
             <<<Displacing  10/coordinate 2 (+)>>>
             <<<Displacing  10/coordinate 1 (-)>>>
             <<<Displacing  10/coordinate 2 (-)>>>
             <<<Displacing  12/coordinate 1 (+)>>>
             <<<Displacing  10/coordinate 3 (+)>>>
             <<<Displacing  12/coordinate 1 (-)>>>
             <<<Displacing  10/coordinate 3 (-)>>>
             <<<Displacing  11/coordinate 1 (+)>>>
             <<<Displacing  11/coordinate 3 (+)>>>
             <<<Displacing  11/coordinate 1 (-)>>>
             <<<Displacing  11/coordinate 3 (-)>>>
             <<<Displacing  11/coordinate 2 (+)>>>
             <<<Displacing  11/coordinate 2 (-)>>>
             <<<Displacing  12/coordinate 2 (+)>>>
             <<<Displacing  12/coordinate 2 (-)>>>
             <<<Displacing  13/coordinate 2 (+)>>>
             <<<Displacing  12/coordinate 3 (+)>>>
             <<<Displacing  13/coordinate 2 (-)>>>
             <<<Displacing  12/coordinate 3 (-)>>>
             <<<Displacing  13/coordinate 1 (+)>>>
             <<<Displacing  13/coordinate 1 (-)>>>
             <<<Displacing  13/coordinate 3 (+)>>>
             <<<Displacing  14/coordinate 1 (+)>>>
             <<<Displacing  13/coordinate 3 (-)>>>
             <<<Displacing  14/coordinate 2 (+)>>>
             <<<Displacing  14/coordinate 1 (-)>>>
             <<<Displacing  14/coordinate 2 (-)>>>
             <<<Displacing  15/coordinate 1 (+)>>>
             <<<Displacing  14/coordinate 3 (+)>>>
             <<<Displacing  15/coordinate 1 (-)>>>
             <<<Displacing  14/coordinate 3 (-)>>>
             <<<Displacing  15/coordinate 2 (+)>>>
             <<<Displacing  15/coordinate 2 (-)>>>
             <<<Displacing  16/coordinate 1 (+)>>>
             <<<Displacing  17/coordinate 1 (+)>>>
             <<<Displacing  16/coordinate 2 (+)>>>
             <<<Displacing  16/coordinate 1 (-)>>>
             <<<Displacing  17/coordinate 1 (-)>>>
             <<<Displacing  16/coordinate 2 (-)>>>
             <<<Displacing  16/coordinate 3 (+)>>>
             <<<Displacing  15/coordinate 3 (+)>>>
             <<<Displacing  16/coordinate 3 (-)>>>
             <<<Displacing  15/coordinate 3 (-)>>>
             <<<Displacing  17/coordinate 2 (+)>>>
             <<<Displacing  17/coordinate 3 (+)>>>
             <<<Displacing  17/coordinate 2 (-)>>>
             <<<Displacing  17/coordinate 3 (-)>>>
             <<<Displacing  18/coordinate 1 (+)>>>
             <<<Displacing  18/coordinate 2 (+)>>>
             <<<Displacing  18/coordinate 1 (-)>>>
             <<<Displacing  18/coordinate 2 (-)>>>
             <<<Displacing  19/coordinate 2 (+)>>>
             <<<Displacing  19/coordinate 2 (-)>>>
             <<<Displacing  19/coordinate 1 (+)>>>
             <<<Displacing  19/coordinate 1 (-)>>>
             <<<Displacing  18/coordinate 3 (+)>>>
             <<<Displacing  19/coordinate 3 (+)>>>
             <<<Displacing  18/coordinate 3 (-)>>>
             <<<Displacing  19/coordinate 3 (-)>>>
             <<<Displacing  20/coordinate 1 (+)>>>
             <<<Displacing  20/coordinate 2 (+)>>>
             <<<Displacing  20/coordinate 1 (-)>>>
             <<<Displacing  20/coordinate 2 (-)>>>
             <<<Displacing  21/coordinate 1 (+)>>>
             <<<Displacing  21/coordinate 1 (-)>>>
             <<<Displacing  20/coordinate 3 (+)>>>
             <<<Displacing  20/coordinate 3 (-)>>>
             <<<Displacing  21/coordinate 2 (+)>>>
             <<<Displacing  21/coordinate 2 (-)>>>
             <<<Displacing  22/coordinate 1 (+)>>>
             <<<Displacing  22/coordinate 1 (-)>>>
             <<<Displacing  22/coordinate 2 (+)>>>
             <<<Displacing  22/coordinate 2 (-)>>>
             <<<Displacing  23/coordinate 1 (+)>>>
             <<<Displacing  23/coordinate 1 (-)>>>
             <<<Displacing  22/coordinate 3 (+)>>>
             <<<Displacing  22/coordinate 3 (-)>>>
             <<<Displacing  21/coordinate 3 (+)>>>
             <<<Displacing  23/coordinate 2 (+)>>>
             <<<Displacing  21/coordinate 3 (-)>>>
             <<<Displacing  23/coordinate 2 (-)>>>
             <<<Displacing  24/coordinate 1 (+)>>>
             <<<Displacing  24/coordinate 1 (-)>>>
             <<<Displacing  23/coordinate 3 (+)>>>
             <<<Displacing  23/coordinate 3 (-)>>>
             <<<Displacing  24/coordinate 2 (+)>>>
             <<<Displacing  24/coordinate 2 (-)>>>
             <<<Displacing  24/coordinate 3 (+)>>>
             <<<Displacing  24/coordinate 3 (-)>>>
             <<<Displacing  25/coordinate 1 (+)>>>
             <<<Displacing  25/coordinate 2 (+)>>>
             <<<Displacing  25/coordinate 1 (-)>>>
             <<<Displacing  25/coordinate 2 (-)>>>
             <<<Displacing  25/coordinate 3 (+)>>>
             <<<Displacing  25/coordinate 3 (-)>>>
             <<<Displacing  26/coordinate 2 (+)>>>
             <<<Displacing  26/coordinate 2 (-)>>>
             <<<Displacing  26/coordinate 1 (+)>>>
             <<<Displacing  26/coordinate 1 (-)>>>
             <<<Displacing  26/coordinate 3 (+)>>>
             <<<Displacing  26/coordinate 3 (-)>>>
             <<<Displacing  27/coordinate 1 (+)>>>
             <<<Displacing  27/coordinate 1 (-)>>>
             <<<Displacing  27/coordinate 2 (+)>>>
             <<<Displacing  27/coordinate 2 (-)>>>
             <<<Displacing  28/coordinate 2 (+)>>>
             <<<Displacing  28/coordinate 2 (-)>>>
             <<<Displacing  28/coordinate 1 (+)>>>
             <<<Displacing  28/coordinate 1 (-)>>>
             <<<Displacing  29/coordinate 1 (+)>>>
             <<<Displacing  29/coordinate 1 (-)>>>
             <<<Displacing  27/coordinate 3 (+)>>>
             <<<Displacing  28/coordinate 3 (+)>>>
             <<<Displacing  27/coordinate 3 (-)>>>
             <<<Displacing  28/coordinate 3 (-)>>>
             <<<Displacing  29/coordinate 2 (+)>>>
             <<<Displacing  29/coordinate 2 (-)>>>
             <<<Displacing  29/coordinate 3 (+)>>>
             <<<Displacing  29/coordinate 3 (-)>>>
             <<<Displacing  30/coordinate 1 (+)>>>
             <<<Displacing  30/coordinate 2 (+)>>>
             <<<Displacing  30/coordinate 1 (-)>>>
             <<<Displacing  30/coordinate 2 (-)>>>
             <<<Displacing  31/coordinate 1 (+)>>>
             <<<Displacing  31/coordinate 1 (-)>>>
             <<<Displacing  30/coordinate 3 (+)>>>
             <<<Displacing  30/coordinate 3 (-)>>>
             <<<Displacing  31/coordinate 3 (+)>>>
             <<<Displacing  31/coordinate 2 (+)>>>
             <<<Displacing  31/coordinate 3 (-)>>>
             <<<Displacing  31/coordinate 2 (-)>>>
             <<<Displacing  32/coordinate 1 (+)>>>
             <<<Displacing  32/coordinate 1 (-)>>>
             <<<Displacing  32/coordinate 2 (+)>>>
             <<<Displacing  32/coordinate 3 (+)>>>
             <<<Displacing  32/coordinate 2 (-)>>>
             <<<Displacing  32/coordinate 3 (-)>>>
             <<<Displacing  33/coordinate 1 (+)>>>
             <<<Displacing  33/coordinate 1 (-)>>>
             <<<Displacing  33/coordinate 2 (+)>>>
             <<<Displacing  34/coordinate 1 (+)>>>
             <<<Displacing  33/coordinate 2 (-)>>>
             <<<Displacing  34/coordinate 1 (-)>>>
             <<<Displacing  33/coordinate 3 (+)>>>
             <<<Displacing  34/coordinate 2 (+)>>>
             <<<Displacing  33/coordinate 3 (-)>>>
             <<<Displacing  34/coordinate 2 (-)>>>
             <<<Displacing  35/coordinate 1 (+)>>>
             <<<Displacing  35/coordinate 1 (-)>>>
             <<<Displacing  35/coordinate 2 (+)>>>
             <<<Displacing  34/coordinate 3 (+)>>>
             <<<Displacing  35/coordinate 3 (+)>>>
             <<<Displacing  35/coordinate 2 (-)>>>
             <<<Displacing  34/coordinate 3 (-)>>>
             <<<Displacing  35/coordinate 3 (-)>>>
             <<<Displacing  36/coordinate 2 (+)>>>
             <<<Displacing  36/coordinate 2 (-)>>>
             <<<Displacing  36/coordinate 1 (+)>>>
             <<<Displacing  36/coordinate 3 (+)>>>
             <<<Displacing  36/coordinate 1 (-)>>>
             <<<Displacing  36/coordinate 3 (-)>>>

-----------------------
VIBRATIONAL FREQUENCIES
-----------------------

Scaling factor for frequencies =  1.000000000 (already applied!)

   0:         0.00 cm**-1
   1:         0.00 cm**-1
   2:         0.00 cm**-1
   3:         0.00 cm**-1
   4:         0.00 cm**-1
   5:         0.00 cm**-1
   6:      -449.71 cm**-1 ***imaginary mode***
   7:        37.48 cm**-1
   8:        58.76 cm**-1
   9:        64.82 cm**-1
  10:        72.49 cm**-1
  11:        84.78 cm**-1
  12:        92.43 cm**-1
  13:       112.03 cm**-1
  14:       135.12 cm**-1
  15:       137.76 cm**-1
  16:       210.34 cm**-1
  17:       217.75 cm**-1
  18:       226.14 cm**-1
  19:       248.51 cm**-1
  20:       281.84 cm**-1
  21:       338.18 cm**-1
  22:       377.65 cm**-1
  23:       382.52 cm**-1
  24:       403.98 cm**-1
  25:       439.50 cm**-1
  26:       499.77 cm**-1
  27:       519.26 cm**-1
  28:       534.64 cm**-1
  29:       561.88 cm**-1
  30:       588.83 cm**-1
  31:       589.85 cm**-1
  32:       617.39 cm**-1
  33:       637.58 cm**-1
  34:       672.41 cm**-1
  35:       723.19 cm**-1
  36:       755.46 cm**-1
  37:       771.62 cm**-1
  38:       805.57 cm**-1
  39:       806.68 cm**-1
  40:       831.03 cm**-1
  41:       849.86 cm**-1
  42:       888.54 cm**-1
  43:       903.62 cm**-1
  44:       917.99 cm**-1
  45:       934.29 cm**-1
  46:       944.68 cm**-1
  47:       952.39 cm**-1
  48:       957.13 cm**-1
  49:       979.28 cm**-1
  50:      1001.46 cm**-1
  51:      1021.19 cm**-1
  52:      1058.47 cm**-1
  53:      1072.67 cm**-1
  54:      1081.23 cm**-1
  55:      1105.97 cm**-1
  56:      1117.83 cm**-1
  57:      1131.17 cm**-1
  58:      1141.70 cm**-1
  59:      1180.82 cm**-1
  60:      1190.80 cm**-1
  61:      1194.52 cm**-1
  62:      1209.85 cm**-1
  63:      1218.13 cm**-1
  64:      1242.15 cm**-1
  65:      1264.76 cm**-1
  66:      1269.94 cm**-1
  67:      1280.08 cm**-1
  68:      1281.23 cm**-1
  69:      1282.92 cm**-1
  70:      1292.37 cm**-1
  71:      1304.56 cm**-1
  72:      1339.55 cm**-1
  73:      1341.42 cm**-1
  74:      1371.68 cm**-1
  75:      1407.20 cm**-1
  76:      1423.52 cm**-1
  77:      1430.51 cm**-1
  78:      1444.36 cm**-1
  79:      1449.76 cm**-1
  80:      1459.42 cm**-1
  81:      1481.56 cm**-1
  82:      1492.87 cm**-1
  83:      1501.98 cm**-1
  84:      1506.35 cm**-1
  85:      1510.46 cm**-1
  86:      1567.04 cm**-1
  87:      1572.73 cm**-1
  88:      2078.55 cm**-1
  89:      2236.26 cm**-1
  90:      2934.64 cm**-1
  91:      2944.20 cm**-1
  92:      2960.79 cm**-1
  93:      2970.28 cm**-1
  94:      2973.55 cm**-1
  95:      2976.98 cm**-1
  96:      2981.02 cm**-1
  97:      2998.51 cm**-1
  98:      3008.92 cm**-1
  99:      3035.62 cm**-1
 100:      3042.73 cm**-1
 101:      3052.25 cm**-1
 102:      3057.41 cm**-1
 103:      3068.16 cm**-1
 104:      3092.97 cm**-1
 105:      3330.54 cm**-1
 106:      3594.12 cm**-1
 107:      3608.84 cm**-1


------------
NORMAL MODES
------------

These modes are the cartesian displacements weighted by the diagonal matrix
M(i,i)=1/sqrt(m[i]) where m[i] is the mass of the displaced atom
Thus, these vectors are normalized but *not* orthogonal

                  0          1          2          3          4          5    
      0       0.000000   0.000000   0.000000   0.000000   0.000000   0.000000
      1       0.000000   0.000000   0.000000   0.000000   0.000000   0.000000
      2       0.000000   0.000000   0.000000   0.000000   0.000000   0.000000
      3       0.000000   0.000000   0.000000   0.000000   0.000000   0.000000
      4       0.000000   0.000000   0.000000   0.000000   0.000000   0.000000
      5       0.000000   0.000000   0.000000   0.000000   0.000000   0.000000
      6       0.000000   0.000000   0.000000   0.000000   0.000000   0.000000
      7       0.000000   0.000000   0.000000   0.000000   0.000000   0.000000
      8       0.000000   0.000000   0.000000   0.000000   0.000000   0.000000
      9       0.000000   0.000000   0.000000   0.000000   0.000000   0.000000
     10       0.000000   0.000000   0.000000   0.000000   0.000000   0.000000
     11       0.000000   0.000000   0.000000   0.000000   0.000000   0.000000
     12       0.000000   0.000000   0.000000   0.000000   0.000000   0.000000
     13       0.000000   0.000000   0.000000   0.000000   0.000000   0.000000
     14       0.000000   0.000000   0.000000   0.000000   0.000000   0.000000
     15       0.000000   0.000000   0.000000   0.000000   0.000000   0.000000
     16       0.000000   0.000000   0.000000   0.000000   0.000000   0.000000
     17       0.000000   0.000000   0.000000   0.000000   0.000000   0.000000
     18       0.000000   0.000000   0.000000   0.000000   0.000000   0.000000
     19       0.000000   0.000000   0.000000   0.000000   0.000000   0.000000
     20       0.000000   0.000000   0.000000   0.000000   0.000000   0.000000
     21       0.000000   0.000000   0.000000   0.000000   0.000000   0.000000
     22       0.000000   0.000000   0.000000   0.000000   0.000000   0.000000
     23       0.000000   0.000000   0.000000   0.000000   0.000000   0.000000
     24       0.000000   0.000000   0.000000   0.000000   0.000000   0.000000
     25       0.000000   0.000000   0.000000   0.000000   0.000000   0.000000
     26       0.000000   0.000000   0.000000   0.000000   0.000000   0.000000
     27       0.000000   0.000000   0.000000   0.000000   0.000000   0.000000
     28       0.000000   0.000000   0.000000   0.000000   0.000000   0.000000
     29       0.000000   0.000000   0.000000   0.000000   0.000000   0.000000
     30       0.000000   0.000000   0.000000   0.000000   0.000000   0.000000
     31       0.000000   0.000000   0.000000   0.000000   0.000000   0.000000
     32       0.000000   0.000000   0.000000   0.000000   0.000000   0.000000
     33       0.000000   0.000000   0.000000   0.000000   0.000000   0.000000
     34       0.000000   0.000000   0.000000   0.000000   0.000000   0.000000
     35       0.000000   0.000000   0.000000   0.000000   0.000000   0.000000
     36       0.000000   0.000000   0.000000   0.000000   0.000000   0.000000
     37       0.000000   0.000000   0.000000   0.000000   0.000000   0.000000
     38       0.000000   0.000000   0.000000   0.000000   0.000000   0.000000
     39       0.000000   0.000000   0.000000   0.000000   0.000000   0.000000
     40       0.000000   0.000000   0.000000   0.000000   0.000000   0.000000
     41       0.000000   0.000000   0.000000   0.000000   0.000000   0.000000
     42       0.000000   0.000000   0.000000   0.000000   0.000000   0.000000
     43       0.000000   0.000000   0.000000   0.000000   0.000000   0.000000
     44       0.000000   0.000000   0.000000   0.000000   0.000000   0.000000
     45       0.000000   0.000000   0.000000   0.000000   0.000000   0.000000
     46       0.000000   0.000000   0.000000   0.000000   0.000000   0.000000
     47       0.000000   0.000000   0.000000   0.000000   0.000000   0.000000
     48       0.000000   0.000000   0.000000   0.000000   0.000000   0.000000
     49       0.000000   0.000000   0.000000   0.000000   0.000000   0.000000
     50       0.000000   0.000000   0.000000   0.000000   0.000000   0.000000
     51       0.000000   0.000000   0.000000   0.000000   0.000000   0.000000
     52       0.000000   0.000000   0.000000   0.000000   0.000000   0.000000
     53       0.000000   0.000000   0.000000   0.000000   0.000000   0.000000
     54       0.000000   0.000000   0.000000   0.000000   0.000000   0.000000
     55       0.000000   0.000000   0.000000   0.000000   0.000000   0.000000
     56       0.000000   0.000000   0.000000   0.000000   0.000000   0.000000
     57       0.000000   0.000000   0.000000   0.000000   0.000000   0.000000
     58       0.000000   0.000000   0.000000   0.000000   0.000000   0.000000
     59       0.000000   0.000000   0.000000   0.000000   0.000000   0.000000
     60       0.000000   0.000000   0.000000   0.000000   0.000000   0.000000
     61       0.000000   0.000000   0.000000   0.000000   0.000000   0.000000
     62       0.000000   0.000000   0.000000   0.000000   0.000000   0.000000
     63       0.000000   0.000000   0.000000   0.000000   0.000000   0.000000
     64       0.000000   0.000000   0.000000   0.000000   0.000000   0.000000
     65       0.000000   0.000000   0.000000   0.000000   0.000000   0.000000
     66       0.000000   0.000000   0.000000   0.000000   0.000000   0.000000
     67       0.000000   0.000000   0.000000   0.000000   0.000000   0.000000
     68       0.000000   0.000000   0.000000   0.000000   0.000000   0.000000
     69       0.000000   0.000000   0.000000   0.000000   0.000000   0.000000
     70       0.000000   0.000000   0.000000   0.000000   0.000000   0.000000
     71       0.000000   0.000000   0.000000   0.000000   0.000000   0.000000
     72       0.000000   0.000000   0.000000   0.000000   0.000000   0.000000
     73       0.000000   0.000000   0.000000   0.000000   0.000000   0.000000
     74       0.000000   0.000000   0.000000   0.000000   0.000000   0.000000
     75       0.000000   0.000000   0.000000   0.000000   0.000000   0.000000
     76       0.000000   0.000000   0.000000   0.000000   0.000000   0.000000
     77       0.000000   0.000000   0.000000   0.000000   0.000000   0.000000
     78       0.000000   0.000000   0.000000   0.000000   0.000000   0.000000
     79       0.000000   0.000000   0.000000   0.000000   0.000000   0.000000
     80       0.000000   0.000000   0.000000   0.000000   0.000000   0.000000
     81       0.000000   0.000000   0.000000   0.000000   0.000000   0.000000
     82       0.000000   0.000000   0.000000   0.000000   0.000000   0.000000
     83       0.000000   0.000000   0.000000   0.000000   0.000000   0.000000
     84       0.000000   0.000000   0.000000   0.000000   0.000000   0.000000
     85       0.000000   0.000000   0.000000   0.000000   0.000000   0.000000
     86       0.000000   0.000000   0.000000   0.000000   0.000000   0.000000
     87       0.000000   0.000000   0.000000   0.000000   0.000000   0.000000
     88       0.000000   0.000000   0.000000   0.000000   0.000000   0.000000
     89       0.000000   0.000000   0.000000   0.000000   0.000000   0.000000
     90       0.000000   0.000000   0.000000   0.000000   0.000000   0.000000
     91       0.000000   0.000000   0.000000   0.000000   0.000000   0.000000
     92       0.000000   0.000000   0.000000   0.000000   0.000000   0.000000
     93       0.000000   0.000000   0.000000   0.000000   0.000000   0.000000
     94       0.000000   0.000000   0.000000   0.000000   0.000000   0.000000
     95       0.000000   0.000000   0.000000   0.000000   0.000000   0.000000
     96       0.000000   0.000000   0.000000   0.000000   0.000000   0.000000
     97       0.000000   0.000000   0.000000   0.000000   0.000000   0.000000
     98       0.000000   0.000000   0.000000   0.000000   0.000000   0.000000
     99       0.000000   0.000000   0.000000   0.000000   0.000000   0.000000
    100       0.000000   0.000000   0.000000   0.000000   0.000000   0.000000
    101       0.000000   0.000000   0.000000   0.000000   0.000000   0.000000
    102       0.000000   0.000000   0.000000   0.000000   0.000000   0.000000
    103       0.000000   0.000000   0.000000   0.000000   0.000000   0.000000
    104       0.000000   0.000000   0.000000   0.000000   0.000000   0.000000
    105       0.000000   0.000000   0.000000   0.000000   0.000000   0.000000
    106       0.000000   0.000000   0.000000   0.000000   0.000000   0.000000
    107       0.000000   0.000000   0.000000   0.000000   0.000000   0.000000
                  6          7          8          9         10         11    
      0      -0.001830   0.029039   0.025598   0.039242   0.003545  -0.048987
      1      -0.003131  -0.019474   0.024470  -0.029891  -0.005596  -0.003757
      2      -0.003035  -0.020572   0.036815  -0.026965  -0.029118   0.038912
      3       0.001594   0.076893   0.026972   0.104904   0.005645  -0.052229
      4       0.000232   0.026295   0.030983  -0.011662   0.001246  -0.013584
      5      -0.002672  -0.062201   0.007234   0.183220  -0.060765   0.085564
      6       0.001735   0.067439   0.011306   0.110375   0.018564  -0.065164
      7       0.000363   0.096898   0.040775   0.004480   0.015577  -0.031544
      8      -0.000351  -0.054935  -0.047942   0.211270  -0.002254   0.026972
      9       0.000684   0.010327  -0.006035   0.049936   0.030766  -0.080348
     10       0.000365   0.123940   0.043655   0.002907   0.023213  -0.040445
     11      -0.000555  -0.006693  -0.075564   0.027619   0.092621  -0.086460
     12      -0.000545  -0.036970  -0.007772  -0.015011   0.027573  -0.075519
     13      -0.001741   0.079302   0.037496  -0.012609   0.015892  -0.030334
     14       0.002647   0.035245  -0.047732  -0.178429   0.119834  -0.121115
     15      -0.000294  -0.027528   0.008225  -0.019186   0.013945  -0.061102
     16      -0.002701   0.008191   0.027612  -0.029045   0.001554  -0.011726
     17       0.003884   0.029672   0.007907  -0.206114   0.058523  -0.055020
     18      -0.006956   0.041509   0.038224   0.039983   0.000153  -0.051819
     19      -0.034190  -0.101186   0.021636  -0.039413  -0.016834   0.003208
     20      -0.051529  -0.029642   0.088387  -0.032358  -0.054354   0.018630
     21      -0.000280   0.121282   0.041275   0.148914  -0.002139  -0.047183
     22      -0.000276   0.005048   0.028618  -0.008401  -0.005317  -0.004865
     23      -0.011109  -0.099257   0.027554   0.317542  -0.127697   0.159822
     24       0.015508  -0.064375   0.005279  -0.063891   0.011158  -0.058119
     25       0.006574  -0.026242   0.022369  -0.040988  -0.003646  -0.006269
     26       0.006857   0.064123   0.026470  -0.347580   0.077315  -0.073625
     27      -0.000154   0.002715  -0.018251   0.053047   0.042080  -0.093111
     28       0.000924   0.178842   0.050489   0.015656   0.034026  -0.053572
     29      -0.003634  -0.001608  -0.118831   0.047715   0.143549  -0.144481
     30      -0.004398   0.054570   0.012642   0.005292  -0.008245   0.005182
     31       0.077192  -0.072814  -0.032171   0.021699  -0.006779   0.028286
     32      -0.011543  -0.043153   0.114188  -0.024110  -0.052056  -0.018822
     33       0.014992   0.035808   0.000647   0.004564  -0.003546   0.008820
     34       0.011124  -0.021047   0.039157   0.032462  -0.010038   0.006023
     35      -0.003494  -0.087663   0.159041   0.007769  -0.010377  -0.070827
     36      -0.051588   0.097013   0.051879  -0.038367  -0.031356   0.084432
     37       0.323694  -0.068320  -0.076839   0.045953   0.002639   0.049223
     38      -0.134257  -0.037777   0.056353   0.004824  -0.039331   0.006353
     39       0.007259  -0.050054  -0.029779  -0.001672   0.021728   0.046978
     40       0.005184   0.075129  -0.068180  -0.004514  -0.090288  -0.039356
     41      -0.003816   0.077408  -0.066536  -0.070311  -0.163827  -0.147906
     42      -0.020406   0.012099   0.104027   0.042571   0.052087  -0.009662
     43      -0.004122   0.064138  -0.028881   0.004986  -0.076105  -0.040146
     44      -0.013180  -0.229944   0.344757   0.079504   0.132309  -0.020314
     45       0.025378   0.108876  -0.085298  -0.036129  -0.078278   0.016896
     46       0.003478  -0.145198   0.250801   0.109263   0.130989   0.059738
     47      -0.008036  -0.117420   0.193663   0.024296   0.020318  -0.073913
     48       0.009580  -0.020215  -0.137181  -0.060694  -0.170012  -0.055281
     49       0.005567  -0.008005  -0.013269   0.008543  -0.069817  -0.020884
     50      -0.002846   0.228516  -0.261000  -0.152018  -0.398517  -0.284071
     51       0.006224  -0.137897   0.077828   0.057910   0.253274   0.194548
     52       0.003004   0.209307  -0.281440  -0.083986  -0.272435  -0.128083
     53      -0.002657   0.104701  -0.098250  -0.089386  -0.241665  -0.198338
     54       0.003443   0.004992   0.051494   0.061123  -0.006634  -0.077872
     55      -0.048599  -0.159925   0.050281  -0.062070  -0.025960  -0.011327
     56       0.049435   0.014565   0.062556   0.022721  -0.047565   0.013299
     57      -0.012547  -0.125608  -0.045219  -0.076751   0.006190  -0.090637
     58       0.067109  -0.151762  -0.047291  -0.037367  -0.009136   0.019515
     59      -0.074185   0.048316  -0.068249   0.072725  -0.020648   0.065128
     60       0.058430  -0.055326   0.008323   0.014757  -0.001416  -0.078822
     61      -0.211670  -0.154640   0.018758  -0.055975  -0.018962  -0.001986
     62       0.178876   0.036616   0.005256   0.047600  -0.037050   0.033630
     63      -0.020469  -0.150117  -0.064062  -0.073951   0.011624  -0.128341
     64       0.116698  -0.188357  -0.075238  -0.048745  -0.003087  -0.028167
     65      -0.280441   0.005569  -0.101205   0.127312  -0.004240  -0.028944
     66      -0.008531   0.122018   0.081957  -0.160051  -0.060881   0.307357
     67      -0.100287  -0.051328  -0.122681   0.046635   0.007170   0.074385
     68       0.060790   0.001393  -0.018377   0.022141  -0.032866   0.052876
     69      -0.041941  -0.004504   0.015914  -0.127715  -0.025255   0.105920
     70       0.341991  -0.096541  -0.087924   0.010705  -0.000080   0.054985
     71       0.655511   0.030359  -0.054260   0.055589  -0.023741   0.061963
     72       0.044228   0.152772   0.097771  -0.188532  -0.072639   0.395719
     73      -0.265412  -0.001529  -0.122078   0.085729   0.006899   0.068731
     74       0.095432   0.085545   0.012915  -0.014676  -0.055951   0.222449
     75      -0.000261   0.088283   0.052294   0.042407  -0.000081  -0.069701
     76      -0.027798  -0.130125   0.045428  -0.062420  -0.021657  -0.003939
     77      -0.045924  -0.073322   0.129809  -0.070231  -0.062159   0.003973
     78       0.002546   0.040816  -0.029246  -0.016908  -0.016042   0.028970
     79       0.140779  -0.089245  -0.084865   0.040730   0.003797   0.037680
     80      -0.086423  -0.031264   0.150903  -0.074801  -0.075602  -0.009402
     81       0.001395   0.104041   0.012936   0.159643   0.020015  -0.065526
     82       0.000057   0.130603   0.045492   0.017723   0.020522  -0.037120
     83      -0.001027  -0.086474  -0.069868   0.372337  -0.026487   0.061230
     84      -0.001543  -0.080930  -0.021751  -0.060961   0.035659  -0.082491
     85      -0.001501   0.099817   0.039927  -0.012579   0.021427  -0.037558
     86       0.002631   0.072517  -0.069451  -0.314949   0.189513  -0.201481
     87       0.006143  -0.059258  -0.058174  -0.017008  -0.013859   0.039063
     88       0.003140   0.106773   0.039655   0.055111   0.056501   0.006387
     89      -0.002077   0.002894   0.000697  -0.009852   0.123119   0.057657
     90       0.006135  -0.078609   0.037925   0.039007   0.171151   0.134680
     91       0.003461   0.150814   0.018929   0.066031   0.085287   0.020912
     92      -0.001959  -0.085058   0.138476   0.035904   0.284907   0.141809
     93       0.005535   0.007707  -0.137503  -0.067051  -0.231992  -0.109255
     94       0.004354   0.046986   0.194634   0.095893   0.151303   0.018582
     95      -0.002403  -0.019418   0.023729   0.006890   0.199290   0.111626
     96       0.002213  -0.128324  -0.111165  -0.041534  -0.008559   0.105026
     97       0.002679   0.153916  -0.025376   0.049310   0.044503   0.012886
     98      -0.001953   0.071861  -0.146026  -0.030231   0.101453   0.094073
     99       0.001400  -0.130937  -0.174006  -0.077992  -0.124856   0.053781
    100       0.001678   0.110002   0.000578   0.042516   0.029931   0.007216
    101      -0.001763   0.137710  -0.253030  -0.058149   0.001245   0.048716
    102       0.001531  -0.135482  -0.125943  -0.049376  -0.024967   0.104555
    103       0.004660   0.183918   0.035766   0.081677   0.111738   0.014261
    104      -0.003482   0.043518  -0.135893  -0.008879   0.229349   0.200221
    105       0.001940  -0.167807  -0.073461  -0.015495   0.126542   0.205726
    106       0.001714   0.202052  -0.159207   0.020034  -0.015755   0.022513
    107      -0.001714   0.083602  -0.155222  -0.038048   0.058833   0.061088
                 12         13         14         15         16         17    
      0       0.029017  -0.024233   0.002015   0.022668   0.038711  -0.012562
      1      -0.018211  -0.026454  -0.004124   0.035817  -0.090258   0.124774
      2      -0.015553  -0.108916  -0.037382  -0.124063   0.043555  -0.062764
      3      -0.023176   0.021445   0.010331   0.015366   0.087347  -0.061614
      4      -0.053657  -0.000074   0.002386   0.020763  -0.051580   0.084803
      5      -0.054832  -0.043523  -0.034726  -0.081319   0.032664  -0.059806
      6      -0.008414   0.045084   0.018106   0.048062   0.067195  -0.030483
      7      -0.102509   0.039512   0.012527  -0.008298   0.019679  -0.006579
      8      -0.026053   0.068296  -0.000934   0.025128  -0.019631   0.013755
      9       0.054814   0.024946   0.018862   0.095079   0.002007   0.067792
     10      -0.115945   0.052258   0.015910  -0.017998   0.040839  -0.037512
     11       0.049870   0.112626   0.028678   0.084870  -0.047704   0.064232
     12       0.102421  -0.025624   0.007476   0.096274  -0.033506   0.104052
     13      -0.081984   0.026631   0.009712  -0.002743   0.000407   0.008543
     14       0.079553   0.025767   0.011792   0.003384   0.018083  -0.031199
     15       0.084614  -0.046516   0.000731   0.061908  -0.007733   0.065750
     16      -0.033396  -0.013326  -0.000715   0.024894  -0.070179   0.095585
     17       0.042258  -0.082830  -0.021364  -0.103806   0.064436  -0.100649
     18       0.020954  -0.016559   0.007089   0.021567   0.018167   0.007637
     19       0.038963  -0.045959  -0.000329   0.054115  -0.040788   0.079500
     20      -0.009040  -0.091859  -0.007614  -0.080922   0.019985   0.060227
     21      -0.074588   0.042146   0.013033  -0.012221   0.142379  -0.121107
     22      -0.041642  -0.010931  -0.000977   0.026701  -0.070118   0.103780
     23      -0.102286  -0.069119  -0.052185  -0.108690   0.041174  -0.071277
     24       0.103256  -0.072165  -0.003740   0.071539  -0.035458   0.109740
     25      -0.019038  -0.027551  -0.003683   0.039877  -0.097112   0.137874
     26       0.064665  -0.127164  -0.025519  -0.137362   0.097528  -0.143225
     27       0.068662   0.045986   0.026523   0.125117  -0.021025   0.102356
     28      -0.150931   0.081146   0.022890  -0.037342   0.086963  -0.097824
     29       0.081953   0.212762   0.062978   0.190322  -0.108160   0.161637
     30      -0.009054  -0.121823  -0.053431  -0.022563   0.040261  -0.020360
     31       0.091917   0.021263   0.024082  -0.086770  -0.136399   0.002395
     32       0.003471  -0.044934   0.021070  -0.024262   0.019329   0.069191
     33      -0.010077  -0.133472  -0.053544  -0.005823  -0.032778  -0.046319
     34       0.117572   0.106134   0.045079  -0.154881   0.093556  -0.031378
     35       0.047249   0.098563   0.087156   0.022186  -0.050250  -0.177335
     36       0.002754  -0.058711  -0.038156  -0.050088   0.127576   0.005811
     37       0.075216   0.015634   0.020197  -0.065834  -0.174052  -0.020504
     38      -0.017678  -0.051885   0.017743  -0.000002   0.014518   0.026146
     39       0.027817  -0.090849  -0.021842  -0.022778  -0.154922  -0.121088
     40       0.106512   0.093829  -0.044359  -0.126499   0.104359   0.020091
     41       0.034584   0.093655  -0.078187   0.090064  -0.088466  -0.101943
     42       0.018096  -0.029486   0.018074  -0.029368   0.071597  -0.205163
     43       0.111009   0.115366  -0.021250  -0.136925   0.150632   0.004669
     44       0.079679   0.172538   0.242433  -0.022568  -0.043777  -0.364845
     45      -0.048740  -0.244388  -0.140969  -0.009770   0.002405   0.183133
     46       0.136171   0.145647   0.196922  -0.224293   0.184339  -0.141501
     47       0.063319   0.144631   0.122652   0.023468  -0.064564  -0.272590
     48       0.071794  -0.054214   0.029714  -0.028916  -0.159754  -0.137818
     49       0.136389   0.127462   0.038175  -0.163557   0.101659  -0.024110
     50       0.038040   0.082307  -0.140515   0.138142  -0.094653  -0.058150
     51       0.008793  -0.083749  -0.053457  -0.047012  -0.140616  -0.089271
     52       0.113812   0.101930  -0.138681  -0.087054   0.085978   0.089913
     53       0.041200   0.090716  -0.062943   0.097480  -0.091081  -0.113539
     54       0.078207   0.032283   0.049986   0.028729   0.018967   0.045253
     55       0.046942  -0.063085   0.006050   0.101869   0.067335   0.033275
     56       0.035825  -0.016785   0.026553  -0.139872  -0.127068   0.135993
     57      -0.396257   0.090481   0.004286  -0.152469  -0.038733   0.029783
     58      -0.076416  -0.043685  -0.012150   0.207833   0.143857  -0.108338
     59      -0.051435  -0.012263   0.004908   0.061974  -0.000346   0.048015
     60      -0.098660   0.037533   0.026434  -0.005253   0.040466   0.004979
     61       0.007901  -0.055386   0.001255   0.117543   0.072476   0.036235
     62      -0.019081   0.006431   0.020113  -0.119090  -0.158709   0.119003
     63      -0.470691   0.107943   0.002620  -0.233262  -0.086363   0.038047
     64      -0.219880   0.000415  -0.014257   0.051819   0.033965  -0.096557
     65      -0.075457  -0.041745   0.000593   0.039887   0.046313   0.064724
     66      -0.020158   0.142600   0.036543   0.106943  -0.036176  -0.007227
     67       0.033559   0.027693   0.011983   0.040420  -0.107063  -0.105178
     68      -0.090183  -0.051981  -0.006613   0.167220   0.134962   0.040815
     69      -0.217343   0.122147   0.021496  -0.031965  -0.050152   0.011141
     70      -0.011140  -0.001483   0.002175   0.103172  -0.031720  -0.109920
     71      -0.075032  -0.026745  -0.003543   0.092377  -0.003204   0.043509
     72       0.014866   0.199626   0.060179   0.151904  -0.113423  -0.007270
     73       0.119442  -0.039942  -0.013435   0.038492  -0.006804  -0.122124
     74       0.019588   0.026443   0.027078   0.253438   0.032634   0.031929
     75       0.000368   0.009072   0.012840   0.053033  -0.039102   0.111154
     76       0.027691  -0.068077  -0.005285   0.109288   0.025162   0.071832
     77      -0.027244  -0.127060  -0.014619   0.015101   0.125060   0.058766
     78      -0.045978  -0.225964  -0.095110   0.009984  -0.035485   0.050341
     79       0.075386  -0.023224   0.013749  -0.068393  -0.242461   0.001077
     80      -0.010193  -0.083476  -0.006259  -0.018208   0.105427   0.143288
     81      -0.045859   0.080933   0.024719   0.038458   0.102608  -0.081716
     82      -0.126923   0.058143   0.016465  -0.023511   0.051638  -0.052791
     83      -0.056506   0.127886   0.006690   0.074105  -0.047719   0.052299
     84       0.155658  -0.046854   0.004734   0.126119  -0.087045   0.167154
     85      -0.095079   0.037740   0.012887  -0.009503   0.020261  -0.013916
     86       0.130662   0.053561   0.029622   0.036303   0.022356  -0.029423
     87       0.051103  -0.060311  -0.005742  -0.047552  -0.124469  -0.110911
     88       0.026500  -0.018137  -0.113921  -0.065479   0.014092  -0.021929
     89       0.009114   0.105714  -0.165030   0.045109  -0.035935  -0.002076
     90       0.000942  -0.104146  -0.101541  -0.019713  -0.185008  -0.109298
     91      -0.020038  -0.130178  -0.019490  -0.046818  -0.042666  -0.053695
     92       0.023334   0.224846  -0.412167   0.048534  -0.020375   0.046314
     93       0.062980  -0.098650   0.116196  -0.015656  -0.174756  -0.193714
     94       0.028681   0.074619  -0.370577  -0.008069  -0.064566  -0.048561
     95       0.004777   0.116049  -0.199097   0.030633  -0.013064   0.029923
     96       0.134280   0.092928  -0.027475  -0.187225   0.160732   0.058404
     97      -0.005401  -0.128346   0.043182  -0.073756  -0.004185  -0.039437
     98      -0.025509  -0.054764   0.138585  -0.016306   0.031498   0.030565
     99       0.181093   0.139454   0.070414  -0.240661   0.282219   0.046234
    100       0.040126  -0.016787  -0.056171  -0.102134   0.081157  -0.003886
    101      -0.047141  -0.179941   0.397207  -0.028295   0.026267  -0.037793
    102       0.149822   0.115461  -0.015288  -0.210792   0.211837   0.075895
    103      -0.069789  -0.222188  -0.006449   0.023862  -0.215545  -0.112510
    104      -0.028545  -0.035446   0.070745  -0.066660   0.117014   0.169648
    105       0.135450   0.138968  -0.153449  -0.223679   0.228295   0.191429
    106      -0.011035  -0.228266   0.310412  -0.146442   0.103479  -0.014203
    107      -0.025757  -0.067488   0.173475  -0.002833   0.007144  -0.013217
                 18         19         20         21         22         23    
      0       0.021773   0.066934  -0.000337  -0.030278  -0.005001   0.001999
      1      -0.134092   0.082522  -0.000359   0.014858   0.114897   0.014116
      2       0.030781   0.092912  -0.000827  -0.067814  -0.046348   0.000792
      3       0.083051   0.089514  -0.001614  -0.021865  -0.116064  -0.064202
      4      -0.081626   0.077628  -0.000742   0.005620   0.036571  -0.002085
      5       0.014604   0.177057  -0.003385   0.106537   0.094484  -0.197210
      6       0.064395   0.059461  -0.001359  -0.035218  -0.149991   0.036228
      7       0.031559   0.009627  -0.000492   0.001656  -0.057389  -0.000636
      8      -0.013978   0.007504  -0.002031   0.072726   0.024649   0.203795
      9      -0.028889   0.074390  -0.000943  -0.084411  -0.160741  -0.014142
     10       0.066193  -0.023625  -0.000288  -0.003355  -0.058290  -0.008017
     11      -0.019356  -0.202010   0.000769  -0.108317  -0.001743   0.003879
     12      -0.090415   0.149199  -0.001286  -0.020127  -0.035096  -0.054668
     13       0.007740   0.002387  -0.000143   0.019204   0.035178  -0.004341
     14       0.028810   0.001123  -0.001663   0.057650   0.071783  -0.198015
     15      -0.057783   0.170344  -0.001309  -0.000491  -0.060336   0.046788
     16      -0.102252   0.063438  -0.000263   0.026192   0.138569   0.022526
     17       0.057612   0.163492  -0.002443   0.111135   0.002081   0.208557
     18       0.002960   0.010116   0.000486  -0.031000   0.117310   0.012632
     19      -0.015179   0.008383   0.001525   0.057590  -0.069007  -0.006727
     20       0.053391  -0.060812   0.003165  -0.140778  -0.077207  -0.005702
     21       0.155408   0.092829  -0.002206  -0.026059  -0.216527  -0.137533
     22      -0.108491   0.088479  -0.000712   0.019636   0.091552  -0.008498
     23       0.005603   0.267757  -0.004708   0.191212   0.208309  -0.432935
     24      -0.107697   0.228226  -0.001555   0.023611  -0.058657   0.100562
     25      -0.147579   0.102087  -0.000451   0.026280   0.139529   0.028056
     26       0.086542   0.227924  -0.002909   0.208172  -0.018988   0.435722
     27      -0.049370   0.018773  -0.000259  -0.121742  -0.162877  -0.014145
     28       0.136465  -0.068672  -0.000252  -0.019871  -0.110511  -0.011950
     29      -0.055032  -0.445680   0.003441  -0.267067  -0.050191   0.000878
     30      -0.052195  -0.052668   0.002595  -0.098043   0.122272   0.020772
     31       0.098754   0.041121   0.003278   0.037883  -0.123117  -0.012454
     32       0.049911  -0.064646   0.000413  -0.112281  -0.077659  -0.009150
     33      -0.042643  -0.073555   0.003846  -0.063134   0.103421   0.018320
     34      -0.092175  -0.005631  -0.013098   0.007283  -0.036267  -0.004672
     35      -0.137051  -0.010219  -0.017781  -0.036861   0.047122   0.009167
     36      -0.072654  -0.096170  -0.001856  -0.113095   0.111199   0.014242
     37       0.122853   0.074757   0.006495   0.049033  -0.133579  -0.010767
     38       0.086011  -0.053451   0.002661  -0.140144  -0.089094  -0.010733
     39      -0.045304  -0.120463  -0.001160   0.072119  -0.078404  -0.014540
     40      -0.048307  -0.017565  -0.013691   0.011898  -0.029747  -0.004557
     41      -0.024991  -0.004766  -0.019688   0.001723   0.021698   0.004020
     42      -0.269428  -0.063638  -0.012135  -0.066531   0.263470   0.041233
     43      -0.087423  -0.003879  -0.015843  -0.007529   0.008122   0.001158
     44      -0.337230  -0.005636  -0.027258  -0.018500   0.124074   0.021006
     45       0.163248  -0.079060   0.019024  -0.130241  -0.006175   0.003104
     46      -0.269658   0.001421  -0.018737  -0.042535   0.064605   0.011928
     47      -0.222184  -0.007619  -0.024125  -0.009514   0.091818   0.015363
     48      -0.048702  -0.114437  -0.057836   0.098209  -0.119440  -0.021540
     49      -0.092039  -0.018631  -0.023196   0.035025  -0.077318  -0.012674
     50       0.036551   0.002556  -0.067335  -0.003095   0.044300   0.007851
     51      -0.041837  -0.115810   0.060734   0.096751  -0.121919  -0.022321
     52       0.037124  -0.008171  -0.044598   0.050987  -0.076152  -0.013586
     53      -0.028630  -0.005725  -0.041306  -0.009096   0.039916   0.007340
     54       0.230736  -0.102928   0.008882   0.183756   0.238892   0.022943
[...]
     73       0.000116  -0.000157   0.000128  -0.000198  -0.213089  -0.025828
     74       0.000064   0.000226   0.000138  -0.000995   0.452354   0.056428
     75      -0.000422  -0.000581  -0.000060   0.000614  -0.000268  -0.000157
     76      -0.000848  -0.001618  -0.003078   0.000353  -0.000148  -0.000091
     77       0.000756   0.001046   0.001884   0.001113   0.000060   0.000080
     78      -0.000422   0.001449  -0.000691  -0.482855  -0.000800  -0.000607
     79       0.000039  -0.001776   0.000495   0.729525   0.002457   0.001310
     80      -0.000325  -0.001146   0.000196   0.478479   0.000466   0.000700
     81       0.457278   0.347496  -0.003315   0.001344  -0.000020   0.000233
     82      -0.581015  -0.443335   0.004422  -0.001168  -0.000010  -0.000290
     83      -0.091610  -0.069631   0.000595  -0.000265   0.000026  -0.000037
     84      -0.181838   0.119579  -0.042203   0.000817  -0.000007  -0.000042
     85      -0.496837   0.331295  -0.118564   0.001661  -0.000044  -0.000307
     86       0.060751  -0.040122   0.014116  -0.000297   0.000066   0.000049
     87       0.000021   0.000017  -0.000018   0.000071   0.000012   0.000012
     88      -0.000013  -0.000022   0.000012  -0.000111  -0.000025  -0.000010
     89       0.000003   0.000010  -0.000001   0.000030  -0.000002   0.000002
     90      -0.000125  -0.000125   0.000181  -0.000863  -0.000186  -0.000149
     91       0.000163   0.000248  -0.000228   0.000482   0.000195   0.000095
     92       0.000086   0.000148  -0.000159   0.000569   0.000149   0.000099
     93      -0.000064  -0.000057   0.000047  -0.000309  -0.000063  -0.000054
     94       0.000008   0.000006   0.000014  -0.000036  -0.000014  -0.000007
     95      -0.000131  -0.000252   0.000161  -0.000610  -0.000222  -0.000067
     96       0.000013   0.000008   0.000001   0.000021   0.000004  -0.000000
     97      -0.000011  -0.000006  -0.000007   0.000022  -0.000017   0.000001
     98      -0.000002  -0.000003   0.000002  -0.000033  -0.000007  -0.000001
     99      -0.000090  -0.000017  -0.000048   0.000047  -0.000034  -0.000023
    100       0.000098   0.000094   0.000049  -0.000029   0.000104   0.000066
    101       0.000059   0.000043   0.000035  -0.000012   0.000008   0.000012
    102       0.000005  -0.000170   0.000071  -0.001047   0.000061  -0.000059
    103      -0.000007  -0.000014   0.000001  -0.000437   0.000050  -0.000017
    104       0.000007  -0.000009   0.000002   0.000100  -0.000034   0.000004
    105      -0.000032   0.000039  -0.000031   0.000183  -0.000005   0.000007
    106       0.000003   0.000026  -0.000005  -0.000032   0.000022   0.000002
    107      -0.000019   0.000015  -0.000087   0.000457  -0.000051  -0.000004


-----------
IR SPECTRUM  
-----------

 Mode    freq (cm**-1)   T**2         TX         TY         TZ
-------------------------------------------------------------------
   7:        37.48    0.000000  (  0.000000   0.000000   0.000000)
   8:        58.76    0.000000  (  0.000000   0.000000   0.000000)
   9:        64.82    0.000000  (  0.000000   0.000000   0.000000)
  10:        72.49    0.000000  (  0.000000   0.000000   0.000000)
  11:        84.78    0.000000  (  0.000000   0.000000   0.000000)
  12:        92.43    0.000000  (  0.000000   0.000000   0.000000)
  13:       112.03    0.000000  (  0.000000   0.000000   0.000000)
  14:       135.12    0.000000  (  0.000000   0.000000   0.000000)
  15:       137.76    0.000000  (  0.000000   0.000000   0.000000)
  16:       210.34    0.000000  (  0.000000   0.000000   0.000000)
  17:       217.75    0.000000  (  0.000000   0.000000   0.000000)
  18:       226.14    0.000000  (  0.000000   0.000000   0.000000)
  19:       248.51    0.000000  (  0.000000   0.000000   0.000000)
  20:       281.84    0.000000  (  0.000000   0.000000   0.000000)
  21:       338.18    0.000000  (  0.000000   0.000000   0.000000)
  22:       377.65    0.000000  (  0.000000   0.000000   0.000000)
  23:       382.52    0.000000  (  0.000000   0.000000   0.000000)
  24:       403.98    0.000000  (  0.000000   0.000000   0.000000)
  25:       439.50    0.000000  (  0.000000   0.000000   0.000000)
  26:       499.77    0.000000  (  0.000000   0.000000   0.000000)
  27:       519.26    0.000000  (  0.000000   0.000000   0.000000)
  28:       534.64    0.000000  (  0.000000   0.000000   0.000000)
  29:       561.88    0.000000  (  0.000000   0.000000   0.000000)
  30:       588.83    0.000000  (  0.000000   0.000000   0.000000)
  31:       589.85    0.000000  (  0.000000   0.000000   0.000000)
  32:       617.39    0.000000  (  0.000000   0.000000   0.000000)
  33:       637.58    0.000000  (  0.000000   0.000000   0.000000)
  34:       672.41    0.000000  (  0.000000   0.000000   0.000000)
  35:       723.19    0.000000  (  0.000000   0.000000   0.000000)
  36:       755.46    0.000000  (  0.000000   0.000000   0.000000)
  37:       771.62    0.000000  (  0.000000   0.000000   0.000000)
  38:       805.57    0.000000  (  0.000000   0.000000   0.000000)
  39:       806.68    0.000000  (  0.000000   0.000000   0.000000)
  40:       831.03    0.000000  (  0.000000   0.000000   0.000000)
  41:       849.86    0.000000  (  0.000000   0.000000   0.000000)
  42:       888.54    0.000000  (  0.000000   0.000000   0.000000)
  43:       903.62    0.000000  (  0.000000   0.000000   0.000000)
  44:       917.99    0.000000  (  0.000000   0.000000   0.000000)
  45:       934.29    0.000000  (  0.000000   0.000000   0.000000)
  46:       944.68    0.000000  (  0.000000   0.000000   0.000000)
  47:       952.39    0.000000  (  0.000000   0.000000   0.000000)
  48:       957.13    0.000000  (  0.000000   0.000000   0.000000)
  49:       979.28    0.000000  (  0.000000   0.000000   0.000000)
  50:      1001.46    0.000000  (  0.000000   0.000000   0.000000)
  51:      1021.19    0.000000  (  0.000000   0.000000   0.000000)
  52:      1058.47    0.000000  (  0.000000   0.000000   0.000000)
  53:      1072.67    0.000000  (  0.000000   0.000000   0.000000)
  54:      1081.23    0.000000  (  0.000000   0.000000   0.000000)
  55:      1105.97    0.000000  (  0.000000   0.000000   0.000000)
  56:      1117.83    0.000000  (  0.000000   0.000000   0.000000)
  57:      1131.17    0.000000  (  0.000000   0.000000   0.000000)
  58:      1141.70    0.000000  (  0.000000   0.000000   0.000000)
  59:      1180.82    0.000000  (  0.000000   0.000000   0.000000)
  60:      1190.80    0.000000  (  0.000000   0.000000   0.000000)
  61:      1194.52    0.000000  (  0.000000   0.000000   0.000000)
  62:      1209.85    0.000000  (  0.000000   0.000000   0.000000)
  63:      1218.13    0.000000  (  0.000000   0.000000   0.000000)
  64:      1242.15    0.000000  (  0.000000   0.000000   0.000000)
  65:      1264.76    0.000000  (  0.000000   0.000000   0.000000)
  66:      1269.94    0.000000  (  0.000000   0.000000   0.000000)
  67:      1280.08    0.000000  (  0.000000   0.000000   0.000000)
  68:      1281.23    0.000000  (  0.000000   0.000000   0.000000)
  69:      1282.92    0.000000  (  0.000000   0.000000   0.000000)
  70:      1292.37    0.000000  (  0.000000   0.000000   0.000000)
  71:      1304.56    0.000000  (  0.000000   0.000000   0.000000)
  72:      1339.55    0.000000  (  0.000000   0.000000   0.000000)
  73:      1341.42    0.000000  (  0.000000   0.000000   0.000000)
  74:      1371.68    0.000000  (  0.000000   0.000000   0.000000)
  75:      1407.20    0.000000  (  0.000000   0.000000   0.000000)
  76:      1423.52    0.000000  (  0.000000   0.000000   0.000000)
  77:      1430.51    0.000000  (  0.000000   0.000000   0.000000)
  78:      1444.36    0.000000  (  0.000000   0.000000   0.000000)
  79:      1449.76    0.000000  (  0.000000   0.000000   0.000000)
  80:      1459.42    0.000000  (  0.000000   0.000000   0.000000)
  81:      1481.56    0.000000  (  0.000000   0.000000   0.000000)
  82:      1492.87    0.000000  (  0.000000   0.000000   0.000000)
  83:      1501.98    0.000000  (  0.000000   0.000000   0.000000)
  84:      1506.35    0.000000  (  0.000000   0.000000   0.000000)
  85:      1510.46    0.000000  (  0.000000   0.000000   0.000000)
  86:      1567.04    0.000000  (  0.000000   0.000000   0.000000)
  87:      1572.73    0.000000  (  0.000000   0.000000   0.000000)
  88:      2078.55    0.000000  (  0.000000   0.000000   0.000000)
  89:      2236.26    0.000000  (  0.000000   0.000000   0.000000)
  90:      2934.64    0.000000  (  0.000000   0.000000   0.000000)
  91:      2944.20    0.000000  (  0.000000   0.000000   0.000000)
  92:      2960.79    0.000000  (  0.000000   0.000000   0.000000)
  93:      2970.28    0.000000  (  0.000000   0.000000   0.000000)
  94:      2973.55    0.000000  (  0.000000   0.000000   0.000000)
  95:      2976.98    0.000000  (  0.000000   0.000000   0.000000)
  96:      2981.02    0.000000  (  0.000000   0.000000   0.000000)
  97:      2998.51    0.000000  (  0.000000   0.000000   0.000000)
  98:      3008.92    0.000000  (  0.000000   0.000000   0.000000)
  99:      3035.62    0.000000  (  0.000000   0.000000   0.000000)
 100:      3042.73    0.000000  (  0.000000   0.000000   0.000000)
 101:      3052.25    0.000000  (  0.000000   0.000000   0.000000)
 102:      3057.41    0.000000  (  0.000000   0.000000   0.000000)
 103:      3068.16    0.000000  (  0.000000   0.000000   0.000000)
 104:      3092.97    0.000000  (  0.000000   0.000000   0.000000)
 105:      3330.54    0.000000  (  0.000000   0.000000   0.000000)
 106:      3594.12    0.000000  (  0.000000   0.000000   0.000000)
 107:      3608.84    0.000000  (  0.000000   0.000000   0.000000)

The first frequency considered to be a vibration is 7
The total number of vibrations considered is 101


--------------------------
THERMOCHEMISTRY AT 298.15K
--------------------------

Temperature         ... 298.15 K
Pressure            ... 1.00 atm
Total Mass          ... 215.29 AMU

Throughout the following assumptions are being made:
  (1) The electronic state is orbitally nondegenerate
  (2) There are no thermally accessible electronically excited states
  (3) Hindered rotations indicated by low frequency modes are not
      treated as such but are treated as vibrations and this may
      cause some error
  (4) All equations used are the standard statistical mechanics
      equations for an ideal gas
  (5) All vibrations are strictly harmonic

freq.      37.48  E(vib)   ...       0.54 
freq.      58.76  E(vib)   ...       0.51 
freq.      64.82  E(vib)   ...       0.50 
freq.      72.49  E(vib)   ...       0.49 
freq.      84.78  E(vib)   ...       0.48 
freq.      92.43  E(vib)   ...       0.47 
freq.     112.03  E(vib)   ...       0.45 
freq.     135.12  E(vib)   ...       0.42 
freq.     137.76  E(vib)   ...       0.42 
freq.     210.34  E(vib)   ...       0.34 
freq.     217.75  E(vib)   ...       0.33 
freq.     226.14  E(vib)   ...       0.33 
freq.     248.51  E(vib)   ...       0.31 
freq.     281.84  E(vib)   ...       0.28 
freq.     338.18  E(vib)   ...       0.24 
freq.     377.65  E(vib)   ...       0.21 
freq.     382.52  E(vib)   ...       0.21 
freq.     403.98  E(vib)   ...       0.19 
freq.     439.50  E(vib)   ...       0.17 
freq.     499.77  E(vib)   ...       0.14 
freq.     519.26  E(vib)   ...       0.13 
freq.     534.64  E(vib)   ...       0.13 
freq.     561.88  E(vib)   ...       0.11 
freq.     588.83  E(vib)   ...       0.10 
freq.     589.85  E(vib)   ...       0.10 
freq.     617.39  E(vib)   ...       0.09 
freq.     637.58  E(vib)   ...       0.09 
freq.     672.41  E(vib)   ...       0.08 
freq.     723.19  E(vib)   ...       0.07 
freq.     755.46  E(vib)   ...       0.06 
freq.     771.62  E(vib)   ...       0.05 
freq.     805.57  E(vib)   ...       0.05 
freq.     806.68  E(vib)   ...       0.05 
freq.     831.03  E(vib)   ...       0.04 
freq.     849.86  E(vib)   ...       0.04 
freq.     888.54  E(vib)   ...       0.04 
freq.     903.62  E(vib)   ...       0.03 
freq.     917.99  E(vib)   ...       0.03 
freq.     934.29  E(vib)   ...       0.03 
freq.     944.68  E(vib)   ...       0.03 
freq.     952.39  E(vib)   ...       0.03 
freq.     957.13  E(vib)   ...       0.03 
freq.     979.28  E(vib)   ...       0.03 
freq.    1001.46  E(vib)   ...       0.02 
freq.    1021.19  E(vib)   ...       0.02 
freq.    1058.47  E(vib)   ...       0.02 
freq.    1072.67  E(vib)   ...       0.02 
freq.    1081.23  E(vib)   ...       0.02 
freq.    1105.97  E(vib)   ...       0.02 
freq.    1117.83  E(vib)   ...       0.01 
freq.    1131.17  E(vib)   ...       0.01 
freq.    1141.70  E(vib)   ...       0.01 
freq.    1180.82  E(vib)   ...       0.01 
freq.    1190.80  E(vib)   ...       0.01 
freq.    1194.52  E(vib)   ...       0.01 
freq.    1209.85  E(vib)   ...       0.01 
freq.    1218.13  E(vib)   ...       0.01 
freq.    1242.15  E(vib)   ...       0.01 
freq.    1264.76  E(vib)   ...       0.01 
freq.    1269.94  E(vib)   ...       0.01 
freq.    1280.08  E(vib)   ...       0.01 
freq.    1281.23  E(vib)   ...       0.01 
freq.    1282.92  E(vib)   ...       0.01 
freq.    1292.37  E(vib)   ...       0.01 
freq.    1304.56  E(vib)   ...       0.01 
freq.    1339.55  E(vib)   ...       0.01 
freq.    1341.42  E(vib)   ...       0.01 
freq.    1371.68  E(vib)   ...       0.01 
freq.    1407.20  E(vib)   ...       0.00 
freq.    1423.52  E(vib)   ...       0.00 
freq.    1430.51  E(vib)   ...       0.00 
freq.    1444.36  E(vib)   ...       0.00 
freq.    1449.76  E(vib)   ...       0.00 
freq.    1459.42  E(vib)   ...       0.00 
freq.    1481.56  E(vib)   ...       0.00 
freq.    1492.87  E(vib)   ...       0.00 
freq.    1501.98  E(vib)   ...       0.00 
freq.    1506.35  E(vib)   ...       0.00 
freq.    1510.46  E(vib)   ...       0.00 
freq.    1567.04  E(vib)   ...       0.00 
freq.    1572.73  E(vib)   ...       0.00 
freq.    2078.55  E(vib)   ...       0.00 
freq.    2236.26  E(vib)   ...       0.00 
freq.    2934.64  E(vib)   ...       0.00 
freq.    2944.20  E(vib)   ...       0.00 
freq.    2960.79  E(vib)   ...       0.00 
freq.    2970.28  E(vib)   ...       0.00 
freq.    2973.55  E(vib)   ...       0.00 
freq.    2976.98  E(vib)   ...       0.00 
freq.    2981.02  E(vib)   ...       0.00 
freq.    2998.51  E(vib)   ...       0.00 
freq.    3008.92  E(vib)   ...       0.00 
freq.    3035.62  E(vib)   ...       0.00 
freq.    3042.73  E(vib)   ...       0.00 
freq.    3052.25  E(vib)   ...       0.00 
freq.    3057.41  E(vib)   ...       0.00 
freq.    3068.16  E(vib)   ...       0.00 
freq.    3092.97  E(vib)   ...       0.00 
freq.    3330.54  E(vib)   ...       0.00 
freq.    3594.12  E(vib)   ...       0.00 
freq.    3608.84  E(vib)   ...       0.00 

------------
INNER ENERGY
------------

The inner energy is: U= E(el) + E(ZPE) + E(vib) + E(rot) + E(trans)
    E(el)   - is the total energy from the electronic structure calculation
              = E(kin-el) + E(nuc-el) + E(el-el) + E(nuc-nuc)
    E(ZPE)  - the the zero temperature vibrational energy from the frequency calculation
    E(vib)  - the the finite temperature correction to E(ZPE) due to population
              of excited vibrational states
    E(rot)  - is the rotational thermal energy
    E(trans)- is the translational thermal energy

Summary of contributions to the inner energy U:
Electronic energy                ...    -49.35896279 Eh
Zero point energy                ...      0.29925014 Eh     187.78 kcal/mol
Thermal vibrational correction   ...      0.01401596 Eh       8.80 kcal/mol
Thermal rotational correction    ...      0.00141627 Eh       0.89 kcal/mol
Thermal translational correction ...      0.00141627 Eh       0.89 kcal/mol
-----------------------------------------------------------------------
Total thermal energy                    -49.04286415 Eh


Summary of corrections to the electronic energy:
(perhaps to be used in another calculation)
Total thermal correction                  0.01684850 Eh      10.57 kcal/mol
Non-thermal (ZPE) correction              0.29925014 Eh     187.78 kcal/mol
-----------------------------------------------------------------------
Total correction                          0.31609864 Eh     198.35 kcal/mol


--------
ENTHALPY
--------

The enthalpy is H = U + kB*T
                kB is Boltzmann's constant
Total free energy                 ...    -49.04286415 Eh 
Thermal Enthalpy correction       ...      0.00094421 Eh       0.59 kcal/mol
-----------------------------------------------------------------------
Total Enthalpy                    ...    -49.04191994 Eh


Note: Only C1 symmetry has been detected, increase convergence thresholds 
      if your molecule has a higher symmetry. Symmetry factor of 1.0 is   
      used for the rotational entropy correction. 
 

Note: Rotational entropy computed according to Herzberg 
Infrared and Raman Spectra, Chapter V,1, Van Nostrand Reinhold, 1945 
Point Group:  C1, Symmetry Number:   1  
Rotational constants in cm-1:     0.027413     0.009681     0.008050 

Vibrational entropy computed according to the QRRHO of S. Grimme
Chem.Eur.J. 2012 18 9955


-------
ENTROPY
-------

The entropy contributions are T*S = T*(S(el)+S(vib)+S(rot)+S(trans))
     S(el)   - electronic entropy
     S(vib)  - vibrational entropy
     S(rot)  - rotational entropy
     S(trans)- translational entropy
The entropies will be listed as mutliplied by the temperature to get
units of energy

Electronic entropy                ...      0.00000000 Eh      0.00 kcal/mol
Vibrational entropy               ...      0.02463175 Eh     15.46 kcal/mol
Rotational entropy                ...      0.01567462 Eh      9.84 kcal/mol
Translational entropy             ...      0.01995728 Eh     12.52 kcal/mol
-----------------------------------------------------------------------
Final entropy term                ...      0.06026365 Eh     37.82 kcal/mol

In case the symmetry of your molecule has not been determined correctly
or in case you have a reason to use a different symmetry number we print 
out the resulting rotational entropy values for sn=1,12 :
 --------------------------------------------------------
|  sn= 1 | S(rot)=       0.01567462 Eh      9.84 kcal/mol|
|  sn= 2 | S(rot)=       0.01502017 Eh      9.43 kcal/mol|
|  sn= 3 | S(rot)=       0.01463733 Eh      9.19 kcal/mol|
|  sn= 4 | S(rot)=       0.01436571 Eh      9.01 kcal/mol|
|  sn= 5 | S(rot)=       0.01415502 Eh      8.88 kcal/mol|
|  sn= 6 | S(rot)=       0.01398288 Eh      8.77 kcal/mol|
|  sn= 7 | S(rot)=       0.01383733 Eh      8.68 kcal/mol|
|  sn= 8 | S(rot)=       0.01371125 Eh      8.60 kcal/mol|
|  sn= 9 | S(rot)=       0.01360005 Eh      8.53 kcal/mol|
|  sn=10 | S(rot)=       0.01350057 Eh      8.47 kcal/mol|
|  sn=11 | S(rot)=       0.01341058 Eh      8.42 kcal/mol|
|  sn=12 | S(rot)=       0.01332842 Eh      8.36 kcal/mol|
 --------------------------------------------------------


-------------------
GIBBS FREE ENERGY
-------------------

The Gibbs free energy is G = H - T*S

Total enthalpy                    ...    -49.04191994 Eh 
Total entropy correction          ...     -0.06026365 Eh    -37.82 kcal/mol
-----------------------------------------------------------------------
Final Gibbs free energy         ...    -49.10218359 Eh

For completeness - the Gibbs free energy minus the electronic energy
G-E(el)                           ...      0.25677920 Eh    161.13 kcal/mol


Total Time for Numerical Frequencies  :       124.831 sec
Time for Reference State(s)           :         0.212 sec
Time for Displacements                :       117.730 sec

Timings for individual modules:

Sum of individual times         ...        0.414 sec (=   0.007 min)
XTB module                      ...        0.414 sec (=   0.007 min) 100.0 %
                             ****ORCA TERMINATED NORMALLY****
TOTAL RUN TIME: 0 days 0 hours 2 minutes 5 seconds 602 msec
(SLURM) EXECUTION TIME: 125.622635508 seconds.
